<event>
12    1  0.1030140E-001  0.1741453E+03  0.7818608E-02  0.1173790E+00
         21   -1    0    0  501  502  0.00000000000E+00  0.00000000000E+00  0.39188681642E+03  0.39188681642E+03  0.00000000000E+00 0. -1.
         21   -1    0    0  502  503 -0.00000000000E+00 -0.00000000000E+00 -0.80073768091E+02  0.80073768091E+02  0.00000000000E+00 0. -1.
         -6    2    1    2    0  503  0.13239498699E+02 -0.17209702470E+02  0.10963750596E+03  0.20512440205E+03  0.17200052156E+03 0.  0.
        -24    2    3    3    0    0  0.64186881851E+02 -0.23717797142E+02  0.27853941192E+02  0.10843607487E+03  0.79372858021E+02 0.  0.
          6    2    1    2  501    0 -0.13239498699E+02  0.17209702470E+02  0.20217554237E+03  0.26683618246E+03  0.17278640037E+03 0.  0.
         24    2    5    5    0    0 -0.42809435968E+02 -0.15334136088E+02  0.40164668952E+02  0.98898409096E+02  0.78101927967E+02 0.  0.
          5    1    5    5  501    0  0.29569937269E+02  0.32543838557E+02  0.16201087342E+03  0.16793777337E+03  0.47000000000E+01 0. -1.
        -11    1    6    6    0    0 -0.43119005242E+02 -0.30008393006E+02  0.56356528120E+02  0.77044211500E+02  0.00000000000E+00 0.  1.
         12    1    6    6    0    0  0.30956927464E+00  0.14674256918E+02 -0.16191859168E+02  0.21854197596E+02  0.00000000000E+00 0. -1.
         -5    1    3    3    0  503 -0.50947383153E+02  0.65080946727E+01  0.81783564770E+02  0.96688327180E+02  0.47000000000E+01 0.  1.
         13    1    4    4    0    0  0.90181007282E+01 -0.29223347124E+02  0.41295403163E+02  0.51387162602E+02  0.00000000000E+00 0. -1.
        -14    1    4    4    0    0  0.55168781123E+02  0.55055499819E+01 -0.13441461970E+02  0.57048912269E+02  0.00000000000E+00 0.  1.
</event>
<event>
12    1  0.1030140E-001  0.1928917E+03  0.7818608E-02  0.1156223E+00
         21   -1    0    0  503  502  0.00000000000E+00  0.00000000000E+00  0.14243798717E+04  0.14243798717E+04  0.00000000000E+00 0. -1.
         21   -1    0    0  501  503 -0.00000000000E+00 -0.00000000000E+00 -0.29517233981E+02  0.29517233981E+02  0.00000000000E+00 0. -1.
          6    2    1    2  501    0 -0.81873558080E+02 -0.34605759873E+02  0.44091980078E+03  0.48064782823E+03  0.16944387252E+03 0.  0.
         24    2    3    3    0    0 -0.10951548854E+03 -0.26010713344E+02  0.23361992456E+03  0.27128383938E+03  0.79664627792E+02 0.  0.
         -6    2    1    2    0  502  0.81873558080E+02  0.34605759873E+02  0.95394283693E+03  0.97324927745E+03  0.17119106806E+03 0.  0.
        -24    2    5    5    0    0  0.32754298244E+02  0.84149529240E+02  0.68651252086E+03  0.69682867271E+03  0.78209785081E+02 0.  0.
          5    1    3    3  501    0  0.27641930459E+02 -0.85950465289E+01  0.20729987622E+03  0.20936398885E+03  0.47000000000E+01 0. -1.
        -13    1    4    4    0    0 -0.43704268760E+02 -0.40095324229E+02  0.56934973366E+02  0.82214897221E+02  0.00000000000E+00 0.  1.
         14    1    4    4    0    0 -0.65811219778E+02  0.14084610885E+02  0.17668495119E+03  0.18906894216E+03  0.00000000000E+00 0. -1.
         -5    1    5    5    0  502  0.49119259836E+02 -0.49543769367E+02  0.26743031607E+03  0.27642060474E+03  0.47000000000E+01 0.  1.
         11    1    6    6    0    0  0.53010935320E+02  0.80657319158E+02  0.50368432552E+03  0.51284857626E+03  0.00000000000E+00 0. -1.
        -12    1    6    6    0    0 -0.20256637076E+02  0.34922100819E+01  0.18282819535E+03  0.18398009645E+03  0.00000000000E+00 0.  1.
</event>
<event>
12    1  0.1030140E-001  0.1755545E+03  0.7818608E-02  0.1172439E+00
         21   -1    0    0  501  502  0.00000000000E+00  0.00000000000E+00  0.22873266219E+03  0.22873266219E+03  0.00000000000E+00 0.  1.
         21   -1    0    0  502  503 -0.00000000000E+00 -0.00000000000E+00 -0.19191880435E+03  0.19191880435E+03  0.00000000000E+00 0.  1.
         -6    2    1    2    0  503 -0.25620100743E+02  0.12828031089E+02 -0.97160479018E+02  0.20064778990E+03  0.17320054552E+03 0.  0.
        -24    2    3    3    0    0 -0.79710970200E+02  0.28861979147E+02 -0.58960852471E+02  0.13235275994E+03  0.82788998849E+02 0.  0.
          6    2    1    2  501    0  0.25620100743E+02 -0.12828031089E+02  0.13397433686E+03  0.22000367663E+03  0.17213816210E+03 0.  0.
         24    2    5    5    0    0  0.38456540767E+02 -0.53541523879E+02  0.30918472028E+02  0.10835707362E+03  0.80247761239E+02 0.  0.
          5    1    5    5  501    0 -0.12836440024E+02  0.40713492789E+02  0.10305586483E+03  0.11164660301E+03  0.47000000000E+01 0. -1.
        -11    1    6    6    0    0 -0.24003292838E+01 -0.65388093395E+01  0.44144146989E+02  0.44690304559E+02  0.00000000000E+00 0.  1.
         12    1    6    6    0    0  0.40856870050E+02 -0.47002714539E+02 -0.13225674961E+02  0.63666769060E+02  0.00000000000E+00 0. -1.
         -5    1    3    3    0  503  0.54090869457E+02 -0.16033948057E+02 -0.38199626546E+02  0.68295029959E+02  0.47000000000E+01 0.  1.
         11    1    4    4    0    0 -0.76354343133E+02 -0.41909905162E+01 -0.16138213106E+02  0.78153643799E+02  0.00000000000E+00 0. -1.
        -12    1    4    4    0    0 -0.33566270667E+01  0.33052969663E+02 -0.42822639365E+02  0.54199116146E+02  0.00000000000E+00 0.  1.
</event>
<event>
12    1  0.1030140E-001  0.1860427E+03  0.7818608E-02  0.1162280E+00
         21   -1    0    0  501  502  0.00000000000E+00  0.00000000000E+00  0.85726504254E+03  0.85726504254E+03  0.00000000000E+00 0.  1.
         21   -1    0    0  502  503 -0.00000000000E+00 -0.00000000000E+00 -0.43349699661E+02  0.43349699661E+02  0.00000000000E+00 0.  1.
         -6    2    1    2    0  503  0.62267942194E+02  0.29815142673E+02  0.28447968821E+03  0.33944275994E+03  0.17183263634E+03 0.  0.
        -24    2    3    3    0    0  0.27821321525E+01  0.30999161134E+02  0.27652673898E+02  0.75772191278E+02  0.63309291159E+02 0.  0.
          6    2    1    2  501    0 -0.62267942194E+02 -0.29815142673E+02  0.52943565466E+03  0.56117198226E+03  0.17275891261E+03 0.  0.
         24    2    5    5    0    0 -0.40308916651E+02 -0.89634252774E+02  0.34137435723E+03  0.36255258158E+03  0.72448703231E+02 0.  0.
          5    1    5    5  501    0 -0.21959025543E+02  0.59819110101E+02  0.18806129743E+03  0.19861940068E+03  0.47000000000E+01 0. -1.
        -13    1    6    6    0    0  0.17467760506E+02 -0.46928885783E+02  0.13068573543E+03  0.13995072141E+03  0.00000000000E+00 0.  1.
         14    1    6    6    0    0 -0.57776677156E+02 -0.42705366991E+02  0.21068862180E+03  0.22260186017E+03  0.00000000000E+00 0. -1.
         -5    1    3    3    0  503  0.59485810042E+02 -0.11840184607E+01  0.25682701431E+03  0.26367056866E+03  0.47000000000E+01 0.  1.
         13    1    4    4    0    0  0.32837532720E+02  0.20456786069E+02  0.14631251267E+02  0.41362509172E+02  0.00000000000E+00 0. -1.
        -14    1    4    4    0    0 -0.30055400567E+02  0.10542375065E+02  0.13021422632E+02  0.34409682106E+02  0.00000000000E+00 0.  1.
</event>
<event>
12    1  0.1030140E-001  0.2394714E+03  0.7818608E-02  0.1120305E+00
         21   -1    0    0  501  502  0.00000000000E+00  0.00000000000E+00  0.13033842290E+03  0.13033842290E+03  0.00000000000E+00 0. -1.
         21   -1    0    0  502  503 -0.00000000000E+00 -0.00000000000E+00 -0.43878765280E+03  0.43878765280E+03  0.00000000000E+00 0.  1.
         -6    2    1    2    0  503  0.12858017282E+03  0.10393877304E+03 -0.16408718589E+03  0.28950675531E+03  0.17191110322E+03 0.  0.
        -24    2    3    3    0    0  0.15732590751E+01  0.70114773584E+02 -0.61557056713E+02  0.12274543945E+03  0.79740924593E+02 0.  0.
          6    2    1    2  501    0 -0.12858017282E+03 -0.10393877304E+03 -0.14436204401E+03  0.27961932038E+03  0.17323520196E+03 0.  0.
         24    2    5    5    0    0 -0.92620380340E+02 -0.14176071121E+03 -0.12034831635E+03  0.22197944878E+03  0.78208211424E+02 0.  0.
          5    1    5    5  501    0 -0.35959792482E+02  0.37821938172E+02 -0.24013727658E+02  0.57639871604E+02  0.47000000000E+01 0. -1.
        -13    1    6    6    0    0 -0.59717600995E+02 -0.24283647849E+02 -0.44296534861E+02  0.78218095234E+02  0.00000000000E+00 0.  1.
         14    1    6    6    0    0 -0.32902779345E+02 -0.11747706337E+03 -0.76051781490E+02  0.14376135355E+03  0.00000000000E+00 0. -1.
         -5    1    3    3    0  503  0.12700691375E+03  0.33823999458E+02 -0.10253012918E+03  0.16676131586E+03  0.47000000000E+01 0.  1.
         11    1    4    4    0    0  0.29964207832E+02  0.50428395192E+02 -0.82706006274E+01  0.59239173081E+02  0.00000000000E+00 0. -1.
        -12    1    4    4    0    0 -0.28390948756E+02  0.19686378392E+02 -0.53286456086E+02  0.63506266365E+02  0.00000000000E+00 0.  1.
</event>
<event>
12    1  0.1030140E-001  0.1819669E+03  0.7818608E-02  0.1166677E+00
         21   -1    0    0  501  502  0.00000000000E+00  0.00000000000E+00  0.66092654137E+02  0.66092654137E+02  0.00000000000E+00 0.  1.
         21   -1    0    0  502  503 -0.00000000000E+00 -0.00000000000E+00 -0.11411251026E+04  0.11411251026E+04  0.00000000000E+00 0.  1.
         -6    2    1    2    0  503 -0.10564311605E+02  0.51662617936E+02 -0.99469458851E+03  0.10112018885E+04  0.17415884710E+03 0.  0.
        -24    2    3    3    0    0 -0.38991600234E+02  0.50160543695E+02 -0.96256808159E+03  0.96802122828E+03  0.80568987040E+02 0.  0.
          6    2    1    2  501    0  0.10564311605E+02 -0.51662617936E+02 -0.80337859911E+02  0.19601586824E+03  0.17084325593E+03 0.  0.
         24    2    5    5    0    0  0.48877639343E+02  0.17452731400E+02 -0.24616619490E+02  0.99207866351E+02  0.80886348229E+02 0.  0.
          5    1    5    5  501    0 -0.38313327738E+02 -0.69115349337E+02 -0.55721240421E+02  0.96808001892E+02  0.47000000000E+01 0. -1.
        -13    1    6    6    0    0  0.41492317250E+02 -0.26431901883E+02 -0.18745547187E+01  0.49231816779E+02  0.00000000000E+00 0.  1.
         14    1    6    6    0    0  0.73853220932E+01  0.43884633283E+02 -0.22742064771E+02  0.49976049573E+02  0.00000000000E+00 0. -1.
         -5    1    3    3    0  503  0.28427288629E+02  0.15020742412E+01 -0.32126506918E+02  0.43180660168E+02  0.47000000000E+01 0.  1.
         11    1    4    4    0    0 -0.35014844300E+02 -0.12674699480E+02 -0.26258762810E+03  0.26521491240E+03  0.00000000000E+00 0. -1.
        -12    1    4    4    0    0 -0.39767559337E+01  0.62835243175E+02 -0.69998045350E+03  0.70280631589E+03  0.00000000000E+00 0.  1.
</event>
<event>
12    1  0.1030140E-001  0.2026994E+03  0.7818608E-02  0.1147814E+00
         21   -1    0    0  503  502  0.00000000000E+00  0.00000000000E+00  0.60367661971E+03  0.60367661971E+03  0.00000000000E+00 0.  1.
         21   -1    0    0  501  503 -0.00000000000E+00 -0.00000000000E+00 -0.71900559082E+02  0.71900559082E+02  0.00000000000E+00 0.  1.
          6    2    1    2  501    0  0.98815663051E+02 -0.32980265995E+02  0.18355186792E+03  0.27345624138E+03  0.17388155314E+03 0.  0.
         24    2    3    3    0    0  0.72080214283E+02  0.27311239986E+01  0.35094313158E+02  0.11836973919E+03  0.87044632290E+02 0.  0.
         -6    2    1    2    0  502 -0.98815663051E+02  0.32980265995E+02  0.34822419271E+03  0.40212093742E+03  0.17201432123E+03 0.  0.
        -24    2    5    5    0    0 -0.64728122019E+02 -0.43840165247E+02  0.24336890910E+03  0.26765882524E+03  0.79379663278E+02 0.  0.
          5    1    3    3  501    0  0.26735448769E+02 -0.35711389994E+02  0.14845755476E+03  0.15508650219E+03  0.47000000000E+01 0. -1.
        -13    1    4    4    0    0  0.75002994172E+02 -0.29452945445E+02  0.22249181198E+02  0.83593966254E+02  0.00000000000E+00 0.  1.
         14    1    4    4    0    0 -0.29227798892E+01  0.32184069443E+02  0.12845131959E+02  0.34775772935E+02  0.00000000000E+00 0. -1.
         -5    1    5    5    0  502 -0.34087541033E+02  0.76820431242E+02  0.10485528362E+03  0.13446211218E+03  0.47000000000E+01 0.  1.
         11    1    6    6    0    0 -0.16145541093E+01  0.19568695408E+02  0.25863284570E+02  0.32472297635E+02  0.00000000000E+00 0. -1.
        -12    1    6    6    0    0 -0.63113567909E+02 -0.63408860655E+02  0.21750562453E+03  0.23518652760E+03  0.00000000000E+00 0.  1.
</event>
<event>
12    1  0.1030140E-001  0.1816032E+03  0.7818608E-02  0.1167582E+00
         21   -1    0    0  503  502  0.00000000000E+00  0.00000000000E+00  0.16427998531E+03  0.16427998531E+03  0.00000000000E+00 0.  1.
         21   -1    0    0  501  503 -0.00000000000E+00 -0.00000000000E+00 -0.40308181006E+03  0.40308181006E+03  0.00000000000E+00 0.  1.
          6    2    1    2  501    0  0.96207272213E+01  0.21456153615E+02 -0.32419085590E+03  0.37159038912E+03  0.18007437720E+03 0.  0.
         24    2    3    3    0    0  0.38497647020E+02  0.69431898732E+02 -0.26877012891E+03  0.29266576941E+03  0.84338680363E+02 0.  0.
         -6    2    1    2    0  502 -0.96207272213E+01 -0.21456153615E+02  0.85389031143E+02  0.19577140625E+03  0.17459161476E+03 0.  0.
        -24    2    5    5    0    0  0.12334144334E+01  0.56024850125E+02  0.38231006291E+02  0.10429962022E+03  0.79224338390E+02 0.  0.
          5    1    3    3  501    0 -0.28876919799E+02 -0.47975745117E+02 -0.55420726987E+02  0.78924619710E+02  0.47000000000E+01 0. -1.
        -13    1    4    4    0    0  0.17980003153E+02  0.74643587918E+02 -0.12042979870E+03  0.14282255475E+03  0.00000000000E+00 0.  1.
         14    1    4    4    0    0  0.20517643867E+02 -0.52116891861E+01 -0.14834033021E+03  0.14984321466E+03  0.00000000000E+00 0. -1.
         -5    1    5    5    0  502 -0.10854141655E+02 -0.77481003740E+02  0.47158024852E+02  0.91471786031E+02  0.47000000000E+01 0.  1.
         13    1    6    6    0    0  0.62595866702E+01  0.63472902759E+02  0.55684836525E+02  0.84668724029E+02  0.00000000000E+00 0. -1.
        -14    1    6    6    0    0 -0.50261722368E+01 -0.74480526333E+01 -0.17453830235E+02  0.19630896191E+02  0.00000000000E+00 0.  1.
</event>
<event>
12    1  0.1030140E-001  0.1985284E+03  0.7818608E-02  0.1151224E+00
         21   -1    0    0  501  502  0.00000000000E+00  0.00000000000E+00  0.30746626661E+02  0.30746626661E+02  0.00000000000E+00 0.  1.
         21   -1    0    0  502  503 -0.00000000000E+00 -0.00000000000E+00 -0.13633081812E+04  0.13633081812E+04  0.00000000000E+00 0. -1.
         -6    2    1    2    0  503 -0.92147566575E+02 -0.33364044618E+02 -0.84571106754E+03  0.86870059538E+03  0.17265335547E+03 0.  0.
        -24    2    3    3    0    0 -0.44479088849E+02  0.44080248162E+02 -0.31268057941E+03  0.32794788523E+03  0.76545496711E+02 0.  0.
          6    2    1    2  501    0  0.92147566575E+02  0.33364044618E+02 -0.48685048703E+03  0.52535421251E+03  0.17137478923E+03 0.  0.
         24    2    5    5    0    0  0.10449912225E+03  0.51122832655E+02 -0.48227786421E+03  0.50275035533E+03  0.81439369531E+02 0.  0.
          5    1    5    5  501    0 -0.12351555671E+02 -0.17758788038E+02 -0.45726228223E+01  0.22603857183E+02  0.47000000000E+01 0. -1.
        -11    1    6    6    0    0  0.90081151608E+02  0.48237957630E+02 -0.25096150219E+03  0.27096713825E+03  0.00000000000E+00 0.  1.
         12    1    6    6    0    0  0.14417970639E+02  0.28848750256E+01 -0.23131636201E+03  0.23178321707E+03  0.00000000000E+00 0. -1.
         -5    1    3    3    0  503 -0.47668477727E+02 -0.77444292780E+02 -0.53303048813E+03  0.54075271015E+03  0.47000000000E+01 0.  1.
         13    1    4    4    0    0  0.30997722950E+01 -0.17777524633E+02 -0.95062782264E+02  0.96760433763E+02  0.00000000000E+00 0. -1.
        -14    1    4    4    0    0 -0.47578861144E+02  0.61857772795E+02 -0.21761779715E+03  0.23118745147E+03  0.00000000000E+00 0.  1.
</event>
<event>
12    1  0.1030140E-001  0.2101396E+03  0.7818608E-02  0.1141619E+00
         21   -1    0    0  501  502  0.00000000000E+00  0.00000000000E+00  0.13147294275E+04  0.13147294275E+04  0.00000000000E+00 0.  1.
         21   -1    0    0  502  503 -0.00000000000E+00 -0.00000000000E+00 -0.33758654653E+02  0.33758654653E+02  0.00000000000E+00 0.  1.
         -6    2    1    2    0  503 -0.11861993856E+03 -0.22443744635E+02  0.57538553758E+03  0.61227536001E+03  0.17099177795E+03 0.  0.
        -24    2    3    3    0    0 -0.35373376525E+02  0.43657243447E+02  0.31726251813E+03  0.33308203294E+03  0.84444683552E+02 0.  0.
          6    2    1    2  501    0  0.11861993856E+03  0.22443744635E+02  0.70558523530E+03  0.73621272217E+03  0.17200068755E+03 0.  0.
         24    2    5    5    0    0  0.11163167655E+03  0.24984349906E+02  0.30217410820E+03  0.33270569875E+03  0.79360200139E+02 0.  0.
          5    1    5    5  501    0  0.69882620121E+01 -0.25406052708E+01  0.40341112710E+03  0.40350702342E+03  0.47000000000E+01 0. -1.
        -13    1    6    6    0    0  0.62168547147E+02  0.47981640054E+02  0.22411734080E+03  0.23747789051E+03  0.00000000000E+00 0.  1.
         14    1    6    6    0    0  0.49463129403E+02 -0.22997290148E+02  0.78056767397E+02  0.95227808233E+02  0.00000000000E+00 0. -1.
         -5    1    3    3    0  503 -0.83246562037E+02 -0.66100988082E+02  0.25812301944E+03  0.27919332708E+03  0.47000000000E+01 0.  1.
         13    1    4    4    0    0  0.16472517690E+02  0.20542250431E+02  0.21073882766E+03  0.21237745025E+03  0.00000000000E+00 0. -1.
        -14    1    4    4    0    0 -0.51845894215E+02  0.23114993016E+02  0.10652369048E+03  0.12070458269E+03  0.00000000000E+00 0.  1.
</event>
<event>
12    1  0.1030140E-001  0.2181026E+03  0.7818608E-02  0.1135342E+00
         21   -1    0    0  501  502  0.00000000000E+00  0.00000000000E+00  0.19140196080E+03  0.19140196080E+03  0.00000000000E+00 0. -1.
         21   -1    0    0  502  503 -0.00000000000E+00 -0.00000000000E+00 -0.44940368145E+03  0.44940368145E+03  0.00000000000E+00 0. -1.
         -6    2    1    2    0  503 -0.11091387460E+03  0.76974189655E+02 -0.34336170864E+03  0.40677512006E+03  0.17129454718E+03 0.  0.
        -24    2    3    3    0    0 -0.25064547649E+02  0.79614662444E+02 -0.11391437457E+03  0.16173380080E+03  0.78832807656E+02 0.  0.
          6    2    1    2  501    0  0.11091387460E+03 -0.76974189655E+02  0.85359987982E+02  0.23403052219E+03  0.17104690677E+03 0.  0.
         24    2    5    5    0    0  0.12161384924E+03 -0.23606985547E+02  0.23847481955E+02  0.15176007592E+03  0.84351645821E+02 0.  0.
          5    1    5    5  501    0 -0.10699974643E+02 -0.53367204109E+02  0.61512506028E+02  0.82270446271E+02  0.47000000000E+01 0. -1.
        -13    1    6    6    0    0 -0.48700748565E+00  0.16646991464E+01 -0.19631667998E+02  0.19708140144E+02  0.00000000000E+00 0.  1.
         14    1    6    6    0    0  0.12210085673E+03 -0.25271684693E+02  0.43479149953E+02  0.13205193577E+03  0.00000000000E+00 0. -1.
         -5    1    3    3    0  503 -0.85849326948E+02 -0.26404727889E+01 -0.22944733407E+03  0.24504131927E+03  0.47000000000E+01 0.  1.
         11    1    4    4    0    0  0.53951953116E+01  0.76063393168E+02 -0.10505704990E+03  0.12981421974E+03  0.00000000000E+00 0. -1.
        -12    1    4    4    0    0 -0.30459742960E+02  0.35512692762E+01 -0.88573246628E+01  0.31919581057E+02  0.00000000000E+00 0.  1.
</event>
<event>
12    1  0.1030140E-001  0.1942623E+03  0.7818608E-02  0.1154699E+00
         21   -1    0    0  501  502  0.00000000000E+00  0.00000000000E+00  0.26443967335E+03  0.26443967335E+03  0.00000000000E+00 0. -1.
         21   -1    0    0  502  503 -0.00000000000E+00 -0.00000000000E+00 -0.14431376109E+03  0.14431376109E+03  0.00000000000E+00 0.  1.
         -6    2    1    2    0  503  0.10773637058E+02 -0.90807223043E+02  0.82230391012E+02  0.21094943828E+03  0.17139371427E+03 0.  0.
        -24    2    3    3    0    0  0.46443537433E+02 -0.11255181646E+02  0.81062419387E+02  0.12363206749E+03  0.80187848156E+02 0.  0.
          6    2    1    2  501    0 -0.10773637058E+02  0.90807223043E+02  0.37895521245E+02  0.19780399617E+03  0.17125515279E+03 0.  0.
         24    2    5    5    0    0 -0.59215749791E+02  0.75723254944E+02  0.63355917636E+02  0.14084360498E+03  0.81132190913E+02 0.  0.
          5    1    5    5  501    0  0.48442112733E+02  0.15083968100E+02 -0.25460396391E+02  0.56960391186E+02  0.47000000000E+01 0. -1.
        -11    1    6    6    0    0  0.86994306704E+01  0.29632784690E+02 -0.82000830980E+01  0.31953456547E+02  0.00000000000E+00 0.  1.
         12    1    6    6    0    0 -0.67915180461E+02  0.46090470254E+02  0.71556000734E+02  0.10889014844E+03  0.00000000000E+00 0. -1.
         -5    1    3    3    0  503 -0.35669900376E+02 -0.79552041397E+02  0.11679716248E+01  0.87317370786E+02  0.47000000000E+01 0.  1.
         11    1    4    4    0    0  0.27351459211E+02 -0.39382577020E+02  0.16574835934E+02  0.50732779147E+02  0.00000000000E+00 0. -1.
        -12    1    4    4    0    0  0.19092078222E+02  0.28127395374E+02  0.64487583453E+02  0.72899288344E+02  0.00000000000E+00 0.  1.
</event>
<event>
12    1  0.1030140E-001  0.1770826E+03  0.7818608E-02  0.1170964E+00
         21   -1    0    0  501  502  0.00000000000E+00  0.00000000000E+00  0.75563320118E+03  0.75563320118E+03  0.00000000000E+00 0.  1.
         21   -1    0    0  502  503 -0.00000000000E+00 -0.00000000000E+00 -0.48701428948E+02  0.48701428948E+02  0.00000000000E+00 0. -1.
         -6    2    1    2    0  503  0.41489267725E+02 -0.11087431867E+01  0.19468476029E+03  0.26234269402E+03  0.17087698666E+03 0.  0.
        -24    2    3    3    0    0 -0.23142366812E+02 -0.46959107679E+02  0.99850679904E+02  0.13866934641E+03  0.80736004488E+02 0.  0.
          6    2    1    2  501    0 -0.41489267725E+02  0.11087431867E+01  0.51224701194E+03  0.54199193611E+03  0.17215013480E+03 0.  0.
         24    2    5    5    0    0 -0.29164694583E+01 -0.10136729808E+02  0.48935236420E+03  0.49550993611E+03  0.77156343498E+02 0.  0.
          5    1    5    5  501    0 -0.38572798267E+02  0.11245472995E+02  0.22894647738E+02  0.46482000000E+02  0.47000000000E+01 0. -1.
        -13    1    6    6    0    0 -0.30553133977E+02 -0.29882930242E+02  0.31434304254E+03  0.31723497902E+03  0.00000000000E+00 0.  1.
         14    1    6    6    0    0  0.27636664518E+02  0.19746200434E+02  0.17500932166E+03  0.17827495709E+03  0.00000000000E+00 0. -1.
         -5    1    3    3    0  503  0.64631634537E+02  0.45850364492E+02  0.94834080385E+02  0.12367334761E+03  0.47000000000E+01 0.  1.
         11    1    4    4    0    0  0.27092028896E+02 -0.88628067190E-01  0.34313430587E+02  0.43719531142E+02  0.00000000000E+00 0. -1.
        -12    1    4    4    0    0 -0.50234395708E+02 -0.46870479612E+02  0.65537249317E+02  0.94949815267E+02  0.00000000000E+00 0.  1.
</event>
<event>
12    1  0.1030140E-001  0.2019940E+03  0.7818608E-02  0.1148680E+00
         21   -1    0    0  501  502  0.00000000000E+00  0.00000000000E+00  0.13093862347E+03  0.13093862347E+03  0.00000000000E+00 0. -1.
         21   -1    0    0  502  503 -0.00000000000E+00 -0.00000000000E+00 -0.30716852454E+03  0.30716852454E+03  0.00000000000E+00 0. -1.
         -6    2    1    2    0  503 -0.97280399705E+02  0.19681133509E+02 -0.90110593336E+02  0.21852092176E+03  0.17257071314E+03 0.  0.
        -24    2    3    3    0    0 -0.34016808787E+02  0.20344131209E+02 -0.11905702010E+03  0.14878780822E+03  0.79951303211E+02 0.  0.
          6    2    1    2  501    0  0.97280399705E+02 -0.19681133509E+02 -0.86119307742E+02  0.21958622625E+03  0.17592825927E+03 0.  0.
         24    2    5    5    0    0  0.54940643488E+02  0.30713944463E+02  0.10428895527E+02  0.10264194723E+03  0.80403897780E+02 0.  0.
          5    1    5    5  501    0  0.42339756217E+02 -0.50395077972E+02 -0.96548203269E+02  0.11694427902E+03  0.47000000000E+01 0. -1.
        -13    1    6    6    0    0  0.74151680795E+01  0.49495311587E+02  0.12185598830E+02  0.51509799122E+02  0.00000000000E+00 0.  1.
         14    1    6    6    0    0  0.47525475409E+02 -0.18781367124E+02 -0.17567033030E+01  0.51132148110E+02  0.00000000000E+00 0. -1.
         -5    1    3    3    0  503 -0.63263590918E+02 -0.66299769975E+00  0.28946426762E+02  0.69733113541E+02  0.47000000000E+01 0.  1.
         13    1    4    4    0    0 -0.14342342093E+02  0.42644463103E+02 -0.27989073189E+02  0.52987179847E+02  0.00000000000E+00 0. -1.
        -14    1    4    4    0    0 -0.19674466694E+02 -0.22300331894E+02 -0.91067946908E+02  0.95800628372E+02  0.00000000000E+00 0.  1.
</event>
<event>
12    1  0.1030140E-001  0.1828610E+03  0.7818608E-02  0.1167036E+00
         21   -1    0    0  501  502  0.00000000000E+00  0.00000000000E+00  0.36555819978E+03  0.36555819978E+03  0.00000000000E+00 0.  1.
         21   -1    0    0  502  503 -0.00000000000E+00 -0.00000000000E+00 -0.10890586950E+03  0.10890586950E+03  0.00000000000E+00 0. -1.
         -6    2    1    2    0  503 -0.49042982064E+02 -0.24142726788E+02  0.20712205925E+02  0.17595797474E+03  0.16596423727E+03 0.  0.
        -24    2    3    3    0    0 -0.26105020054E+02 -0.12589329405E+02 -0.50777963393E+02  0.99849069863E+02  0.80941163195E+02 0.  0.
          6    2    1    2  501    0  0.49042982064E+02  0.24142726788E+02  0.23594012436E+03  0.29850609454E+03  0.17449945803E+03 0.  0.
         24    2    5    5    0    0 -0.25866175532E+02 -0.24081893148E+02  0.16970742175E+03  0.18739418359E+03  0.71182683528E+02 0.  0.
          5    1    5    5  501    0  0.74909157596E+02  0.48224619936E+02  0.66232702610E+02  0.11111191095E+03  0.47000000000E+01 0. -1.
        -11    1    6    6    0    0  0.24263016239E+02 -0.12574027933E+02  0.47419827555E+02  0.54730614658E+02  0.00000000000E+00 0.  1.
         12    1    6    6    0    0 -0.50129191771E+02 -0.11507865215E+02  0.12228759419E+03  0.13266356894E+03  0.00000000000E+00 0. -1.
         -5    1    3    3    0  503 -0.22937962010E+02 -0.11553397383E+02  0.71490169318E+02  0.76108904875E+02  0.47000000000E+01 0.  1.
         13    1    4    4    0    0  0.20813396778E+02 -0.27151988972E+02 -0.33199998676E+02  0.47672506780E+02  0.00000000000E+00 0. -1.
        -14    1    4    4    0    0 -0.46918416832E+02  0.14562659566E+02 -0.17577964717E+02  0.52176563084E+02  0.00000000000E+00 0.  1.
</event>
<event>
12    1  0.1030140E-001  0.2011952E+03  0.7818608E-02  0.1148887E+00
         21   -1    0    0  501  502  0.00000000000E+00  0.00000000000E+00  0.81449042378E+02  0.81449042378E+02  0.00000000000E+00 0. -1.
         21   -1    0    0  502  503 -0.00000000000E+00 -0.00000000000E+00 -0.50460753930E+03  0.50460753930E+03  0.00000000000E+00 0.  1.
         -6    2    1    2    0  503  0.92747418694E+02  0.46522695375E+02 -0.17194943840E+03  0.26466228890E+03  0.17237480367E+03 0.  0.
        -24    2    3    3    0    0  0.59752127935E+02 -0.99413058474E+01 -0.24726981612E+02  0.10349959338E+03  0.80197230969E+02 0.  0.
          6    2    1    2  501    0 -0.92747418694E+02 -0.46522695375E+02 -0.25120905852E+03  0.32139429277E+03  0.17152800204E+03 0.  0.
         24    2    5    5    0    0 -0.11966617423E+03 -0.15645353728E+01 -0.14948677360E+03  0.20687194212E+03  0.78276841583E+02 0.  0.
          5    1    5    5  501    0  0.26918755537E+02 -0.44958160002E+02 -0.10172228492E+03  0.11452235065E+03  0.47000000000E+01 0. -1.
        -11    1    6    6    0    0 -0.33836135947E+02 -0.18169646994E+02 -0.98372920528E+02  0.10560422179E+03  0.00000000000E+00 0.  1.
         12    1    6    6    0    0 -0.85830038283E+02  0.16605111621E+02 -0.51113853077E+02  0.10126772033E+03  0.00000000000E+00 0. -1.
         -5    1    3    3    0  503  0.32995290759E+02  0.56464001222E+02 -0.14722245679E+03  0.16116269552E+03  0.47000000000E+01 0.  1.
         13    1    4    4    0    0  0.65835649941E+02  0.18354229329E+02 -0.51126675292E+01  0.68537215486E+02  0.00000000000E+00 0. -1.
        -14    1    4    4    0    0 -0.60835220057E+01 -0.28295535176E+02 -0.19614314083E+02  0.34962377892E+02  0.00000000000E+00 0.  1.
</event>
<event>
12    1  0.1030140E-001  0.1835224E+03  0.7818608E-02  0.1164482E+00
         21   -1    0    0  501  502  0.00000000000E+00  0.00000000000E+00  0.37038361880E+02  0.37038361880E+02  0.00000000000E+00 0.  1.
         21   -1    0    0  502  503 -0.00000000000E+00 -0.00000000000E+00 -0.11626530778E+04  0.11626530778E+04  0.00000000000E+00 0.  1.
         -6    2    1    2    0  503 -0.21982538435E+02  0.60309863092E+02 -0.84354565818E+03  0.86327848110E+03  0.17193006401E+03 0.  0.
        -24    2    3    3    0    0 -0.31359666609E+02 -0.30848550755E+02 -0.47295973419E+03  0.48150131572E+03  0.78851411510E+02 0.  0.
          6    2    1    2  501    0  0.21982538435E+02 -0.60309863092E+02 -0.28206905775E+03  0.33641295859E+03  0.17172714924E+03 0.  0.
         24    2    5    5    0    0 -0.50339126175E+01 -0.65841282297E+02 -0.71607775432E+02  0.12410062598E+03  0.76895234799E+02 0.  0.
          5    1    5    5  501    0  0.27016451053E+02  0.55314192056E+01 -0.21046128232E+03  0.21231233262E+03  0.47000000000E+01 0. -1.
        -13    1    6    6    0    0  0.27354041082E+02 -0.37455095069E+01 -0.62528191875E+01  0.28308481993E+02  0.00000000000E+00 0.  1.
         14    1    6    6    0    0 -0.32387953699E+02 -0.62095772790E+02 -0.65354956245E+02  0.95792143984E+02  0.00000000000E+00 0. -1.
         -5    1    3    3    0  503  0.93771281734E+01  0.91158413846E+02 -0.37058592398E+03  0.38177716538E+03  0.47000000000E+01 0.  1.
         11    1    4    4    0    0  0.87264117561E+01 -0.38120131753E+02 -0.34508064426E+03  0.34728942648E+03  0.00000000000E+00 0. -1.
        -12    1    4    4    0    0 -0.40086078365E+02  0.72715809987E+01 -0.12787908994E+03  0.13421188923E+03  0.00000000000E+00 0.  1.
</event>
<event>
12    1  0.1030140E-001  0.2261483E+03  0.7818608E-02  0.1129419E+00
         21   -1    0    0  503  502  0.00000000000E+00  0.00000000000E+00  0.43478028962E+03  0.43478028962E+03  0.00000000000E+00 0.  1.
         21   -1    0    0  501  503 -0.00000000000E+00 -0.00000000000E+00 -0.11900615056E+03  0.11900615056E+03  0.00000000000E+00 0.  1.
          6    2    1    2  501    0  0.13850292307E+03  0.48998564551E+02  0.18893329571E+03  0.29468431307E+03  0.17192770316E+03 0.  0.
         24    2    3    3    0    0  0.15763105378E+03  0.33618923177E+02  0.10756462039E+03  0.20956457343E+03  0.79808406614E+02 0.  0.
         -6    2    1    2    0  502 -0.13850292307E+03 -0.48998564551E+02  0.12684084334E+03  0.25910212711E+03  0.17164321630E+03 0.  0.
        -24    2    5    5    0    0 -0.15635095323E+03 -0.11167000042E+02  0.71547584806E+02  0.18960958151E+03  0.79135415857E+02 0.  0.
          5    1    3    3  501    0 -0.19128130704E+02  0.15379641374E+02  0.81368675323E+02  0.85119739643E+02  0.47000000000E+01 0. -1.
        -11    1    4    4    0    0  0.10645248053E+03 -0.32307191702E+01  0.99923772219E+02  0.14603879078E+03  0.00000000000E+00 0.  1.
         12    1    4    4    0    0  0.51178573248E+02  0.36849642347E+02  0.76408481724E+01  0.63525782653E+02  0.00000000000E+00 0. -1.
         -5    1    5    5    0  502  0.17848030157E+02 -0.37831564509E+02  0.55293258538E+02  0.69492545597E+02  0.47000000000E+01 0.  1.
         13    1    6    6    0    0 -0.10892057906E+03  0.12408068952E+02  0.12576470303E+02  0.11034409963E+03  0.00000000000E+00 0. -1.
        -14    1    6    6    0    0 -0.47430374172E+02 -0.23575068995E+02  0.58971114503E+02  0.79265481881E+02  0.00000000000E+00 0.  1.
</event>
<event>
12    1  0.1030140E-001  0.2049226E+03  0.7818608E-02  0.1145964E+00
         21   -1    0    0  503  502  0.00000000000E+00  0.00000000000E+00  0.58538812443E+03  0.58538812443E+03  0.00000000000E+00 0. -1.
         21   -1    0    0  501  503 -0.00000000000E+00 -0.00000000000E+00 -0.71552035996E+02  0.71552035996E+02  0.00000000000E+00 0. -1.
          6    2    1    2  501    0  0.98689360183E+02 -0.42405534441E+02  0.23495103271E+03  0.31176154089E+03  0.17451490321E+03 0.  0.
         24    2    3    3    0    0  0.85181904255E+02 -0.87145177894E+02  0.21694811407E+03  0.26145963097E+03  0.80277117456E+02 0.  0.
         -6    2    1    2    0  502 -0.98689360183E+02  0.42405534441E+02  0.27888505573E+03  0.34517861954E+03  0.17272401661E+03 0.  0.
        -24    2    5    5    0    0 -0.11971182109E+02 -0.16528868448E+02  0.20563672714E+03  0.21719145654E+03  0.66851720618E+02 0.  0.
          5    1    3    3  501    0  0.13507455928E+02  0.44739643453E+02  0.18002918639E+02  0.50301909918E+02  0.47000000000E+01 0. -1.
        -13    1    4    4    0    0  0.43335653898E+02 -0.62371341160E+02  0.58935035530E+02  0.96132728609E+02  0.00000000000E+00 0.  1.
         14    1    4    4    0    0  0.41846250357E+02 -0.24773836734E+02  0.15801307854E+03  0.16532690236E+03  0.00000000000E+00 0. -1.
         -5    1    5    5    0  502 -0.86718178074E+02  0.58934402890E+02  0.73248328586E+02  0.12798716300E+03  0.47000000000E+01 0.  1.
         13    1    6    6    0    0 -0.21090985852E+02 -0.33060057230E+02  0.18545377944E+03  0.18955448129E+03  0.00000000000E+00 0. -1.
        -14    1    6    6    0    0  0.91198037432E+01  0.16531188781E+02  0.20182947698E+02  0.27636975244E+02  0.00000000000E+00 0.  1.
</event>
<event>
12    1  0.1030140E-001  0.1883548E+03  0.7818608E-02  0.1160045E+00
         21   -1    0    0  501  502  0.00000000000E+00  0.00000000000E+00  0.76949952525E+03  0.76949952525E+03  0.00000000000E+00 0. -1.
         21   -1    0    0  502  503 -0.00000000000E+00 -0.00000000000E+00 -0.46885300563E+02  0.46885300563E+02  0.00000000000E+00 0. -1.
         -6    2    1    2    0  503  0.73813554964E+02 -0.18739171831E+02  0.30580950541E+03  0.35916152352E+03  0.17227289086E+03 0.  0.
        -24    2    3    3    0    0 -0.25399812168E+02  0.40197062059E+01  0.17007338350E+03  0.18943337754E+03  0.79364603295E+02 0.  0.
          6    2    1    2  501    0 -0.73813554964E+02  0.18739171831E+02  0.41680471928E+03  0.45722330229E+03  0.17183531851E+03 0.  0.
         24    2    5    5    0    0 -0.10921723469E+03 -0.13172453635E+02  0.26218378501E+03  0.29535454159E+03  0.79950298469E+02 0.  0.
          5    1    5    5  501    0  0.35403679726E+02  0.31911625466E+02  0.15462093427E+03  0.16186876070E+03  0.47000000000E+01 0. -1.
        -11    1    6    6    0    0  0.44547311360E+01 -0.72350433555E+01 -0.10531252479E+01  0.85615159078E+01  0.00000000000E+00 0.  1.
         12    1    6    6    0    0 -0.11367196583E+03 -0.59374102796E+01  0.26323691026E+03  0.28679302568E+03  0.00000000000E+00 0. -1.
         -5    1    3    3    0  503  0.99213367132E+02 -0.22758878037E+02  0.13573612191E+03  0.16972814598E+03  0.47000000000E+01 0.  1.
         13    1    4    4    0    0  0.27454470043E+02 -0.60748528007E+01  0.76324633651E+02  0.81339421339E+02  0.00000000000E+00 0. -1.
        -14    1    4    4    0    0 -0.52854282210E+02  0.10094559007E+02  0.93748749846E+02  0.10809395620E+03  0.00000000000E+00 0.  1.
</event>
<event>
12    1  0.1030140E-001  0.3865609E+03  0.7818608E-02  0.1048550E+00
         21   -1    0    0  501  502  0.00000000000E+00  0.00000000000E+00  0.49941771470E+03  0.49941771470E+03  0.00000000000E+00 0.  1.
         21   -1    0    0  502  503 -0.00000000000E+00 -0.00000000000E+00 -0.40392669987E+03  0.40392669987E+03  0.00000000000E+00 0. -1.
         -6    2    1    2    0  503  0.28329393157E+03  0.19850063546E+03  0.27786639114E+03  0.47606619630E+03  0.17254372776E+03 0.  0.
        -24    2    3    3    0    0  0.19216215204E+03  0.17465755451E+03  0.13179262049E+03  0.30218942896E+03  0.80731667474E+02 0.  0.
          6    2    1    2  501    0 -0.28329393157E+03 -0.19850063546E+03 -0.18237537631E+03  0.42727821826E+03  0.17218578331E+03 0.  0.
         24    2    5    5    0    0 -0.89211887721E+02 -0.27786426170E+02 -0.91342982079E+02  0.15319763194E+03  0.79969542124E+02 0.  0.
          5    1    5    5  501    0 -0.19408204385E+03 -0.17071420929E+03 -0.91032394234E+02  0.27408058632E+03  0.47000000000E+01 0. -1.
        -11    1    6    6    0    0 -0.97192763068E+02 -0.42614384964E+02 -0.77784110799E+02  0.13157806387E+03  0.00000000000E+00 0.  1.
         12    1    6    6    0    0  0.79808753467E+01  0.14827958794E+02 -0.13558871280E+02  0.21619568073E+02  0.00000000000E+00 0. -1.
         -5    1    3    3    0  503  0.91131779530E+02  0.23843080954E+02  0.14607377065E+03  0.17387676734E+03  0.47000000000E+01 0.  1.
         11    1    4    4    0    0  0.78580744482E+02  0.22613291800E+02  0.32415378978E+02  0.87960509114E+02  0.00000000000E+00 0. -1.
        -12    1    4    4    0    0  0.11358140756E+03  0.15204426271E+03  0.99377241512E+02  0.21422891984E+03  0.00000000000E+00 0.  1.
</event>
<event>
12    1  0.1030140E-001  0.1808560E+03  0.7818608E-02  0.1167762E+00
         21   -1    0    0  503  502  0.00000000000E+00  0.00000000000E+00  0.29384949043E+03  0.29384949043E+03  0.00000000000E+00 0.  1.
         21   -1    0    0  501  503 -0.00000000000E+00 -0.00000000000E+00 -0.17001188055E+03  0.17001188055E+03  0.00000000000E+00 0. -1.
          6    2    1    2  501    0 -0.54238719394E+02  0.98731254365E+01 -0.76997492367E+02  0.19359549056E+03  0.16885284376E+03 0.  0.
         24    2    3    3    0    0 -0.63794090263E+02  0.54497109052E+02 -0.14000083649E+02  0.11566367079E+03  0.78373857581E+02 0.  0.
         -6    2    1    2    0  502  0.54238719394E+02 -0.98731254365E+01  0.20083510225E+03  0.27026588042E+03  0.17224862999E+03 0.  0.
        -24    2    5    5    0    0  0.74884797152E+02  0.13140722575E+02  0.55285850660E+02  0.12139488806E+03  0.76810039252E+02 0.  0.
          5    1    3    3  501    0  0.95553708688E+01 -0.44623983615E+02 -0.62997408719E+02  0.77931819762E+02  0.47000000000E+01 0. -1.
        -13    1    4    4    0    0 -0.15047378397E+02  0.33672327974E+02  0.29391187110E+02  0.47160270860E+02  0.00000000000E+00 0.  1.
         14    1    4    4    0    0 -0.48746711866E+02  0.20824781078E+02 -0.43391270759E+02  0.68503399935E+02  0.00000000000E+00 0. -1.
         -5    1    5    5    0  502 -0.20646077758E+02 -0.23013848012E+02  0.14554925159E+03  0.14887099235E+03  0.47000000000E+01 0.  1.
         13    1    6    6    0    0  0.34347827759E+02 -0.10032894230E+02 -0.13510918888E+02  0.38248884527E+02  0.00000000000E+00 0. -1.
        -14    1    6    6    0    0  0.40536969394E+02  0.23173616806E+02  0.68796769548E+02  0.83146003534E+02  0.00000000000E+00 0.  1.
</event>
<event>
12    1  0.1030140E-001  0.2742190E+03  0.7818608E-02  0.1098919E+00
         21   -1    0    0  503  502  0.00000000000E+00  0.00000000000E+00  0.50786943639E+03  0.50786943639E+03  0.00000000000E+00 0. -1.
         21   -1    0    0  501  503 -0.00000000000E+00 -0.00000000000E+00 -0.13203471555E+04  0.13203471555E+04  0.00000000000E+00 0.  1.
          6    2    1    2  501    0  0.19744114228E+03 -0.81089643004E+02 -0.12676312313E+04  0.12969521859E+04  0.17215545039E+03 0.  0.
         24    2    3    3    0    0  0.19551628882E+03 -0.23920038820E+02 -0.10778490365E+04  0.10986810580E+04  0.80887169891E+02 0.  0.
         -6    2    1    2    0  502 -0.19744114228E+03  0.81089643004E+02  0.45515351219E+03  0.53126440599E+03  0.17180982087E+03 0.  0.
        -24    2    5    5    0    0 -0.14465558098E+03  0.29912459528E+02  0.17830962912E+03  0.24478570663E+03  0.79408601515E+02 0.  0.
          5    1    3    3  501    0  0.19248534620E+01 -0.57169604184E+02 -0.18978219488E+03  0.19827112799E+03  0.47000000000E+01 0. -1.
        -11    1    4    4    0    0  0.14466141504E+03 -0.31285090860E+02 -0.59610479480E+03  0.61420404452E+03  0.00000000000E+00 0.  1.
         12    1    4    4    0    0  0.50854873779E+02  0.73650520399E+01 -0.48174424166E+03  0.48447701344E+03  0.00000000000E+00 0. -1.
         -5    1    5    5    0  502 -0.52785561305E+02  0.51177183477E+02  0.27684388307E+03  0.28647869936E+03  0.47000000000E+01 0.  1.
         13    1    6    6    0    0 -0.83327214729E+02  0.15179686925E+02  0.15667795735E+03  0.17810623214E+03  0.00000000000E+00 0. -1.
        -14    1    6    6    0    0 -0.61328366246E+02  0.14732772603E+02  0.21631671770E+02  0.66679474493E+02  0.00000000000E+00 0.  1.
</event>
<event>
12    1  0.1030140E-001  0.2201603E+03  0.7818608E-02  0.1134499E+00
         21   -1    0    0  501  502  0.00000000000E+00  0.00000000000E+00  0.99979122712E+02  0.99979122712E+02  0.00000000000E+00 0. -1.
         21   -1    0    0  502  503 -0.00000000000E+00 -0.00000000000E+00 -0.47788235654E+03  0.47788235654E+03  0.00000000000E+00 0. -1.
         -6    2    1    2    0  503  0.95970805662E+02 -0.78566851993E+02 -0.17365507927E+03  0.28040439418E+03  0.18189940063E+03 0.  0.
        -24    2    3    3    0    0  0.59002964168E+02  0.30290493301E+02 -0.71755054053E+02  0.12670908499E+03  0.80669329186E+02 0.  0.
          6    2    1    2  501    0 -0.95970805662E+02  0.78566851993E+02 -0.20424815456E+03  0.29745708507E+03  0.17714475168E+03 0.  0.
         24    2    5    5    0    0 -0.33860379547E+02  0.88616997894E+02 -0.19774162718E+03  0.23402889447E+03  0.81659504693E+02 0.  0.
          5    1    5    5  501    0 -0.62110426115E+02 -0.10050145901E+02 -0.65065273783E+01  0.63428190604E+02  0.47000000000E+01 0. -1.
        -11    1    6    6    0    0 -0.25981524450E+02  0.79260743942E+02 -0.20392424048E+03  0.22032340094E+03  0.00000000000E+00 0.  1.
         12    1    6    6    0    0 -0.78788550968E+01  0.93562539522E+01  0.61826133040E+01  0.13705493531E+02  0.00000000000E+00 0. -1.
         -5    1    3    3    0  503  0.36967841494E+02 -0.10885734529E+03 -0.10190002522E+03  0.15369530919E+03  0.47000000000E+01 0.  1.
         11    1    4    4    0    0  0.31692614347E+02 -0.20732564376E+02 -0.47448611419E+01  0.38167718520E+02  0.00000000000E+00 0. -1.
        -12    1    4    4    0    0  0.27310349821E+02  0.51023057677E+02 -0.67010192911E+02  0.88541366468E+02  0.00000000000E+00 0.  1.
</event>
<event>
12    1  0.1030140E-001  0.1961192E+03  0.7818608E-02  0.1153880E+00
         21   -1    0    0  501  502  0.00000000000E+00  0.00000000000E+00  0.10688963795E+04  0.10688963795E+04  0.00000000000E+00 0. -1.
         21   -1    0    0  502  503 -0.00000000000E+00 -0.00000000000E+00 -0.55696650656E+02  0.55696650656E+02  0.00000000000E+00 0. -1.
         -6    2    1    2    0  503  0.29819524588E+02 -0.79246153378E+02  0.16940778919E+03  0.25915585620E+03  0.17689997708E+03 0.  0.
        -24    2    3    3    0    0  0.52267988690E+02 -0.95364906784E+02  0.18329506608E+03  0.22787176741E+03  0.80635308944E+02 0.  0.
          6    2    1    2  501    0 -0.29819524588E+02  0.79246153378E+02  0.84379193966E+03  0.86543717396E+03  0.17270642075E+03 0.  0.
         24    2    5    5    0    0 -0.40415778430E+02  0.11988923106E+03  0.69911994418E+03  0.71471817504E+03  0.77759311452E+02 0.  0.
          5    1    5    5  501    0  0.10596253841E+02 -0.40643077680E+02  0.14467199548E+03  0.15071899892E+03  0.47000000000E+01 0. -1.
        -13    1    6    6    0    0 -0.17750727356E+01 -0.10580581243E+02  0.28955783733E+02  0.30879394331E+02  0.00000000000E+00 0.  1.
         14    1    6    6    0    0 -0.38640705694E+02  0.13046981230E+03  0.67016416044E+03  0.68383878071E+03  0.00000000000E+00 0. -1.
         -5    1    3    3    0  503 -0.22448464101E+02  0.16118753407E+02 -0.13887276886E+02  0.31284088787E+02  0.47000000000E+01 0.  1.
         13    1    4    4    0    0  0.32007879004E+02 -0.37365126979E+02  0.15027447563E+03  0.15812360690E+03  0.00000000000E+00 0. -1.
        -14    1    4    4    0    0  0.20260109685E+02 -0.57999779806E+02  0.33020590447E+02  0.69748160517E+02  0.00000000000E+00 0.  1.
</event>
<event>
12    1  0.1030140E-001  0.2106595E+03  0.7818608E-02  0.1141074E+00
         21   -1    0    0  501  502  0.00000000000E+00  0.00000000000E+00  0.93556491023E+03  0.93556491023E+03  0.00000000000E+00 0.  1.
         21   -1    0    0  502  503 -0.00000000000E+00 -0.00000000000E+00 -0.79954428880E+02  0.79954428880E+02  0.00000000000E+00 0.  1.
         -6    2    1    2    0  503  0.11955067694E+03  0.24707366308E+02  0.10372347333E+03  0.23467908678E+03  0.17150188496E+03 0.  0.
        -24    2    3    3    0    0  0.26502502561E+01  0.30335214419E+02  0.14858289907E+02  0.87653601717E+02  0.80840188364E+02 0.  0.
          6    2    1    2  501    0 -0.11955067694E+03 -0.24707366308E+02  0.75188700802E+03  0.78084025233E+03  0.17168170701E+03 0.  0.
         24    2    5    5    0    0 -0.26074866331E+02 -0.60203542220E+02  0.28624929444E+03  0.30456483203E+03  0.80726161758E+02 0.  0.
          5    1    5    5  501    0 -0.93475810609E+02  0.35496175912E+02  0.46563771358E+03  0.47627542030E+03  0.47000000000E+01 0. -1.
        -13    1    6    6    0    0 -0.21862878781E+01 -0.50634966189E+02  0.68031452132E+02  0.84834887486E+02  0.00000000000E+00 0.  1.
         14    1    6    6    0    0 -0.23888578453E+02 -0.95685760313E+01  0.21821784231E+03  0.21972994454E+03  0.00000000000E+00 0. -1.
         -5    1    3    3    0  503  0.11690042668E+03 -0.56278481109E+01  0.88865183423E+02  0.14702548506E+03  0.47000000000E+01 0.  1.
         11    1    4    4    0    0 -0.34999817008E+02  0.60694472998E+01  0.22733959811E+02  0.42174142668E+02  0.00000000000E+00 0. -1.
        -12    1    4    4    0    0  0.37650067264E+02  0.24265767119E+02 -0.78756699037E+01  0.45479459048E+02  0.00000000000E+00 0.  1.
</event>
<event>
12    1  0.1030140E-001  0.1832234E+03  0.7818608E-02  0.1165111E+00
         21   -1    0    0  503  502  0.00000000000E+00  0.00000000000E+00  0.49477729098E+03  0.49477729098E+03  0.00000000000E+00 0.  1.
         21   -1    0    0  501  503 -0.00000000000E+00 -0.00000000000E+00 -0.23848968384E+03  0.23848968384E+03  0.00000000000E+00 0.  1.
          6    2    1    2  501    0  0.55124020652E+02  0.16805793463E+02 -0.18269605250E+03  0.25758064502E+03  0.17218841060E+03 0.  0.
         24    2    3    3    0    0  0.48472641971E+02  0.66208114839E+02 -0.17054652914E+03  0.20605850304E+03  0.81491573713E+02 0.  0.
         -6    2    1    2    0  502 -0.55124020652E+02 -0.16805793463E+02  0.43898365963E+03  0.47568632980E+03  0.17392451982E+03 0.  0.
        -24    2    5    5    0    0 -0.92130637003E+02  0.26720157482E+02  0.27237187604E+03  0.29948878587E+03  0.79404489233E+02 0.  0.
          5    1    3    3  501    0  0.66513786811E+01 -0.49402321376E+02 -0.12149523359E+02  0.51522141973E+02  0.47000000000E+01 0. -1.
        -13    1    4    4    0    0  0.59625184403E+02  0.15997804584E+02 -0.71576055780E+02  0.94521024791E+02  0.00000000000E+00 0.  1.
         14    1    4    4    0    0 -0.11152542433E+02  0.50210310255E+02 -0.98970473356E+02  0.11153747825E+03  0.00000000000E+00 0. -1.
         -5    1    5    5    0  502  0.37006616351E+02 -0.43525950945E+02  0.16661178359E+03  0.17619754394E+03  0.47000000000E+01 0.  1.
         13    1    6    6    0    0 -0.32528770141E+02 -0.10884468712E+02  0.25463131952E+02  0.42719593102E+02  0.00000000000E+00 0. -1.
        -14    1    6    6    0    0 -0.59601866862E+02  0.37604626193E+02  0.24690874409E+03  0.25676919276E+03  0.00000000000E+00 0.  1.
</event>
<event>
12    1  0.1030140E-001  0.1845424E+03  0.7818608E-02  0.1164985E+00
         21   -1    0    0  501  502  0.00000000000E+00  0.00000000000E+00  0.14344762655E+04  0.14344762655E+04  0.00000000000E+00 0.  1.
         21   -1    0    0  502  503 -0.00000000000E+00 -0.00000000000E+00 -0.37825575977E+02  0.37825575977E+02  0.00000000000E+00 0.  1.
         -6    2    1    2    0  503  0.40546142577E+02 -0.39916814224E+02  0.24386619219E+03  0.30582123649E+03  0.17555217818E+03 0.  0.
        -24    2    3    3    0    0  0.55515799347E+02 -0.84522668034E+02  0.13578953804E+03  0.18785333413E+03  0.81387905191E+02 0.  0.
          6    2    1    2  501    0 -0.40546142577E+02  0.39916814224E+02  0.11527844973E+04  0.11664806049E+04  0.16890104431E+03 0.  0.
         24    2    5    5    0    0  0.13912552202E+02 -0.32334169027E+02  0.60695289958E+03  0.61318124918E+03  0.79751893079E+02 0.  0.
          5    1    5    5  501    0 -0.54458694778E+02  0.72250983250E+02  0.54583159771E+03  0.55329935575E+03  0.47000000000E+01 0. -1.
        -13    1    6    6    0    0 -0.29822115101E+02 -0.22454038575E+02  0.38088114241E+03  0.38270613667E+03  0.00000000000E+00 0.  1.
         14    1    6    6    0    0  0.43734667302E+02 -0.98801304520E+01  0.22607175717E+03  0.23047511252E+03  0.00000000000E+00 0. -1.
         -5    1    3    3    0  503 -0.14969656770E+02  0.44605853810E+02  0.10807665414E+03  0.11796790236E+03  0.47000000000E+01 0.  1.
         11    1    4    4    0    0 -0.56843844616E+01  0.13542336756E+01  0.54221538556E+02  0.54535506039E+02  0.00000000000E+00 0. -1.
        -12    1    4    4    0    0  0.61200183808E+02 -0.85876901710E+02  0.81567999489E+02  0.13331782809E+03  0.00000000000E+00 0.  1.
</event>
<event>
12    1  0.1030140E-001  0.1923037E+03  0.7818608E-02  0.1156531E+00
         21   -1    0    0  501  502  0.00000000000E+00  0.00000000000E+00  0.14141237696E+04  0.14141237696E+04  0.00000000000E+00 0.  1.
         21   -1    0    0  502  503 -0.00000000000E+00 -0.00000000000E+00 -0.29613576314E+02  0.29613576314E+02  0.00000000000E+00 0.  1.
         -6    2    1    2    0  503 -0.85332046698E+02  0.20254588931E+02  0.44163905225E+03  0.48145530928E+03  0.17047684826E+03 0.  0.
        -24    2    3    3    0    0 -0.12050263958E+03  0.41891766017E+02  0.37017330553E+03  0.39878378461E+03  0.75659926908E+02 0.  0.
          6    2    1    2  501    0  0.85332046698E+02 -0.20254588931E+02  0.94287114108E+03  0.96228203668E+03  0.17114006798E+03 0.  0.
         24    2    5    5    0    0  0.56097366471E+02  0.22608518360E+02  0.83948074614E+03  0.84650822159E+03  0.90499648898E+02 0.  0.
          5    1    5    5  501    0  0.29234680227E+02 -0.42863107292E+02  0.10339039494E+03  0.11577381509E+03  0.47000000000E+01 0. -1.
        -11    1    6    6    0    0  0.43835839400E+02 -0.29039861387E+02  0.51947593627E+03  0.52213038863E+03  0.00000000000E+00 0.  1.
         12    1    6    6    0    0  0.12261527071E+02  0.51648379747E+02  0.32000480987E+03  0.32437783296E+03  0.00000000000E+00 0. -1.
         -5    1    3    3    0  503  0.35170592882E+02 -0.21637177086E+02  0.71465746719E+02  0.82671524663E+02  0.47000000000E+01 0.  1.
         13    1    4    4    0    0  0.49256056711E+01  0.20395516999E+02  0.57282119820E+02  0.61003933939E+02  0.00000000000E+00 0. -1.
        -14    1    4    4    0    0 -0.12542824525E+03  0.21496249017E+02  0.31289118571E+03  0.33777985068E+03  0.00000000000E+00 0.  1.
</event>
<event>
12    1  0.1030140E-001  0.2799993E+03  0.7818608E-02  0.1096265E+00
         21   -1    0    0  501  502  0.00000000000E+00  0.00000000000E+00  0.61485774249E+03  0.61485774249E+03  0.00000000000E+00 0.  1.
         21   -1    0    0  502  503 -0.00000000000E+00 -0.00000000000E+00 -0.16753691304E+03  0.16753691304E+03  0.00000000000E+00 0.  1.
         -6    2    1    2    0  503 -0.98700976921E+02 -0.19801089908E+03  0.29232177922E+02  0.28152110078E+03  0.17160830678E+03 0.  0.
        -24    2    3    3    0    0 -0.12573342808E+03 -0.13777471155E+03  0.56007594183E+02  0.21011966788E+03  0.78883826897E+02 0.  0.
          6    2    1    2  501    0  0.98700976921E+02  0.19801089908E+03  0.41808865152E+03  0.50087355475E+03  0.16469972168E+03 0.  0.
         24    2    5    5    0    0  0.55364557998E+02  0.20774208785E+03  0.32422009369E+03  0.39692098196E+03  0.78775550945E+02 0.  0.
          5    1    5    5  501    0  0.43336418924E+02 -0.97311887666E+01  0.93868557836E+02  0.10395257279E+03  0.47000000000E+01 0. -1.
        -11    1    6    6    0    0 -0.39782826815E+01  0.84341919184E+01  0.59804264441E+02  0.60526955745E+02  0.00000000000E+00 0.  1.
         12    1    6    6    0    0  0.59342840679E+02  0.19930789593E+03  0.26441582925E+03  0.33639402622E+03  0.00000000000E+00 0. -1.
         -5    1    3    3    0  503  0.27032451156E+02 -0.60236187526E+02 -0.26775416261E+02  0.71401432893E+02  0.47000000000E+01 0.  1.
         11    1    4    4    0    0 -0.12723949521E+02 -0.41182247628E+02 -0.14640936257E+02  0.45521790668E+02  0.00000000000E+00 0. -1.
        -12    1    4    4    0    0 -0.11300947856E+03 -0.96592463924E+02  0.70648530440E+02  0.16459787722E+03  0.00000000000E+00 0.  1.
</event>
<event>
12    1  0.1030140E-001  0.1997514E+03  0.7818608E-02  0.1150259E+00
         21   -1    0    0  501  502  0.00000000000E+00  0.00000000000E+00  0.27531043199E+02  0.27531043199E+02  0.00000000000E+00 0.  1.
         21   -1    0    0  502  503 -0.00000000000E+00 -0.00000000000E+00 -0.14426311297E+04  0.14426311297E+04  0.00000000000E+00 0.  1.
         -6    2    1    2    0  503  0.88720226770E+02  0.46713419184E+02 -0.66658314809E+03  0.69545045361E+03  0.17106962893E+03 0.  0.
        -24    2    3    3    0    0  0.61786895345E+02 -0.11355183916E+02 -0.19770314322E+03  0.22219796712E+03  0.79616851944E+02 0.  0.
          6    2    1    2  501    0 -0.88720226770E+02 -0.46713419184E+02 -0.74851693842E+03  0.77471171929E+03  0.17276347629E+03 0.  0.
         24    2    5    5    0    0 -0.39248228762E+02  0.38682804382E+02 -0.46287286647E+03  0.47246245225E+03  0.77023992753E+02 0.  0.
          5    1    5    5  501    0 -0.49471998008E+02 -0.85396223567E+02 -0.28564407195E+03  0.30224926704E+03  0.47000000000E+01 0. -1.
        -11    1    6    6    0    0 -0.53419883902E+02  0.31372703507E+00 -0.28296623183E+03  0.28796470405E+03  0.00000000000E+00 0.  1.
         12    1    6    6    0    0  0.14171655140E+02  0.38369077347E+02 -0.17990663464E+03  0.18449774820E+03  0.00000000000E+00 0. -1.
         -5    1    3    3    0  503  0.26933331425E+02  0.58068603101E+02 -0.46888000487E+03  0.47325248650E+03  0.47000000000E+01 0.  1.
         11    1    4    4    0    0 -0.16198846853E+02 -0.15597603069E+01 -0.11048931571E+02  0.19670139310E+02  0.00000000000E+00 0. -1.
        -12    1    4    4    0    0  0.77985742199E+02 -0.97954236095E+01 -0.18665421165E+03  0.20252782781E+03  0.00000000000E+00 0.  1.
</event>
<event>
12    1  0.1030140E-001  0.2230152E+03  0.7818608E-02  0.1132420E+00
         21   -1    0    0  503  502  0.00000000000E+00  0.00000000000E+00  0.44305563372E+03  0.44305563372E+03  0.00000000000E+00 0.  1.
         21   -1    0    0  501  503 -0.00000000000E+00 -0.00000000000E+00 -0.11019458218E+03  0.11019458218E+03  0.00000000000E+00 0.  1.
          6    2    1    2  501    0 -0.14012987765E+03  0.25230740574E+02  0.16752520263E+03  0.27563228705E+03  0.16623925910E+03 0.  0.
         24    2    3    3    0    0 -0.67302476389E+02 -0.66052031564E+01  0.16554447774E+03  0.19598700496E+03  0.80203989721E+02 0.  0.
         -6    2    1    2    0  502  0.14012987765E+03 -0.25230740574E+02  0.16533584891E+03  0.27761792885E+03  0.17164730876E+03 0.  0.
        -24    2    5    5    0    0  0.35104546637E+02  0.41361720474E+02  0.58979367416E+02  0.11391494422E+03  0.80962507494E+02 0.  0.
          5    1    3    3  501    0 -0.72827401258E+02  0.31835943730E+02  0.19807248955E+01  0.79645282084E+02  0.47000000000E+01 0. -1.
        -11    1    4    4    0    0 -0.58547755547E+02  0.26315406083E+02  0.72134391753E+02  0.96559363867E+02  0.00000000000E+00 0.  1.
         12    1    4    4    0    0 -0.87547208429E+01 -0.32920609240E+02  0.93410085985E+02  0.99427641094E+02  0.00000000000E+00 0. -1.
         -5    1    5    5    0  502  0.10502533101E+03 -0.66592461047E+02  0.10635648150E+03  0.16370298464E+03  0.47000000000E+01 0.  1.
         11    1    6    6    0    0  0.41324294707E+02  0.58722381247E+02  0.26450152111E+02  0.76522061779E+02  0.00000000000E+00 0. -1.
        -12    1    6    6    0    0 -0.62197480698E+01 -0.17360660773E+02  0.32529215305E+02  0.37392882436E+02  0.00000000000E+00 0.  1.
</event>
<event>
12    1  0.1030140E-001  0.2152280E+03  0.7818608E-02  0.1137911E+00
         21   -1    0    0  501  502  0.00000000000E+00  0.00000000000E+00  0.10769571654E+03  0.10769571654E+03  0.00000000000E+00 0.  1.
         21   -1    0    0  502  503 -0.00000000000E+00 -0.00000000000E+00 -0.52237872745E+03  0.52237872745E+03  0.00000000000E+00 0.  1.
         -6    2    1    2    0  503  0.50896225302E+02 -0.11731925460E+03 -0.71019933671E+02  0.22457796345E+03  0.17040304410E+03 0.  0.
        -24    2    3    3    0    0  0.79400277928E+02 -0.66065435280E+02  0.13285677994E+01  0.13132652552E+03  0.81091586121E+02 0.  0.
          6    2    1    2  501    0 -0.50896225302E+02  0.11731925460E+03 -0.34366307724E+03  0.40549648054E+03  0.17311514037E+03 0.  0.
         24    2    5    5    0    0 -0.49382213142E+02  0.15364113102E+03 -0.30645090677E+03  0.35326232915E+03  0.69555120767E+02 0.  0.
          5    1    5    5  501    0 -0.15140121600E+01 -0.36321876427E+02 -0.37212170470E+02  0.52234151387E+02  0.47000000000E+01 0. -1.
        -11    1    6    6    0    0 -0.44496934731E+02  0.41313341150E+02 -0.13761789416E+03  0.15041759920E+03  0.00000000000E+00 0.  1.
         12    1    6    6    0    0 -0.48852784106E+01  0.11232778987E+03 -0.16883301261E+03  0.20284472995E+03  0.00000000000E+00 0. -1.
         -5    1    3    3    0  503 -0.28504052626E+02 -0.51253819315E+02 -0.72348501471E+02  0.93251437928E+02  0.47000000000E+01 0.  1.
         11    1    4    4    0    0  0.29760477075E+02  0.12549430762E+02 -0.17095189678E+02  0.36543395002E+02  0.00000000000E+00 0. -1.
        -12    1    4    4    0    0  0.49639800853E+02 -0.78614866042E+02  0.18423757477E+02  0.94783130520E+02  0.00000000000E+00 0.  1.
</event>
<event>
12    1  0.1030140E-001  0.2422113E+03  0.7818608E-02  0.1118798E+00
         21   -1    0    0  503  502  0.00000000000E+00  0.00000000000E+00  0.18849573708E+03  0.18849573708E+03  0.00000000000E+00 0. -1.
         21   -1    0    0  501  503 -0.00000000000E+00 -0.00000000000E+00 -0.62356449480E+03  0.62356449480E+03  0.00000000000E+00 0.  1.
          6    2    1    2  501    0 -0.16524011588E+03  0.25849862912E+02  0.72120353241E+02  0.25000410284E+03  0.17125476570E+03 0.  0.
         24    2    3    3    0    0 -0.21642870249E+02  0.86357060004E+01  0.64403368417E+02  0.10509676001E+03  0.79715405348E+02 0.  0.
         -6    2    1    2    0  502  0.16524011588E+03 -0.25849862912E+02 -0.50718911096E+03  0.56205612904E+03  0.17519642291E+03 0.  0.
        -24    2    5    5    0    0  0.73222459997E+02 -0.50794907678E+02 -0.14852939092E+03  0.19091142810E+03  0.80277905540E+02 0.  0.
          5    1    3    3  501    0 -0.14359724563E+03  0.17214156911E+02  0.77169848240E+01  0.14490734283E+03  0.47000000000E+01 0. -1.
        -13    1    4    4    0    0  0.27683536092E+02 -0.11141953041E+02  0.25186178359E+02  0.39049518159E+02  0.00000000000E+00 0.  1.
         14    1    4    4    0    0 -0.49326406342E+02  0.19777659041E+02  0.39217190058E+02  0.66047241848E+02  0.00000000000E+00 0. -1.
         -5    1    5    5    0  502  0.92017655883E+02  0.24945044766E+02 -0.35865972005E+03  0.37114470094E+03  0.47000000000E+01 0.  1.
         11    1    6    6    0    0  0.19659109825E+02  0.16527654849E+02 -0.94356006908E+01  0.27361917592E+02  0.00000000000E+00 0. -1.
        -12    1    6    6    0    0  0.53563350172E+02 -0.67322562527E+02 -0.13909379023E+03  0.16354951051E+03  0.00000000000E+00 0.  1.
</event>
<event>
12    1  0.1030140E-001  0.2309222E+03  0.7818608E-02  0.1126238E+00
         21   -1    0    0  501  502  0.00000000000E+00  0.00000000000E+00  0.68564620128E+03  0.68564620128E+03  0.00000000000E+00 0.  1.
         21   -1    0    0  502  503 -0.00000000000E+00 -0.00000000000E+00 -0.13168355349E+03  0.13168355349E+03  0.00000000000E+00 0.  1.
         -6    2    1    2    0  503 -0.38278076688E+02 -0.15038839507E+03  0.14857665630E+02  0.23139972833E+03  0.17100644290E+03 0.  0.
        -24    2    3    3    0    0 -0.17798914480E+02 -0.12526416471E+03  0.72037254749E+02  0.16550421673E+03  0.78704303370E+02 0.  0.
          6    2    1    2  501    0  0.38278076688E+02  0.15038839507E+03  0.53910498216E+03  0.58593002645E+03  0.16910923565E+03 0.  0.
         24    2    5    5    0    0  0.55349752673E+02  0.58916448081E+02  0.16436573986E+03  0.19978219346E+03  0.79762681797E+02 0.  0.
          5    1    5    5  501    0 -0.17071675985E+02  0.91471946987E+02  0.37473924230E+03  0.38614783299E+03  0.47000000000E+01 0. -1.
        -11    1    6    6    0    0 -0.10020512320E+02  0.29719399011E+02  0.95207176228E+02  0.10024001072E+03  0.00000000000E+00 0.  1.
         12    1    6    6    0    0  0.65370264993E+02  0.29197049070E+02  0.69158563637E+02  0.99542182737E+02  0.00000000000E+00 0. -1.
         -5    1    3    3    0  503 -0.20479162208E+02 -0.25124230362E+02 -0.57179589119E+02  0.65895511591E+02  0.47000000000E+01 0.  1.
         13    1    4    4    0    0 -0.41661373069E+02 -0.62024112280E+02  0.62161598163E+02  0.97194263186E+02  0.00000000000E+00 0. -1.
        -14    1    4    4    0    0  0.23862458589E+02 -0.63240052426E+02  0.98756565852E+01  0.68309953548E+02  0.00000000000E+00 0.  1.
</event>
<event>
12    1  0.1030140E-001  0.2075439E+03  0.7818608E-02  0.1143630E+00
         21   -1    0    0  501  502  0.00000000000E+00  0.00000000000E+00  0.15032374797E+04  0.15032374797E+04  0.00000000000E+00 0.  1.
         21   -1    0    0  502  503 -0.00000000000E+00 -0.00000000000E+00 -0.56893433467E+02  0.56893433467E+02  0.00000000000E+00 0.  1.
         -6    2    1    2    0  503 -0.42024946882E+02  0.10721603005E+03  0.17245808042E+03  0.26944895409E+03  0.17204527339E+03 0.  0.
        -24    2    3    3    0    0  0.26473336187E+02  0.61683820964E+02  0.15346632840E+03  0.18490326530E+03  0.78304356649E+02 0.  0.
          6    2    1    2  501    0  0.42024946882E+02 -0.10721603005E+03  0.12738859658E+04  0.12906819591E+04  0.17266468181E+03 0.  0.
         24    2    5    5    0    0  0.73292264114E+02 -0.16015402226E+02  0.59121748150E+03  0.60122307770E+03  0.79390362391E+02 0.  0.
          5    1    5    5  501    0 -0.31267317232E+02 -0.91200627819E+02  0.68266848433E+03  0.68945888140E+03  0.47000000000E+01 0. -1.
        -11    1    6    6    0    0  0.52915791181E+02 -0.25807396572E+02  0.55767080363E+03  0.56076985288E+03  0.00000000000E+00 0.  1.
         12    1    6    6    0    0  0.20376472933E+02  0.97919943457E+01  0.33546677868E+02  0.40453224821E+02  0.00000000000E+00 0. -1.
         -5    1    3    3    0  503 -0.68498283069E+02  0.45532209082E+02  0.18991752027E+02  0.84545688786E+02  0.47000000000E+01 0.  1.
         11    1    4    4    0    0  0.47068583343E+02  0.16589088827E+02  0.10136707356E+03  0.11298642843E+03  0.00000000000E+00 0. -1.
        -12    1    4    4    0    0 -0.20595247156E+02  0.45094732137E+02  0.52099254834E+02  0.71916836875E+02  0.00000000000E+00 0.  1.
</event>
<event>
12    1  0.1030140E-001  0.2197575E+03  0.7818608E-02  0.1134271E+00
         21   -1    0    0  501  502  0.00000000000E+00  0.00000000000E+00  0.28653080902E+03  0.28653080902E+03  0.00000000000E+00 0.  1.
         21   -1    0    0  502  503 -0.00000000000E+00 -0.00000000000E+00 -0.35835371987E+03  0.35835371987E+03  0.00000000000E+00 0.  1.
         -6    2    1    2    0  503 -0.19193587315E+02  0.13529142067E+03 -0.27106052745E+03  0.34825516615E+03  0.17069179508E+03 0.  0.
        -24    2    3    3    0    0 -0.65516916189E+02  0.91582195924E+02 -0.24060608468E+03  0.27750270887E+03  0.80229050429E+02 0.  0.
          6    2    1    2  501    0  0.19193587315E+02 -0.13529142067E+03  0.19923761660E+03  0.29662936273E+03  0.17210807262E+03 0.  0.
         24    2    5    5    0    0 -0.33167992003E+01 -0.13990355439E+03  0.21418540985E+03  0.26881721068E+03  0.82482102768E+02 0.  0.
          5    1    5    5  501    0  0.22510386516E+02  0.46121337125E+01 -0.14947793252E+02  0.27812152049E+02  0.47000000000E+01 0. -1.
        -11    1    6    6    0    0  0.11779886976E+02 -0.14246276729E+03  0.17033347709E+03  0.22236883599E+03  0.00000000000E+00 0.  1.
         12    1    6    6    0    0 -0.15096686176E+02  0.25592129072E+01  0.43851932766E+02  0.46448374692E+02  0.00000000000E+00 0. -1.
         -5    1    3    3    0  503  0.46323328874E+02  0.43709224750E+02 -0.30454442774E+02  0.70752457278E+02  0.47000000000E+01 0.  1.
         11    1    4    4    0    0 -0.70824055218E+02  0.34520190169E+02 -0.11453894339E+03  0.13902107711E+03  0.00000000000E+00 0. -1.
        -12    1    4    4    0    0  0.53071390287E+01  0.57062005755E+02 -0.12606714129E+03  0.13848163177E+03  0.00000000000E+00 0.  1.
</event>
<event>
12    1  0.1030140E-001  0.1945546E+03  0.7818608E-02  0.1154986E+00
         21   -1    0    0  503  502  0.00000000000E+00  0.00000000000E+00  0.11085509905E+04  0.11085509905E+04  0.00000000000E+00 0. -1.
         21   -1    0    0  501  503 -0.00000000000E+00 -0.00000000000E+00 -0.10340677209E+03  0.10340677209E+03  0.00000000000E+00 0. -1.
          6    2    1    2  501    0 -0.21880832758E+02 -0.83326569845E+02  0.39204494060E+01  0.19200652980E+03  0.17154897107E+03 0.  0.
         24    2    3    3    0    0 -0.40835112571E+02 -0.74437767268E+02  0.61157909576E+02  0.13087967497E+03  0.78617503152E+02 0.  0.
         -6    2    1    2    0  502  0.21880832758E+02  0.83326569845E+02  0.10012237691E+04  0.10199512328E+04  0.17444022918E+03 0.  0.
        -24    2    5    5    0    0  0.39323719226E+02  0.26148496536E+02  0.25777928415E+03  0.27409241342E+03  0.80289432652E+02 0.  0.
          5    1    3    3  501    0  0.18954279813E+02 -0.88888025771E+01 -0.57237460170E+02  0.61126854828E+02  0.47000000000E+01 0. -1.
        -11    1    4    4    0    0 -0.32955794581E+02 -0.18044193251E+02 -0.10822628643E+02  0.39099956487E+02  0.00000000000E+00 0.  1.
         12    1    4    4    0    0 -0.78793179901E+01 -0.56393574017E+02  0.71980538219E+02  0.91779718482E+02  0.00000000000E+00 0. -1.
         -5    1    5    5    0  502 -0.17442886467E+02  0.57178073309E+02  0.74344448490E+03  0.74585881941E+03  0.47000000000E+01 0.  1.
         13    1    6    6    0    0  0.39668025270E+02  0.14849599967E+02  0.25925509402E+03  0.26269234215E+03  0.00000000000E+00 0. -1.
        -14    1    6    6    0    0 -0.34430604446E+00  0.11298896569E+02 -0.14758098706E+01  0.11400071277E+02  0.00000000000E+00 0.  1.
</event>
<event>
12    1  0.1030140E-001  0.2102172E+03  0.7818608E-02  0.1143152E+00
         21   -1    0    0  501  502  0.00000000000E+00  0.00000000000E+00  0.11466366520E+03  0.11466366520E+03  0.00000000000E+00 0. -1.
         21   -1    0    0  502  503 -0.00000000000E+00 -0.00000000000E+00 -0.45300238094E+03  0.45300238094E+03  0.00000000000E+00 0. -1.
         -6    2    1    2    0  503  0.15351703502E+02 -0.10507113758E+03 -0.28799821443E+03  0.35150537043E+03  0.17128174209E+03 0.  0.
        -24    2    3    3    0    0  0.20848949795E+02  0.40453194550E+01 -0.72068403262E+02  0.10946323719E+03  0.79607174491E+02 0.  0.
          6    2    1    2  501    0 -0.15351703502E+02  0.10507113758E+03 -0.50340501307E+02  0.21616067570E+03  0.18142671495E+03 0.  0.
         24    2    5    5    0    0 -0.61523421013E+02  0.93470639512E+02  0.11112229982E+02  0.13828303298E+03  0.80478716263E+02 0.  0.
          5    1    5    5  501    0  0.46171717510E+02  0.11600498068E+02 -0.61452731288E+02  0.77877642723E+02  0.47000000000E+01 0. -1.
        -11    1    6    6    0    0 -0.67989323247E+01 -0.45050365771E+01 -0.20190917311E+02  0.21775995435E+02  0.00000000000E+00 0.  1.
         12    1    6    6    0    0 -0.54724488688E+02  0.97975676090E+02  0.31303147293E+02  0.11650703755E+03  0.00000000000E+00 0. -1.
         -5    1    3    3    0  503 -0.54972462926E+01 -0.10911645704E+03 -0.21592981117E+03  0.24204213324E+03  0.47000000000E+01 0.  1.
         13    1    4    4    0    0  0.43068708222E+02 -0.39833432639E+01 -0.74047861043E+02  0.85754687198E+02  0.00000000000E+00 0. -1.
        -14    1    4    4    0    0 -0.22219758427E+02  0.80286627189E+01  0.19794577811E+01  0.23708549992E+02  0.00000000000E+00 0.  1.
</event>
<event>
12    1  0.1030140E-001  0.1885125E+03  0.7818608E-02  0.1160626E+00
         21   -1    0    0  503  502  0.00000000000E+00  0.00000000000E+00  0.15331106103E+04  0.15331106103E+04  0.00000000000E+00 0.  1.
         21   -1    0    0  501  503 -0.00000000000E+00 -0.00000000000E+00 -0.35557624010E+02  0.35557624010E+02  0.00000000000E+00 0.  1.
          6    2    1    2  501    0  0.39151948197E+02 -0.54440320545E+02  0.27343873058E+03  0.33012365820E+03  0.17238406763E+03 0.  0.
         24    2    3    3    0    0  0.65212468575E+02 -0.66663936541E+02  0.27850505533E+03  0.30052086852E+03  0.63647310071E+02 0.  0.
         -6    2    1    2    0  502 -0.39151948197E+02  0.54440320545E+02  0.12241142557E+04  0.12385445761E+04  0.17618266781E+03 0.  0.
        -24    2    5    5    0    0 -0.71153659703E+02  0.16905840935E+02  0.10923910485E+04  0.10978106427E+04  0.80754898405E+02 0.  0.
          5    1    3    3  501    0 -0.26060520378E+02  0.12223615996E+02 -0.50663247468E+01  0.29602789680E+02  0.47000000000E+01 0. -1.
        -11    1    4    4    0    0  0.28228142656E+02  0.44402588219E+01  0.41955182447E+02  0.50762006170E+02  0.00000000000E+00 0.  1.
         12    1    4    4    0    0  0.36984325919E+02 -0.71104195363E+02  0.23654987288E+03  0.24975886235E+03  0.00000000000E+00 0. -1.
         -5    1    5    5    0  502  0.32001711507E+02  0.37534479611E+02  0.13172320725E+03  0.14073393346E+03  0.47000000000E+01 0.  1.
         11    1    6    6    0    0 -0.26714860819E+02 -0.16741145961E+02  0.12856325640E+03  0.13237243162E+03  0.00000000000E+00 0. -1.
        -12    1    6    6    0    0 -0.44438798884E+02  0.33646986896E+02  0.96382779209E+03  0.96543821106E+03  0.00000000000E+00 0.  1.
</event>
<event>
12    1  0.1030140E-001  0.1842965E+03  0.7818608E-02  0.1164080E+00
         21   -1    0    0  501  502  0.00000000000E+00  0.00000000000E+00  0.93297157808E+03  0.93297157808E+03  0.00000000000E+00 0. -1.
         21   -1    0    0  502  503 -0.00000000000E+00 -0.00000000000E+00 -0.40011117631E+02  0.40011117631E+02  0.00000000000E+00 0. -1.
         -6    2    1    2    0  503 -0.25761335530E+02 -0.60355048153E+02  0.29253993150E+03  0.34491420576E+03  0.17052806094E+03 0.  0.
        -24    2    3    3    0    0 -0.54848981281E+01 -0.99663640784E+02  0.25933594375E+03  0.28940840272E+03  0.80865112662E+02 0.  0.
          6    2    1    2  501    0  0.25761335530E+02  0.60355048153E+02  0.60042052895E+03  0.62806848995E+03  0.17221741560E+03 0.  0.
         24    2    5    5    0    0 -0.25745803061E+02  0.30247558712E+02  0.15336507059E+03  0.17702512274E+03  0.78989163963E+02 0.  0.
          5    1    5    5  501    0  0.51507138591E+02  0.30107489441E+02  0.44705545836E+03  0.45104336720E+03  0.47000000000E+01 0. -1.
        -11    1    6    6    0    0  0.21139230778E+02 -0.16076543988E+01  0.11200772250E+02  0.23977258591E+02  0.00000000000E+00 0.  1.
         12    1    6    6    0    0 -0.46885033839E+02  0.31855213111E+02  0.14216429834E+03  0.15304786415E+03  0.00000000000E+00 0. -1.
         -5    1    3    3    0  503 -0.20276437402E+02  0.39308592631E+02  0.33203987754E+02  0.55505803041E+02  0.47000000000E+01 0.  1.
         13    1    4    4    0    0  0.31997953891E+02 -0.34961716858E+02  0.59680634242E+02  0.76210030852E+02  0.00000000000E+00 0. -1.
        -14    1    4    4    0    0 -0.37482852019E+02 -0.64701923926E+02  0.19965530951E+03  0.21319837187E+03  0.00000000000E+00 0.  1.
</event>
<event>
12    1  0.1030140E-001  0.2338379E+03  0.7818608E-02  0.1123976E+00
         21   -1    0    0  503  502  0.00000000000E+00  0.00000000000E+00  0.13453976255E+04  0.13453976255E+04  0.00000000000E+00 0. -1.
         21   -1    0    0  501  503 -0.00000000000E+00 -0.00000000000E+00 -0.44195234209E+02  0.44195234209E+02  0.00000000000E+00 0. -1.
          6    2    1    2  501    0 -0.11474598553E+03 -0.10847101911E+03  0.45330636419E+03  0.51004306137E+03  0.17240841468E+03 0.  0.
         24    2    3    3    0    0 -0.51266775338E+01 -0.24734268437E+02  0.99452022533E+02  0.13022307610E+03  0.80182778113E+02 0.  0.
         -6    2    1    2    0  502  0.11474598553E+03  0.10847101911E+03  0.84789602706E+03  0.87954979830E+03  0.17247484396E+03 0.  0.
        -24    2    5    5    0    0  0.69825928861E+02  0.13349510010E+03  0.52329861932E+03  0.55087125742E+03  0.83193119794E+02 0.  0.
          5    1    3    3  501    0 -0.10961930800E+03 -0.83736750676E+02  0.35385434166E+03  0.37981998527E+03  0.47000000000E+01 0. -1.
        -13    1    4    4    0    0 -0.32238095066E+02 -0.87660769364E+01  0.92127829569E+01  0.34655652470E+02  0.00000000000E+00 0.  1.
         14    1    4    4    0    0  0.27111417532E+02 -0.15968191500E+02  0.90239239576E+02  0.95567423632E+02  0.00000000000E+00 0. -1.
         -5    1    5    5    0  502  0.44920056669E+02 -0.25024080986E+02  0.32459740774E+03  0.32867854087E+03  0.47000000000E+01 0.  1.
         11    1    6    6    0    0  0.88543230947E+02  0.10267252842E+03  0.42894455689E+03  0.44986107270E+03  0.00000000000E+00 0. -1.
        -12    1    6    6    0    0 -0.18717302085E+02  0.30822571678E+02  0.94354062427E+02  0.10101018473E+03  0.00000000000E+00 0.  1.
</event>
<event>
12    1  0.1030140E-001  0.2504848E+03  0.7818608E-02  0.1113026E+00
         21   -1    0    0  501  502  0.00000000000E+00  0.00000000000E+00  0.41426541075E+03  0.41426541075E+03  0.00000000000E+00 0. -1.
         21   -1    0    0  502  503 -0.00000000000E+00 -0.00000000000E+00 -0.19035194467E+03  0.19035194467E+03  0.00000000000E+00 0. -1.
         -6    2    1    2    0  503 -0.11420149825E+03  0.14292391780E+03 -0.24916574846E+02  0.25154651896E+03  0.17083789690E+03 0.  0.
        -24    2    3    3    0    0 -0.14729370258E+03  0.11486518384E+03  0.45764105496E+01  0.19887477392E+03  0.68123321192E+02 0.  0.
          6    2    1    2  501    0  0.11420149825E+03 -0.14292391780E+03  0.24883004093E+03  0.35307083647E+03  0.17109470422E+03 0.  0.
         24    2    5    5    0    0  0.85969758067E+02 -0.20359448813E+02  0.86146966149E+02  0.14738429575E+03  0.80594816210E+02 0.  0.
          5    1    5    5  501    0  0.28231740185E+02 -0.12256446898E+03  0.16268307478E+03  0.20568654071E+03  0.47000000000E+01 0. -1.
        -13    1    6    6    0    0  0.54356941865E+01  0.26067377174E+02  0.19216294833E+02  0.32837796989E+02  0.00000000000E+00 0.  1.
         14    1    6    6    0    0  0.80534063881E+02 -0.46426825986E+02  0.66930671316E+02  0.11454649876E+03  0.00000000000E+00 0. -1.
         -5    1    3    3    0  503  0.33092204324E+02  0.28058733950E+02 -0.29492985396E+02  0.52671745039E+02  0.47000000000E+01 0.  1.
         13    1    4    4    0    0 -0.54259945518E+02  0.55905771275E+02 -0.29920908449E+02  0.83455723063E+02  0.00000000000E+00 0. -1.
        -14    1    4    4    0    0 -0.93033757058E+02  0.58959412570E+02  0.34497318999E+02  0.11541905086E+03  0.00000000000E+00 0.  1.
</event>
<event>
12    1  0.1030140E-001  0.1740398E+03  0.7818608E-02  0.1175494E+00
         21   -1    0    0  501  502  0.00000000000E+00  0.00000000000E+00  0.19076754320E+03  0.19076754320E+03  0.00000000000E+00 0.  1.
         21   -1    0    0  502  503 -0.00000000000E+00 -0.00000000000E+00 -0.19264997992E+03  0.19264997992E+03  0.00000000000E+00 0.  1.
         -6    2    1    2    0  503 -0.19967117931E+02  0.22236711153E+02 -0.88454663024E+02  0.19522825582E+03  0.17145462180E+03 0.  0.
        -24    2    3    3    0    0 -0.14888935724E+02 -0.72909075204E+01  0.18090582847E+02  0.84450786914E+02  0.80807354140E+02 0.  0.
          6    2    1    2  501    0  0.19967117931E+02 -0.22236711153E+02  0.86572226305E+02  0.18818926730E+03  0.16439979574E+03 0.  0.
         24    2    5    5    0    0  0.73826898934E+02 -0.25303089186E+02  0.55545139705E+02  0.12577894134E+03  0.81513325361E+02 0.  0.
          5    1    5    5  501    0 -0.53859781003E+02  0.30663780322E+01  0.31027086601E+02  0.62410325963E+02  0.47000000000E+01 0. -1.
        -11    1    6    6    0    0  0.95521620738E+01 -0.44084889260E+02  0.29669450758E+02  0.53990717439E+02  0.00000000000E+00 0.  1.
         12    1    6    6    0    0  0.64274736860E+02  0.18781800074E+02  0.25875688947E+02  0.71788223902E+02  0.00000000000E+00 0. -1.
         -5    1    3    3    0  503 -0.50781822074E+01  0.29527618674E+02 -0.10654524587E+03  0.11077746890E+03  0.47000000000E+01 0.  1.
         13    1    4    4    0    0  0.10431104109E+02  0.29674528492E+02  0.23577919856E+02  0.39310353329E+02  0.00000000000E+00 0. -1.
        -14    1    4    4    0    0 -0.25320039833E+02 -0.36965436012E+02 -0.54873370085E+01  0.45140433584E+02  0.00000000000E+00 0.  1.
</event>
<event>
12    1  0.1030140E-001  0.2304072E+03  0.7818608E-02  0.1126417E+00
         21   -1    0    0  503  502  0.00000000000E+00  0.00000000000E+00  0.13773207830E+04  0.13773207830E+04  0.00000000000E+00 0. -1.
         21   -1    0    0  501  503 -0.00000000000E+00 -0.00000000000E+00 -0.71449988122E+02  0.71449988122E+02  0.00000000000E+00 0. -1.
          6    2    1    2  501    0  0.13870218474E+03 -0.64824387696E+02  0.16116799613E+03  0.28118069997E+03  0.17218294274E+03 0.  0.
         24    2    3    3    0    0  0.13713004266E+02 -0.60859411582E+02  0.98402433049E+02  0.14118204934E+03  0.79733416843E+02 0.  0.
         -6    2    1    2    0  502 -0.13870218474E+03  0.64824387696E+02  0.11447027988E+04  0.11675900712E+04  0.17170200780E+03 0.  0.
        -24    2    5    5    0    0 -0.10529062812E+03  0.10239321844E+03  0.10120075366E+04  0.10256116512E+04  0.78418857401E+02 0.  0.
          5    1    3    3  501    0  0.12498918047E+03 -0.39649761140E+01  0.62765563078E+02  0.13999865064E+03  0.47000000000E+01 0. -1.
        -11    1    4    4    0    0 -0.13850567908E+02 -0.43193451804E+01 -0.87418993227E+01  0.16938588428E+02  0.00000000000E+00 0.  1.
         12    1    4    4    0    0  0.27563572174E+02 -0.56540066402E+02  0.10714433237E+03  0.12424346091E+03  0.00000000000E+00 0. -1.
         -5    1    5    5    0  502 -0.33411556623E+02 -0.37568830748E+02  0.13269526212E+03  0.14197842001E+03  0.47000000000E+01 0.  1.
         11    1    6    6    0    0 -0.19591737518E+02  0.11570547934E+01  0.34421144494E+03  0.34477049436E+03  0.00000000000E+00 0. -1.
        -12    1    6    6    0    0 -0.85698890600E+02  0.10123616365E+03  0.66779609171E+03  0.68084115679E+03  0.00000000000E+00 0.  1.
</event>
<event>
12    1  0.1030140E-001  0.3121590E+03  0.7818608E-02  0.1079444E+00
         21   -1    0    0  501  502  0.00000000000E+00  0.00000000000E+00  0.11394133000E+04  0.11394133000E+04  0.00000000000E+00 0. -1.
         21   -1    0    0  502  503 -0.00000000000E+00 -0.00000000000E+00 -0.12426684015E+03  0.12426684015E+03  0.00000000000E+00 0.  1.
         -6    2    1    2    0  503 -0.51665733773E+02  0.25490053522E+03  0.15281841012E+03  0.34659078674E+03  0.17066949369E+03 0.  0.
        -24    2    3    3    0    0 -0.45347806495E+02  0.20918815405E+03  0.18226582924E+03  0.29164737502E+03  0.77596723529E+02 0.  0.
          6    2    1    2  501    0  0.51665733773E+02 -0.25490053522E+03  0.86232804977E+03  0.91708935345E+03  0.17262556556E+03 0.  0.
         24    2    5    5    0    0 -0.19146779384E+02 -0.56319368637E+02  0.29160629112E+03  0.30865340157E+03  0.81818230459E+02 0.  0.
          5    1    5    5  501    0  0.70812513157E+02 -0.19858116658E+03  0.57072175865E+03  0.60843595188E+03  0.47000000000E+01 0. -1.
        -11    1    6    6    0    0  0.34257435816E+01  0.73633841666E+01 -0.11494170432E+01  0.82022134214E+01  0.00000000000E+00 0.  1.
         12    1    6    6    0    0 -0.22572522966E+02 -0.63682752804E+02  0.29275570816E+03  0.30045118814E+03  0.00000000000E+00 0. -1.
         -5    1    3    3    0  503 -0.63179272782E+01  0.45712381175E+02 -0.29447419122E+02  0.54943411714E+02  0.47000000000E+01 0.  1.
         13    1    4    4    0    0 -0.52089034611E+02  0.87493409685E+02  0.56231789351E+02  0.11632015474E+03  0.00000000000E+00 0. -1.
        -14    1    4    4    0    0  0.67412281162E+01  0.12169474436E+03  0.12603403989E+03  0.17532722029E+03  0.00000000000E+00 0.  1.
</event>
<event>
12    1  0.1030140E-001  0.3188659E+03  0.7818608E-02  0.1076191E+00
         21   -1    0    0  503  502  0.00000000000E+00  0.00000000000E+00  0.82036772348E+02  0.82036772348E+02  0.00000000000E+00 0. -1.
         21   -1    0    0  501  503 -0.00000000000E+00 -0.00000000000E+00 -0.20233482509E+04  0.20233482509E+04  0.00000000000E+00 0.  1.
          6    2    1    2  501    0 -0.22121528819E+03  0.15101266281E+03 -0.16260251135E+04  0.16569645038E+04  0.17272136275E+03 0.  0.
         24    2    3    3    0    0 -0.21290096048E+03  0.12697618548E+03 -0.15968514404E+04  0.16179763839E+04  0.80394563041E+02 0.  0.
         -6    2    1    2    0  502  0.22121528819E+03 -0.15101266281E+03 -0.31528636509E+03  0.44842051946E+03  0.17301572820E+03 0.  0.
        -24    2    5    5    0    0  0.32857901712E+02 -0.16094676099E+02 -0.67070435880E+02  0.10884047633E+03  0.77518550137E+02 0.  0.
          5    1    3    3  501    0 -0.83143277053E+01  0.24036477330E+02 -0.29173673149E+02  0.38988119891E+02  0.47000000000E+01 0. -1.
        -11    1    4    4    0    0 -0.20192223059E+03  0.12407948387E+03 -0.13346369156E+04  0.13555161386E+04  0.00000000000E+00 0.  1.
         12    1    4    4    0    0 -0.10978729886E+02  0.28967016109E+01 -0.26221452476E+03  0.26246024534E+03  0.00000000000E+00 0. -1.
         -5    1    5    5    0  502  0.18835738647E+03 -0.13491798671E+03 -0.24821592921E+03  0.33958004313E+03  0.47000000000E+01 0.  1.
         13    1    6    6    0    0  0.36818745625E+01 -0.43306517355E+02 -0.22220728523E+02  0.48813639711E+02  0.00000000000E+00 0. -1.
        -14    1    6    6    0    0  0.29176027149E+02  0.27211841256E+02 -0.44849707357E+02  0.60026836621E+02  0.00000000000E+00 0.  1.
</event>
<event>
12    1  0.1030140E-001  0.2199070E+03  0.7818608E-02  0.1134109E+00
         21   -1    0    0  501  502  0.00000000000E+00  0.00000000000E+00  0.19082623722E+04  0.19082623722E+04  0.00000000000E+00 0. -1.
         21   -1    0    0  502  503 -0.00000000000E+00 -0.00000000000E+00 -0.42135992414E+02  0.42135992414E+02  0.00000000000E+00 0.  1.
         -6    2    1    2    0  503  0.10844390464E+03  0.82976967588E+02  0.31670009513E+03  0.38556197789E+03  0.17237700236E+03 0.  0.
        -24    2    3    3    0    0  0.53459488302E+02  0.26842000684E+02  0.28247235700E+03  0.29972463983E+03  0.80410306306E+02 0.  0.
          6    2    1    2  501    0 -0.10844390464E+03 -0.82976967588E+02  0.15494262846E+04  0.15648363867E+04  0.17130629878E+03 0.  0.
         24    2    5    5    0    0 -0.22214115338E+01 -0.49035455595E+02  0.43251795238E+03  0.44236520358E+03  0.78776796243E+02 0.  0.
          5    1    5    5  501    0 -0.10622249310E+03 -0.33941511993E+02  0.11169083322E+04  0.11224711831E+04  0.47000000000E+01 0. -1.
        -13    1    6    6    0    0  0.13670132377E+02  0.11090592268E+02  0.27853950074E+02  0.32950209268E+02  0.00000000000E+00 0.  1.
         14    1    6    6    0    0 -0.15891543910E+02 -0.60126047863E+02  0.40466400231E+03  0.40941499431E+03  0.00000000000E+00 0. -1.
         -5    1    3    3    0  503  0.54984416335E+02  0.56134966904E+02  0.34227738125E+02  0.85837338066E+02  0.47000000000E+01 0.  1.
         13    1    4    4    0    0 -0.14124407264E+02  0.78903487248E+01  0.11604923499E+02  0.19910568374E+02  0.00000000000E+00 0. -1.
        -14    1    4    4    0    0  0.67583895566E+02  0.18951651959E+02  0.27086743350E+03  0.27981407145E+03  0.00000000000E+00 0.  1.
</event>
<event>
12    1  0.1030140E-001  0.1837652E+03  0.7818608E-02  0.1164650E+00
         21   -1    0    0  503  502  0.00000000000E+00  0.00000000000E+00  0.25387191458E+03  0.25387191458E+03  0.00000000000E+00 0.  1.
         21   -1    0    0  501  503 -0.00000000000E+00 -0.00000000000E+00 -0.22378724797E+03  0.22378724797E+03  0.00000000000E+00 0.  1.
          6    2    1    2  501    0 -0.66140951239E+01 -0.63941680520E+02 -0.13823110459E+03  0.22846078754E+03  0.17015936179E+03 0.  0.
         24    2    3    3    0    0  0.27760651315E+02 -0.59033089604E+02 -0.15677766689E+03  0.18881507616E+03  0.82561108987E+02 0.  0.
         -6    2    1    2    0  502  0.66140951239E+01  0.63941680520E+02  0.16831577120E+03  0.24919837502E+03  0.17215500723E+03 0.  0.
        -24    2    5    5    0    0 -0.41925313537E+02  0.33558724193E+01  0.13903890986E+03  0.16609639582E+03  0.80543158954E+02 0.  0.
          5    1    3    3  501    0 -0.34374746439E+02 -0.49085909166E+01  0.18546562308E+02  0.39645711382E+02  0.47000000000E+01 0. -1.
        -11    1    4    4    0    0  0.37297011645E+02 -0.32078235852E+02 -0.15208123719E+03  0.15983986673E+03  0.00000000000E+00 0.  1.
         12    1    4    4    0    0 -0.95363603300E+01 -0.26954853752E+02 -0.46964297088E+01  0.28975209424E+02  0.00000000000E+00 0. -1.
         -5    1    5    5    0  502  0.48539408660E+02  0.60585808101E+02  0.29276861336E+02  0.83101979194E+02  0.47000000000E+01 0.  1.
         13    1    6    6    0    0  0.11865754015E+02  0.69046547712E+01 -0.31035156638E+01  0.14074877808E+02  0.00000000000E+00 0. -1.
        -14    1    6    6    0    0 -0.53791067551E+02 -0.35487823519E+01  0.14214242553E+03  0.15202151801E+03  0.00000000000E+00 0.  1.
</event>
<event>
12    1  0.1030140E-001  0.2437087E+03  0.7818608E-02  0.1117481E+00
         21   -1    0    0  501  502  0.00000000000E+00  0.00000000000E+00  0.49509642983E+03  0.49509642983E+03  0.00000000000E+00 0.  1.
         21   -1    0    0  502  503 -0.00000000000E+00 -0.00000000000E+00 -0.12043652843E+03  0.12043652843E+03  0.00000000000E+00 0.  1.
         -6    2    1    2    0  503 -0.16072510086E+03 -0.62695500609E+02  0.16138015429E+03  0.29229691253E+03  0.17213554843E+03 0.  0.
        -24    2    3    3    0    0 -0.11227526185E+03 -0.10890175544E+03  0.95622979930E+02  0.19833681002E+03  0.75686254722E+02 0.  0.
          6    2    1    2  501    0  0.16072510086E+03  0.62695500609E+02  0.21327974711E+03  0.32323604573E+03  0.17096785337E+03 0.  0.
         24    2    5    5    0    0  0.13705428161E+03  0.88794913547E+02  0.10591306267E+03  0.21013793802E+03  0.79195728230E+02 0.  0.
          5    1    5    5  501    0  0.23670819255E+02 -0.26099412939E+02  0.10736668444E+03  0.11309810771E+03  0.47000000000E+01 0. -1.
        -13    1    6    6    0    0  0.12917866472E+03  0.10300834207E+03  0.95426834486E+02  0.19079865485E+03  0.00000000000E+00 0.  1.
         14    1    6    6    0    0  0.78756168911E+01 -0.14213428520E+02  0.10486228185E+02  0.19339283163E+02  0.00000000000E+00 0. -1.
         -5    1    3    3    0  503 -0.48449839009E+02  0.46206254833E+02  0.65757174356E+02  0.93960102517E+02  0.47000000000E+01 0.  1.
         11    1    4    4    0    0 -0.82809950149E+02 -0.60223518525E+02  0.21050287924E+02  0.10453456198E+03  0.00000000000E+00 0. -1.
        -12    1    4    4    0    0 -0.29465311706E+02 -0.48678236917E+02  0.74572692006E+02  0.93802248034E+02  0.00000000000E+00 0.  1.
</event>
<event>
12    1  0.1030140E-001  0.1832157E+03  0.7818608E-02  0.1165011E+00
         21   -1    0    0  503  502  0.00000000000E+00  0.00000000000E+00  0.47334753890E+02  0.47334753890E+02  0.00000000000E+00 0.  1.
         21   -1    0    0  501  503 -0.00000000000E+00 -0.00000000000E+00 -0.10229883643E+04  0.10229883643E+04  0.00000000000E+00 0.  1.
          6    2    1    2  501    0  0.53574726792E+02 -0.31601673423E+02 -0.78751842232E+03  0.80855010698E+03  0.17233424755E+03 0.  0.
         24    2    3    3    0    0  0.87655640556E+02  0.14421469763E+02 -0.41539156361E+03  0.43201308706E+03  0.78699848542E+02 0.  0.
         -6    2    1    2    0  502 -0.53574726792E+02  0.31601673423E+02 -0.18813518805E+03  0.26177301118E+03  0.17105947295E+03 0.  0.
        -24    2    5    5    0    0 -0.55392353533E+02 -0.46255475873E+02 -0.12017949496E+03  0.15830753052E+03  0.73554614637E+02 0.  0.
          5    1    3    3  501    0 -0.34080913765E+02 -0.46023143186E+02 -0.37212685871E+03  0.37653701992E+03  0.47000000000E+01 0. -1.
        -11    1    4    4    0    0  0.52481322381E+02  0.47092103294E+02 -0.23593217148E+03  0.24624366983E+03  0.00000000000E+00 0.  1.
         12    1    4    4    0    0  0.35174318175E+02 -0.32670633531E+02 -0.17945939213E+03  0.18576941723E+03  0.00000000000E+00 0. -1.
         -5    1    5    5    0  502  0.18176267419E+01  0.77857149296E+02 -0.67955693098E+02  0.10346548066E+03  0.47000000000E+01 0.  1.
         11    1    6    6    0    0 -0.17184835374E+02 -0.84309734915E+01 -0.98491738100E+02  0.10033455215E+03  0.00000000000E+00 0. -1.
        -12    1    6    6    0    0 -0.38207518159E+02 -0.37824502382E+02 -0.21687756857E+02  0.57972978376E+02  0.00000000000E+00 0.  1.
</event>
<event>
12    1  0.1030140E-001  0.1961138E+03  0.7818608E-02  0.1153711E+00
         21   -1    0    0  501  502  0.00000000000E+00  0.00000000000E+00  0.20493687976E+03  0.20493687976E+03  0.00000000000E+00 0.  1.
         21   -1    0    0  502  503 -0.00000000000E+00 -0.00000000000E+00 -0.18655006343E+03  0.18655006343E+03  0.00000000000E+00 0. -1.
         -6    2    1    2    0  503  0.54396340204E+01 -0.86922842386E+02 -0.95517655805E+01  0.19634624171E+03  0.17571408669E+03 0.  0.
        -24    2    3    3    0    0 -0.30507319503E+02 -0.81777553622E+02  0.48309871440E+02  0.12787203852E+03  0.79994685685E+02 0.  0.
          6    2    1    2  501    0 -0.54396340204E+01  0.86922842386E+02  0.27938581911E+02  0.19514070148E+03  0.17237795354E+03 0.  0.
         24    2    5    5    0    0  0.23384490007E+01 -0.20682414188E+02  0.20841319710E+02  0.86919396049E+02  0.81776464841E+02 0.  0.
          5    1    5    5  501    0 -0.77780830211E+01  0.10760525657E+03  0.70972622015E+01  0.10822130543E+03  0.47000000000E+01 0. -1.
        -13    1    6    6    0    0 -0.30318362219E+02  0.17757698648E+01  0.33591563365E+02  0.45285202611E+02  0.00000000000E+00 0.  1.
         14    1    6    6    0    0  0.32656811219E+02 -0.22458184053E+02 -0.12750243655E+02  0.41634193438E+02  0.00000000000E+00 0. -1.
         -5    1    3    3    0  503  0.35946953523E+02 -0.51452887643E+01 -0.57861637020E+02  0.68474203192E+02  0.47000000000E+01 0.  1.
         13    1    4    4    0    0 -0.34553229225E+02 -0.46317730499E+02  0.66263303162E+02  0.87920891456E+02  0.00000000000E+00 0. -1.
        -14    1    4    4    0    0  0.40459097229E+01 -0.35459823123E+02 -0.17953431722E+02  0.39951147067E+02  0.00000000000E+00 0.  1.
</event>
<event>
12    1  0.1030140E-001  0.1824848E+03  0.7818608E-02  0.1167935E+00
         21   -1    0    0  503  502  0.00000000000E+00  0.00000000000E+00  0.18680552548E+03  0.18680552548E+03  0.00000000000E+00 0.  1.
         21   -1    0    0  501  503 -0.00000000000E+00 -0.00000000000E+00 -0.16875347088E+03  0.16875347088E+03  0.00000000000E+00 0.  1.
          6    2    1    2  501    0  0.22934019456E+02  0.56225273805E+02  0.96525695366E+00  0.18248732338E+03  0.17208556247E+03 0.  0.
         24    2    3    3    0    0 -0.23416179009E+02  0.76481553897E+02 -0.35701146177E+02  0.11983612308E+03  0.81782510541E+02 0.  0.
         -6    2    1    2    0  502 -0.22934019456E+02 -0.56225273805E+02  0.17086797653E+02  0.17307167298E+03  0.16116635713E+03 0.  0.
        -24    2    5    5    0    0  0.35734111010E+02  0.91844294917E+01  0.15450662892E+02  0.85065163247E+02  0.75073820867E+02 0.  0.
          5    1    3    3  501    0  0.46350198464E+02 -0.20256280092E+02  0.36666403131E+02  0.62651200303E+02  0.47000000000E+01 0. -1.
        -11    1    4    4    0    0  0.30574954465E+02  0.24137101656E+02 -0.15892093274E+02  0.42071203281E+02  0.00000000000E+00 0.  1.
         12    1    4    4    0    0 -0.53991133474E+02  0.52344452241E+02 -0.19809052903E+02  0.77764919797E+02  0.00000000000E+00 0. -1.
         -5    1    5    5    0  502 -0.58668130466E+02 -0.65409703297E+02  0.16361347614E+01  0.88006509729E+02  0.47000000000E+01 0.  1.
         11    1    6    6    0    0  0.27572741643E+02  0.39328685727E+02  0.22515203823E+02  0.53046545655E+02  0.00000000000E+00 0. -1.
        -12    1    6    6    0    0  0.81613693667E+01 -0.30144256235E+02 -0.70645409315E+01  0.32018617592E+02  0.00000000000E+00 0.  1.
</event>
<event>
12    1  0.1030140E-001  0.1795431E+03  0.7818608E-02  0.1168329E+00
         21   -1    0    0  501  502  0.00000000000E+00  0.00000000000E+00  0.22703927691E+03  0.22703927691E+03  0.00000000000E+00 0.  1.
         21   -1    0    0  502  503 -0.00000000000E+00 -0.00000000000E+00 -0.21894433333E+03  0.21894433333E+03  0.00000000000E+00 0.  1.
         -6    2    1    2    0  503 -0.31508631271E+02  0.39522793803E+02 -0.12839510030E+03  0.22045030490E+03  0.17192495478E+03 0.  0.
        -24    2    3    3    0    0 -0.73160092888E+02  0.71750379275E+01 -0.39323532648E+02  0.11683053976E+03  0.81848362474E+02 0.  0.
          6    2    1    2  501    0  0.31508631271E+02 -0.39522793803E+02  0.13649004388E+03  0.22553330533E+03  0.17228144027E+03 0.  0.
         24    2    5    5    0    0  0.48136819734E+02  0.34977515004E+02  0.94973379758E+02  0.13851310042E+03  0.81396290793E+02 0.  0.
          5    1    5    5  501    0 -0.16628188463E+02 -0.74500308807E+02  0.41516664122E+02  0.87020204916E+02  0.47000000000E+01 0. -1.
        -11    1    6    6    0    0  0.70937195678E+02  0.30213108494E+02  0.67317800844E+02  0.10235528304E+03  0.00000000000E+00 0.  1.
         12    1    6    6    0    0 -0.22800375944E+02  0.47644065100E+01  0.27655578914E+02  0.36157817379E+02  0.00000000000E+00 0. -1.
         -5    1    3    3    0  503  0.41651461617E+02  0.32347755875E+02 -0.89071567650E+02  0.10361976514E+03  0.47000000000E+01 0.  1.
         11    1    4    4    0    0  0.58505501515E+01 -0.24267568742E+02 -0.81520152103E+01  0.26260220519E+02  0.00000000000E+00 0. -1.
        -12    1    4    4    0    0 -0.79010643040E+02  0.31442606669E+02 -0.31171517438E+02  0.90570319239E+02  0.00000000000E+00 0.  1.
</event>
<event>
12    1  0.1030140E-001  0.2363078E+03  0.7818608E-02  0.1122421E+00
         21   -1    0    0  503  502  0.00000000000E+00  0.00000000000E+00  0.12700601878E+04  0.12700601878E+04  0.00000000000E+00 0.  1.
         21   -1    0    0  501  503 -0.00000000000E+00 -0.00000000000E+00 -0.55702554900E+02  0.55702554900E+02  0.00000000000E+00 0. -1.
          6    2    1    2  501    0  0.16179778513E+03 -0.20906023988E+02  0.30175017245E+03  0.38326822569E+03  0.17095549461E+03 0.  0.
         24    2    3    3    0    0  0.13478467346E+03 -0.68980614903E+02  0.26721148424E+03  0.31803107771E+03  0.82562434826E+02 0.  0.
         -6    2    1    2    0  502 -0.16179778513E+03  0.20906023988E+02  0.91260746048E+03  0.94249451704E+03  0.16978796372E+03 0.  0.
        -24    2    5    5    0    0 -0.18463869079E+03  0.26308939032E+02  0.70458676079E+03  0.73310110749E+03  0.78810684054E+02 0.  0.
          5    1    3    3  501    0  0.27013111666E+02  0.48074590915E+02  0.34538688212E+02  0.65237147982E+02  0.47000000000E+01 0. -1.
        -13    1    4    4    0    0  0.11631700612E+03 -0.69514527910E+02  0.26715472318E+03  0.29955560689E+03  0.00000000000E+00 0.  1.
         14    1    4    4    0    0  0.18467667337E+02  0.53391300695E+00  0.56761062624E-01  0.18475470814E+02  0.00000000000E+00 0. -1.
         -5    1    5    5    0  502  0.22840905666E+02 -0.54029150434E+01  0.20802069969E+03  0.20939340955E+03  0.47000000000E+01 0.  1.
         11    1    6    6    0    0 -0.72283355696E+02 -0.17315537027E+02  0.17797223345E+03  0.19286997489E+03  0.00000000000E+00 0. -1.
        -12    1    6    6    0    0 -0.11235533510E+03  0.43624476059E+02  0.52661452734E+03  0.54023113261E+03  0.00000000000E+00 0.  1.
</event>
<event>
12    1  0.1030140E-001  0.3473153E+03  0.7818608E-02  0.1063932E+00
         21   -1    0    0  503  502  0.00000000000E+00  0.00000000000E+00  0.17868693718E+04  0.17868693718E+04  0.00000000000E+00 0.  1.
         21   -1    0    0  501  503 -0.00000000000E+00 -0.00000000000E+00 -0.54096331466E+03  0.54096331466E+03  0.00000000000E+00 0. -1.
          6    2    1    2  501    0 -0.14554265637E+03  0.26119338586E+03 -0.46614513515E+03  0.58130817631E+03  0.17670104463E+03 0.  0.
         24    2    3    3    0    0 -0.29272668641E+02  0.16590201244E+03 -0.32555585068E+03  0.37542813161E+03  0.81112904228E+02 0.  0.
         -6    2    1    2    0  502  0.14554265637E+03 -0.26119338586E+03  0.17120511923E+04  0.17465245101E+04  0.17269606208E+03 0.  0.
        -24    2    5    5    0    0  0.38140621864E+02 -0.21353924117E+02  0.47955892308E+03  0.48631919032E+03  0.67962468042E+02 0.  0.
          5    1    3    3  501    0 -0.11626998773E+03  0.95291373419E+02 -0.14058928447E+03  0.20588004469E+03  0.47000000000E+01 0. -1.
        -11    1    4    4    0    0 -0.12293027117E+02  0.24000659862E+01 -0.22398848020E+01  0.12723832613E+02  0.00000000000E+00 0.  1.
         12    1    4    4    0    0 -0.16979641524E+02  0.16350194646E+03 -0.32331596588E+03  0.36270429900E+03  0.00000000000E+00 0. -1.
         -5    1    5    5    0  502  0.10740203451E+03 -0.23983946175E+03  0.12324922692E+04  0.12602053198E+04  0.47000000000E+01 0.  1.
         11    1    6    6    0    0  0.12260320221E+02 -0.40701755933E+02  0.35889370504E+03  0.36140232415E+03  0.00000000000E+00 0. -1.
        -12    1    6    6    0    0  0.25880301643E+02  0.19347831817E+02  0.12066521804E+03  0.12491686617E+03  0.00000000000E+00 0.  1.
</event>
<event>
12    1  0.1030140E-001  0.2603402E+03  0.7818608E-02  0.1106964E+00
         21   -1    0    0  503  502  0.00000000000E+00  0.00000000000E+00  0.20305855043E+03  0.20305855043E+03  0.00000000000E+00 0.  1.
         21   -1    0    0  501  503 -0.00000000000E+00 -0.00000000000E+00 -0.51357474138E+03  0.51357474138E+03  0.00000000000E+00 0.  1.
          6    2    1    2  501    0  0.17773509267E+03 -0.79563946234E+02 -0.36742420638E+03  0.45030831700E+03  0.17279134299E+03 0.  0.
         24    2    3    3    0    0  0.17048604369E+03 -0.11145302318E+03 -0.35133949197E+03  0.41356229711E+03  0.78147728764E+02 0.  0.
         -6    2    1    2    0  502 -0.17773509267E+03  0.79563946234E+02  0.56908015440E+02  0.26632497481E+03  0.17254067718E+03 0.  0.
        -24    2    5    5    0    0 -0.89198080618E+02 -0.20247834135E+02  0.48161778326E+02  0.13253491290E+03  0.82943799482E+02 0.  0.
          5    1    3    3  501    0  0.72490489853E+01  0.31889076942E+02 -0.16084714415E+02  0.36746019883E+02  0.47000000000E+01 0. -1.
        -13    1    4    4    0    0  0.35782287199E+02 -0.73150883705E+01 -0.21528994544E+02  0.42395521003E+02  0.00000000000E+00 0.  1.
         14    1    4    4    0    0  0.13470375649E+03 -0.10413793481E+03 -0.32981049742E+03  0.37116677611E+03  0.00000000000E+00 0. -1.
         -5    1    5    5    0  502 -0.88537012053E+02  0.99811780369E+02  0.87462371144E+01  0.13379006192E+03  0.47000000000E+01 0.  1.
         11    1    6    6    0    0 -0.47402361552E+02  0.20809204335E+02 -0.67860403004E+01  0.52211657786E+02  0.00000000000E+00 0. -1.
        -12    1    6    6    0    0 -0.41795719065E+02 -0.41057038470E+02  0.54947818626E+02  0.80323255112E+02  0.00000000000E+00 0.  1.
</event>
<event>
12    1  0.1030140E-001  0.2468188E+03  0.7818608E-02  0.1115442E+00
         21   -1    0    0  503  502  0.00000000000E+00  0.00000000000E+00  0.14458743466E+03  0.14458743466E+03  0.00000000000E+00 0. -1.
         21   -1    0    0  501  503 -0.00000000000E+00 -0.00000000000E+00 -0.42080837418E+03  0.42080837418E+03  0.00000000000E+00 0. -1.
          6    2    1    2  501    0 -0.12424191405E+03 -0.12618818966E+03 -0.14899773390E+03  0.28771742088E+03  0.17094290612E+03 0.  0.
         24    2    3    3    0    0 -0.14928169594E+03 -0.10661425477E+03 -0.15705539992E+03  0.25459423284E+03  0.80623822093E+02 0.  0.
         -6    2    1    2    0  502  0.12424191405E+03  0.12618818966E+03 -0.12722320562E+03  0.27767838795E+03  0.17193030760E+03 0.  0.
        -24    2    5    5    0    0  0.62999389285E+02  0.14905350973E+03 -0.94878484868E+02  0.20459117524E+03  0.81668539120E+02 0.  0.
          5    1    3    3  501    0  0.25039781892E+02 -0.19573934889E+02  0.80576660178E+01  0.33123188040E+02  0.47000000000E+01 0. -1.
        -13    1    4    4    0    0 -0.73748906897E+01  0.11270684189E+02 -0.20270309499E+01  0.13620799875E+02  0.00000000000E+00 0.  1.
         14    1    4    4    0    0 -0.14190680525E+03 -0.11788493896E+03 -0.15502836897E+03  0.24097343296E+03  0.00000000000E+00 0. -1.
         -5    1    5    5    0  502  0.61242524763E+02 -0.22865320072E+02 -0.32344720755E+02  0.73087212713E+02  0.47000000000E+01 0.  1.
         13    1    6    6    0    0 -0.11630180434E+02  0.59887468165E+02 -0.12991352251E+02  0.62374234853E+02  0.00000000000E+00 0. -1.
        -14    1    6    6    0    0  0.74629569719E+02  0.89166041566E+02 -0.81887132618E+02  0.14221694039E+03  0.00000000000E+00 0.  1.
</event>
<event>
12    1  0.1030140E-001  0.2060402E+03  0.7818608E-02  0.1146006E+00
         21   -1    0    0  501  502  0.00000000000E+00  0.00000000000E+00  0.37940930233E+03  0.37940930233E+03  0.00000000000E+00 0.  1.
         21   -1    0    0  502  503 -0.00000000000E+00 -0.00000000000E+00 -0.10910685635E+03  0.10910685635E+03  0.00000000000E+00 0.  1.
         -6    2    1    2    0  503  0.68538276567E+02 -0.87034978952E+02  0.11623397404E+03  0.23124266155E+03  0.16640387280E+03 0.  0.
        -24    2    3    3    0    0  0.10197442285E+03 -0.58206251694E+02  0.47561659849E+02  0.14946828824E+03  0.79321542163E+02 0.  0.
          6    2    1    2  501    0 -0.68538276567E+02  0.87034978952E+02  0.15406847194E+03  0.25727349712E+03  0.17372384799E+03 0.  0.
         24    2    5    5    0    0 -0.10326896207E+03  0.28758555527E+02  0.74343292806E+02  0.15248534784E+03  0.78951396918E+02 0.  0.
          5    1    5    5  501    0  0.34730685507E+02  0.58276423425E+02  0.79725179134E+02  0.10478814929E+03  0.47000000000E+01 0. -1.
        -11    1    6    6    0    0 -0.84894750486E+02 -0.56712504707E+00  0.18658028471E+02  0.86922737632E+02  0.00000000000E+00 0.  1.
         12    1    6    6    0    0 -0.18374211587E+02  0.29325680575E+02  0.55685264335E+02  0.65562610203E+02  0.00000000000E+00 0. -1.
         -5    1    3    3    0  503 -0.33436146282E+02 -0.28828727258E+02  0.68672314190E+02  0.81774373307E+02  0.47000000000E+01 0.  1.
         11    1    4    4    0    0  0.12979001508E+02 -0.45685795671E+02  0.34388146289E+02  0.58636089667E+02  0.00000000000E+00 0. -1.
        -12    1    4    4    0    0  0.88995421340E+02 -0.12520456023E+02  0.13173513560E+02  0.90832198575E+02  0.00000000000E+00 0.  1.
</event>
<event>
12    1  0.1030140E-001  0.1955594E+03  0.7818608E-02  0.1153561E+00
         21   -1    0    0  503  502  0.00000000000E+00  0.00000000000E+00  0.19126354273E+03  0.19126354273E+03  0.00000000000E+00 0. -1.
         21   -1    0    0  501  503 -0.00000000000E+00 -0.00000000000E+00 -0.21898993758E+03  0.21898993758E+03  0.00000000000E+00 0. -1.
          6    2    1    2  501    0  0.72724016503E+02  0.58442000889E+02  0.46770743906E+02  0.20098501111E+03  0.17176502019E+03 0.  0.
         24    2    3    3    0    0 -0.28802636328E+02  0.56956181483E+01  0.11932571276E+02  0.81295285572E+02  0.74863243808E+02 0.  0.
         -6    2    1    2    0  502 -0.72724016503E+02 -0.58442000889E+02 -0.74497138755E+02  0.20926846921E+03  0.17186977185E+03 0.  0.
        -24    2    5    5    0    0 -0.21551716124E+02 -0.87128515113E+02 -0.83560041986E+01  0.12073452032E+03  0.80319032477E+02 0.  0.
          5    1    3    3  501    0  0.10152665283E+03  0.52746382741E+02  0.34838172631E+02  0.11968972554E+03  0.47000000000E+01 0. -1.
        -13    1    4    4    0    0  0.15388551710E+01  0.34340652560E+02  0.18527716785E+02  0.39050285310E+02  0.00000000000E+00 0.  1.
         14    1    4    4    0    0 -0.30341491499E+02 -0.28645034412E+02 -0.65951455100E+01  0.42245000262E+02  0.00000000000E+00 0. -1.
         -5    1    5    5    0  502 -0.51172300378E+02  0.28686514224E+02 -0.66141134557E+02  0.88533948883E+02  0.47000000000E+01 0.  1.
         13    1    6    6    0    0 -0.33497186994E+02 -0.45391387317E+02 -0.38131723506E+02  0.68091614143E+02  0.00000000000E+00 0. -1.
        -14    1    6    6    0    0  0.11945470869E+02 -0.41737127796E+02  0.29775719307E+02  0.52642906181E+02  0.00000000000E+00 0.  1.
</event>
<event>
12    1  0.1030140E-001  0.2154098E+03  0.7818608E-02  0.1137525E+00
         21   -1    0    0  503  502  0.00000000000E+00  0.00000000000E+00  0.27338322350E+03  0.27338322350E+03  0.00000000000E+00 0. -1.
         21   -1    0    0  501  503 -0.00000000000E+00 -0.00000000000E+00 -0.25645392275E+03  0.25645392275E+03  0.00000000000E+00 0.  1.
          6    2    1    2  501    0  0.10782834712E+03  0.75704165334E+02 -0.14623004691E+03  0.25961067023E+03  0.16928201435E+03 0.  0.
         24    2    3    3    0    0  0.66065314299E+02  0.10486762361E+03 -0.59388562960E+02  0.15882281608E+03  0.79597997850E+02 0.  0.
         -6    2    1    2    0  502 -0.10782834712E+03 -0.75704165334E+02  0.16315934766E+03  0.27022647602E+03  0.17042095681E+03 0.  0.
        -24    2    5    5    0    0 -0.56158384132E+02  0.19435983634E+02  0.11315424409E+03  0.15087810609E+03  0.80179787814E+02 0.  0.
          5    1    3    3  501    0  0.41763032823E+02 -0.29163458273E+02 -0.86841483955E+02  0.10078785415E+03  0.47000000000E+01 0. -1.
        -11    1    4    4    0    0  0.77697739941E+02  0.52783577440E+02 -0.37380166238E+02  0.10109560657E+03  0.00000000000E+00 0.  1.
         12    1    4    4    0    0 -0.11632425642E+02  0.52084046167E+02 -0.22008396722E+02  0.57727209510E+02  0.00000000000E+00 0. -1.
         -5    1    5    5    0  502 -0.51669962989E+02 -0.95140148968E+02  0.50005103567E+02  0.11934836993E+03  0.47000000000E+01 0.  1.
         13    1    6    6    0    0 -0.72830836133E+02 -0.15233513985E+01  0.78709059299E+02  0.10724629274E+03  0.00000000000E+00 0. -1.
        -14    1    6    6    0    0  0.16672452001E+02  0.20959335032E+02  0.34445184793E+02  0.43631813349E+02  0.00000000000E+00 0.  1.
</event>
<event>
12    1  0.1030140E-001  0.4824010E+03  0.7818608E-02  0.1018528E+00
         21   -1    0    0  503  502  0.00000000000E+00  0.00000000000E+00  0.13758118830E+04  0.13758118830E+04  0.00000000000E+00 0.  1.
         21   -1    0    0  501  503 -0.00000000000E+00 -0.00000000000E+00 -0.18823981505E+03  0.18823981505E+03  0.00000000000E+00 0. -1.
          6    2    1    2  501    0  0.44979719323E+03  0.18350895371E+02  0.34262814706E+03  0.59109694429E+03  0.17131047839E+03 0.  0.
         24    2    3    3    0    0  0.45258454720E+03  0.35794745282E+02  0.31652185388E+03  0.55922711867E+03  0.80217517534E+02 0.  0.
         -6    2    1    2    0  502 -0.44979719323E+03 -0.18350895371E+02  0.84494392085E+03  0.97295475372E+03  0.17336796992E+03 0.  0.
        -24    2    5    5    0    0 -0.18872677645E+03  0.11163076447E+02  0.48671395521E+03  0.52868047432E+03  0.82886424129E+02 0.  0.
          5    1    3    3  501    0 -0.27873539749E+01 -0.17443849911E+02  0.26106293176E+02  0.31869825624E+02  0.47000000000E+01 0. -1.
        -13    1    4    4    0    0  0.13180061905E+03  0.16264430673E+02  0.50662080341E+02  0.14213578463E+03  0.00000000000E+00 0.  1.
         14    1    4    4    0    0  0.32078392815E+03  0.19530314609E+02  0.26585977354E+03  0.41709133404E+03  0.00000000000E+00 0. -1.
         -5    1    5    5    0  502 -0.26107041678E+03 -0.29513971819E+02  0.35822996565E+03  0.44427427940E+03  0.47000000000E+01 0.  1.
         11    1    6    6    0    0 -0.37154004860E+02 -0.30078206284E+02  0.14284879070E+03  0.15063497461E+03  0.00000000000E+00 0. -1.
        -12    1    6    6    0    0 -0.15157277159E+03  0.41241282732E+02  0.34386516451E+03  0.37804549971E+03  0.00000000000E+00 0.  1.
</event>
<event>
12    1  0.1030140E-001  0.2096924E+03  0.7818608E-02  0.1142485E+00
         21   -1    0    0  501  502  0.00000000000E+00  0.00000000000E+00  0.41853636731E+03  0.41853636731E+03  0.00000000000E+00 0.  1.
         21   -1    0    0  502  503 -0.00000000000E+00 -0.00000000000E+00 -0.15178422670E+03  0.15178422670E+03  0.00000000000E+00 0. -1.
         -6    2    1    2    0  503  0.10743641467E+03  0.41037373117E+02 -0.28400274169E+02  0.20826276613E+03  0.17128968152E+03 0.  0.
        -24    2    3    3    0    0  0.78790058483E+02  0.57350835857E+02  0.40540442669E+02  0.13170131874E+03  0.78770033487E+02 0.  0.
          6    2    1    2  501    0 -0.10743641467E+03 -0.41037373117E+02  0.29515241478E+03  0.36205782788E+03  0.17534045053E+03 0.  0.
         24    2    5    5    0    0 -0.12204295727E+03 -0.20076469916E+02  0.30154176865E+03  0.33530667104E+03  0.78775486947E+02 0.  0.
          5    1    5    5  501    0  0.14606542592E+02 -0.20960903201E+02 -0.63893538686E+01  0.26751156841E+02  0.47000000000E+01 0. -1.
        -13    1    6    6    0    0 -0.79035690982E+02  0.66660112749E+01  0.10074057142E+03  0.12821754516E+03  0.00000000000E+00 0.  1.
         14    1    6    6    0    0 -0.43007266285E+02 -0.26742481191E+02  0.20080119722E+03  0.20708912588E+03  0.00000000000E+00 0. -1.
         -5    1    3    3    0  503  0.28646356192E+02 -0.16313462740E+02 -0.68940716838E+02  0.76561447398E+02  0.47000000000E+01 0.  1.
         13    1    4    4    0    0  0.22249351287E+02  0.16374556038E+02 -0.24015462001E+02  0.36604673653E+02  0.00000000000E+00 0. -1.
        -14    1    4    4    0    0  0.56540707197E+02  0.40976279819E+02  0.64555904670E+02  0.95096645082E+02  0.00000000000E+00 0.  1.
</event>
<event>
12    1  0.1030140E-001  0.2057650E+03  0.7818608E-02  0.1145315E+00
         21   -1    0    0  501  502  0.00000000000E+00  0.00000000000E+00  0.43905785163E+03  0.43905785163E+03  0.00000000000E+00 0. -1.
         21   -1    0    0  502  503 -0.00000000000E+00 -0.00000000000E+00 -0.95668748469E+02  0.95668748469E+02  0.00000000000E+00 0.  1.
         -6    2    1    2    0  503  0.71484358275E+02 -0.86578730956E+02  0.16543531158E+03  0.26268471995E+03  0.17037760900E+03 0.  0.
        -24    2    3    3    0    0  0.13610516937E+02 -0.19041301326E+02  0.14942907417E+03  0.17219176140E+03  0.82299071427E+02 0.  0.
          6    2    1    2  501    0 -0.71484358275E+02  0.86578730956E+02  0.17795379159E+03  0.27204188015E+03  0.17243358862E+03 0.  0.
         24    2    5    5    0    0 -0.22599506568E+02  0.11681590291E+03  0.15193949154E+03  0.20877380684E+03  0.79650489413E+02 0.  0.
          5    1    5    5  501    0 -0.48884851706E+02 -0.30237171950E+02  0.26014300051E+02  0.63268073315E+02  0.47000000000E+01 0. -1.
        -11    1    6    6    0    0 -0.38733871630E+02  0.75174901463E+02  0.51909298406E+02  0.99227787854E+02  0.00000000000E+00 0.  1.
         12    1    6    6    0    0  0.16134365062E+02  0.41641001442E+02  0.10003019313E+03  0.10954601898E+03  0.00000000000E+00 0. -1.
         -5    1    3    3    0  503  0.57873841338E+02 -0.67537429630E+02  0.16006237406E+02  0.90492958555E+02  0.47000000000E+01 0.  1.
         13    1    4    4    0    0 -0.59266776724E+01 -0.49175037443E+02  0.91064551282E+02  0.10366321583E+03  0.00000000000E+00 0. -1.
        -14    1    4    4    0    0  0.19537194609E+02  0.30133736117E+02  0.58364522890E+02  0.68528545568E+02  0.00000000000E+00 0.  1.
</event>
<event>
12    1  0.1030140E-001  0.1766833E+03  0.7818608E-02  0.1171300E+00
         21   -1    0    0  501  502  0.00000000000E+00  0.00000000000E+00  0.39444143777E+03  0.39444143777E+03  0.00000000000E+00 0.  1.
         21   -1    0    0  502  503 -0.00000000000E+00 -0.00000000000E+00 -0.85523194406E+02  0.85523194406E+02  0.00000000000E+00 0.  1.
         -6    2    1    2    0  503  0.17072360779E+02  0.29416571746E+02  0.87056674334E+02  0.19696664515E+03  0.17337876040E+03 0.  0.
        -24    2    3    3    0    0  0.15852320949E+01 -0.98106190392E+01  0.11950761990E+03  0.14354588589E+03  0.78896064122E+02 0.  0.
          6    2    1    2  501    0 -0.17072360779E+02 -0.29416571746E+02  0.22186156903E+03  0.28299798703E+03  0.17236155214E+03 0.  0.
         24    2    5    5    0    0 -0.63342570166E+02 -0.13986777841E+02  0.70226597241E+02  0.12364220431E+03  0.78407324769E+02 0.  0.
          5    1    5    5  501    0  0.46270209387E+02 -0.15429793905E+02  0.15163497179E+03  0.15935578272E+03  0.47000000000E+01 0. -1.
        -13    1    6    6    0    0  0.18137057253E+01 -0.32313216736E+02  0.33727241636E+02  0.46743559264E+02  0.00000000000E+00 0.  1.
         14    1    6    6    0    0 -0.65156275891E+02  0.18326438896E+02  0.36499355605E+02  0.76898645048E+02  0.00000000000E+00 0. -1.
         -5    1    3    3    0  503  0.15487128684E+02  0.39227190785E+02 -0.32450945566E+02  0.53420759260E+02  0.47000000000E+01 0.  1.
         11    1    4    4    0    0  0.38907359832E+02 -0.14956659264E+02  0.58198542222E+02  0.71585994596E+02  0.00000000000E+00 0. -1.
        -12    1    4    4    0    0 -0.37322127737E+02  0.51460402252E+01  0.61309077678E+02  0.71959891291E+02  0.00000000000E+00 0.  1.
</event>
<event>
12    1  0.1030140E-001  0.2061316E+03  0.7818608E-02  0.1144842E+00
         21   -1    0    0  503  502  0.00000000000E+00  0.00000000000E+00  0.23229762807E+03  0.23229762807E+03  0.00000000000E+00 0.  1.
         21   -1    0    0  501  503 -0.00000000000E+00 -0.00000000000E+00 -0.41448225521E+03  0.41448225521E+03  0.00000000000E+00 0.  1.
          6    2    1    2  501    0 -0.18965231168E+02 -0.11225225993E+03 -0.33312816272E+03  0.39129175764E+03  0.17080578721E+03 0.  0.
         24    2    3    3    0    0  0.13306256739E+02 -0.10438319459E+03 -0.13096175879E+03  0.18636075462E+03  0.80662511832E+02 0.  0.
         -6    2    1    2    0  502  0.18965231168E+02  0.11225225993E+03  0.15094353558E+03  0.25548812565E+03  0.17184289790E+03 0.  0.
        -24    2    5    5    0    0 -0.10583462972E+01 -0.81227171598E+01  0.34236712245E+02  0.86569058108E+02  0.79088246443E+02 0.  0.
          5    1    3    3  501    0 -0.32271487907E+02 -0.78690653484E+01 -0.20216640393E+03  0.20493100302E+03  0.47000000000E+01 0. -1.
        -13    1    4    4    0    0 -0.25514127300E+02 -0.27772172659E+02 -0.74723533422E+02  0.83701079522E+02  0.00000000000E+00 0.  1.
         14    1    4    4    0    0  0.38820384040E+02 -0.76611021927E+02 -0.56238225368E+02  0.10265967509E+03  0.00000000000E+00 0. -1.
         -5    1    5    5    0  502  0.20023577465E+02  0.12037497709E+03  0.11670682334E+03  0.16891906754E+03  0.47000000000E+01 0.  1.
         13    1    6    6    0    0 -0.17367614307E+02  0.22579854210E+02  0.42188899041E+02  0.50905668104E+02  0.00000000000E+00 0. -1.
        -14    1    6    6    0    0  0.16309268010E+02 -0.30702571369E+02 -0.79521867960E+01  0.35663390004E+02  0.00000000000E+00 0.  1.
</event>
<event>
12    1  0.1030140E-001  0.1997385E+03  0.7818608E-02  0.1150420E+00
         21   -1    0    0  501  502  0.00000000000E+00  0.00000000000E+00  0.41929902500E+03  0.41929902500E+03  0.00000000000E+00 0.  1.
         21   -1    0    0  502  503 -0.00000000000E+00 -0.00000000000E+00 -0.10719010615E+03  0.10719010615E+03  0.00000000000E+00 0. -1.
         -6    2    1    2    0  503 -0.65601035004E+02 -0.77620360344E+02  0.24722975627E+03  0.31647779935E+03  0.16943207774E+03 0.  0.
        -24    2    3    3    0    0 -0.44037287704E+01  0.22524367629E+02  0.14056529949E+03  0.15781629435E+03  0.67975285048E+02 0.  0.
          6    2    1    2  501    0  0.65601035004E+02  0.77620360344E+02  0.64879162583E+02  0.21001133180E+03  0.17195068366E+03 0.  0.
         24    2    5    5    0    0  0.40195526070E+02  0.50464755747E+02  0.11189339426E+03  0.14988401084E+03  0.76044152549E+02 0.  0.
          5    1    5    5  501    0  0.25405508934E+02  0.27155604596E+02 -0.47014231680E+02  0.60127320958E+02  0.47000000000E+01 0. -1.
        -13    1    6    6    0    0 -0.33416516713E+01 -0.35756528734E+01  0.67118795266E+02  0.67296988100E+02  0.00000000000E+00 0.  1.
         14    1    6    6    0    0  0.43537177741E+02  0.54040408621E+02  0.44774598997E+02  0.82587022739E+02  0.00000000000E+00 0. -1.
         -5    1    3    3    0  503 -0.61197306233E+02 -0.10014472797E+03  0.10666445677E+03  0.15866150500E+03  0.47000000000E+01 0.  1.
         13    1    4    4    0    0  0.20930663461E+02 -0.64276181563E+01  0.98108516979E+02  0.10052207744E+03  0.00000000000E+00 0. -1.
        -14    1    4    4    0    0 -0.25334392231E+02  0.28951985785E+02  0.42456782513E+02  0.57294216916E+02  0.00000000000E+00 0.  1.
</event>
<event>
12    1  0.1030140E-001  0.1845561E+03  0.7818608E-02  0.1163475E+00
         21   -1    0    0  501  502  0.00000000000E+00  0.00000000000E+00  0.11332106762E+04  0.11332106762E+04  0.00000000000E+00 0.  1.
         21   -1    0    0  502  503 -0.00000000000E+00 -0.00000000000E+00 -0.40602512156E+02  0.40602512156E+02  0.00000000000E+00 0.  1.
         -6    2    1    2    0  503  0.40806485631E+00 -0.65993963021E+02  0.24714755111E+03  0.30845239921E+03  0.17235312844E+03 0.  0.
        -24    2    3    3    0    0  0.44895942841E+02 -0.28133578316E+00  0.80032025812E+02  0.12339292373E+03  0.82492203502E+02 0.  0.
          6    2    1    2  501    0 -0.40806485631E+00  0.65993963021E+02  0.84546061290E+03  0.86536078912E+03  0.17230866985E+03 0.  0.
         24    2    5    5    0    0  0.35408734469E+02  0.10025041526E+03  0.58340422729E+03  0.59861749141E+03  0.81721994365E+02 0.  0.
          5    1    5    5  501    0 -0.35816799326E+02 -0.34256452240E+02  0.26205638561E+03  0.26674329771E+03  0.47000000000E+01 0. -1.
        -13    1    6    6    0    0  0.58579117717E+02  0.85182926045E+02  0.50530259844E+03  0.51576967719E+03  0.00000000000E+00 0.  1.
         14    1    6    6    0    0 -0.23170383248E+02  0.15067489215E+02  0.78101628851E+02  0.82847814216E+02  0.00000000000E+00 0. -1.
         -5    1    3    3    0  503 -0.44487877985E+02 -0.65712627238E+02  0.16711552530E+03  0.18505947547E+03  0.47000000000E+01 0.  1.
         13    1    4    4    0    0 -0.74454903195E+01  0.30933723812E+02  0.18574314671E+02  0.36842037953E+02  0.00000000000E+00 0. -1.
        -14    1    4    4    0    0  0.52341433160E+02 -0.31215059596E+02  0.61457711141E+02  0.86550885782E+02  0.00000000000E+00 0.  1.
</event>
<event>
12    1  0.1030140E-001  0.3723315E+03  0.7818608E-02  0.1053846E+00
         21   -1    0    0  503  502  0.00000000000E+00  0.00000000000E+00  0.16954268764E+03  0.16954268764E+03  0.00000000000E+00 0. -1.
         21   -1    0    0  501  503 -0.00000000000E+00 -0.00000000000E+00 -0.84886358975E+03  0.84886358975E+03  0.00000000000E+00 0. -1.
          6    2    1    2  501    0  0.20732562362E+03 -0.25699648867E+03 -0.24077210035E+03  0.44339818595E+03  0.17204545213E+03 0.  0.
         24    2    3    3    0    0  0.25722151369E+02 -0.65077966073E+02 -0.51021125597E+02  0.11806748824E+03  0.80249646628E+02 0.  0.
         -6    2    1    2    0  502 -0.20732562362E+03  0.25699648867E+03 -0.43854880176E+03  0.57500809145E+03  0.17110857463E+03 0.  0.
        -24    2    5    5    0    0 -0.13219619811E+03  0.96328757083E+02 -0.14722534761E+03  0.23390694005E+03  0.79259632783E+02 0.  0.
          5    1    3    3  501    0  0.18160347225E+03 -0.19191852260E+03 -0.18975097475E+03  0.32533069770E+03  0.47000000000E+01 0. -1.
        -11    1    4    4    0    0  0.32045551533E+02  0.70619989156E+01 -0.77832476369E+01  0.33724889110E+02  0.00000000000E+00 0.  1.
         12    1    4    4    0    0 -0.63234001635E+01 -0.72139964988E+02 -0.43237877960E+02  0.84342599134E+02  0.00000000000E+00 0. -1.
         -5    1    5    5    0  502 -0.75129425510E+02  0.16066773159E+03 -0.29132345415E+03  0.34110115140E+03  0.47000000000E+01 0.  1.
         13    1    6    6    0    0 -0.10417882430E+03  0.91899895326E+02 -0.15112552801E+03  0.20527479974E+03  0.00000000000E+00 0. -1.
        -14    1    6    6    0    0 -0.28017373808E+02  0.44288617571E+01  0.39001803954E+01  0.28632140309E+02  0.00000000000E+00 0.  1.
</event>
<event>
12    1  0.1030140E-001  0.1916765E+03  0.7818608E-02  0.1157158E+00
         21   -1    0    0  503  502  0.00000000000E+00  0.00000000000E+00  0.83704553326E+03  0.83704553326E+03  0.00000000000E+00 0. -1.
         21   -1    0    0  501  503 -0.00000000000E+00 -0.00000000000E+00 -0.43746935880E+02  0.43746935880E+02  0.00000000000E+00 0. -1.
          6    2    1    2  501    0 -0.30835172737E+02  0.74021695337E+02  0.41201252645E+03  0.45403848246E+03  0.17310864319E+03 0.  0.
         24    2    3    3    0    0 -0.63496497813E+02  0.23688101045E+02  0.35846486476E+03  0.37347996371E+03  0.79983077363E+02 0.  0.
         -6    2    1    2    0  502  0.30835172737E+02 -0.74021695337E+02  0.38128607093E+03  0.42675398668E+03  0.17409732336E+03 0.  0.
        -24    2    5    5    0    0  0.66618133656E+02 -0.73347986953E+02  0.16511717821E+03  0.20759205030E+03  0.77542722984E+02 0.  0.
          5    1    3    3  501    0  0.32661325076E+02  0.50333594292E+02  0.53547661694E+02  0.80558518749E+02  0.47000000000E+01 0. -1.
        -13    1    4    4    0    0 -0.47560813932E+02  0.49122468470E+02  0.30078212591E+03  0.30845572648E+03  0.00000000000E+00 0.  1.
         14    1    4    4    0    0 -0.15935683882E+02 -0.25434367425E+02  0.57682738847E+02  0.65024237235E+02  0.00000000000E+00 0. -1.
         -5    1    5    5    0  502 -0.35782960920E+02 -0.67370838352E+00  0.21616889272E+03  0.21916193638E+03  0.47000000000E+01 0.  1.
         11    1    6    6    0    0  0.74598429050E+01 -0.19947205583E+02 -0.30334825321E+01  0.21511445395E+02  0.00000000000E+00 0. -1.
        -12    1    6    6    0    0  0.59158290751E+02 -0.53400781371E+02  0.16815066074E+03  0.18608060491E+03  0.00000000000E+00 0.  1.
</event>
<event>
12    1  0.1030140E-001  0.2511193E+03  0.7818608E-02  0.1112771E+00
         21   -1    0    0  501  502  0.00000000000E+00  0.00000000000E+00  0.23273117335E+03  0.23273117335E+03  0.00000000000E+00 0.  1.
         21   -1    0    0  502  503 -0.00000000000E+00 -0.00000000000E+00 -0.29144126831E+03  0.29144126831E+03  0.00000000000E+00 0. -1.
         -6    2    1    2    0  503  0.36332612697E+02  0.17878002494E+03 -0.10085106068E+03  0.27061383207E+03  0.17256463603E+03 0.  0.
        -24    2    3    3    0    0  0.76470571175E+02  0.17809943133E+03 -0.84753896225E+02  0.22710834251E+03  0.82630627598E+02 0.  0.
          6    2    1    2  501    0 -0.36332612697E+02 -0.17878002494E+03  0.42140965725E+02  0.25355860959E+03  0.17097880407E+03 0.  0.
         24    2    5    5    0    0 -0.68389592347E+02 -0.18849551416E+03  0.39620269488E+02  0.21963981562E+03  0.80400171956E+02 0.  0.
          5    1    5    5  501    0  0.32056979650E+02  0.97154892160E+01  0.25206962369E+01  0.33918793972E+02  0.47000000000E+01 0. -1.
        -13    1    6    6    0    0 -0.16406967319E+02 -0.13409799476E+03  0.49227659277E+02  0.14378742369E+03  0.00000000000E+00 0.  1.
         14    1    6    6    0    0 -0.51982625028E+02 -0.54397519399E+02 -0.96073897887E+01  0.75852391921E+02  0.00000000000E+00 0. -1.
         -5    1    3    3    0  503 -0.40137958478E+02  0.68059360821E+00 -0.16097164451E+02  0.43505489559E+02  0.47000000000E+01 0.  1.
         11    1    4    4    0    0  0.73638617730E+02  0.84670919905E+02 -0.70590116334E+02  0.13256988807E+03  0.00000000000E+00 0. -1.
        -12    1    4    4    0    0  0.28319534456E+01  0.93428511428E+02 -0.14163779891E+02  0.94538454444E+02  0.00000000000E+00 0.  1.
</event>
<event>
12    1  0.1030140E-001  0.2266897E+03  0.7818608E-02  0.1129837E+00
         21   -1    0    0  501  502  0.00000000000E+00  0.00000000000E+00  0.43079495799E+03  0.43079495799E+03  0.00000000000E+00 0. -1.
         21   -1    0    0  502  503 -0.00000000000E+00 -0.00000000000E+00 -0.14671469830E+03  0.14671469830E+03  0.00000000000E+00 0. -1.
         -6    2    1    2    0  503  0.14602980893E+03 -0.20702354595E+02  0.10581723404E+02  0.22227781895E+03  0.16595831810E+03 0.  0.
        -24    2    3    3    0    0  0.13929324993E+03 -0.41141072603E+02  0.52923118902E+02  0.17454935581E+03  0.81064318723E+02 0.  0.
          6    2    1    2  501    0 -0.14602980893E+03  0.20702354595E+02  0.27349853628E+03  0.35523183734E+03  0.17214794894E+03 0.  0.
         24    2    5    5    0    0 -0.11909493443E+03 -0.24785685584E+00  0.92124369448E+02  0.17061581089E+03  0.80244567671E+02 0.  0.
          5    1    5    5  501    0 -0.26934874502E+02  0.20950211451E+02  0.18137416684E+03  0.18461602644E+03  0.47000000000E+01 0. -1.
        -13    1    6    6    0    0 -0.53278965503E+02 -0.27610732012E+02  0.82929528667E+01  0.60578657583E+02  0.00000000000E+00 0.  1.
         14    1    6    6    0    0 -0.65815968927E+02  0.27362875156E+02  0.83831416581E+02  0.11003715331E+03  0.00000000000E+00 0. -1.
         -5    1    3    3    0  503  0.67365590066E+01  0.20438718008E+02 -0.42341395498E+02  0.47728463141E+02  0.47000000000E+01 0.  1.
         11    1    4    4    0    0  0.30177502557E+02  0.10556896151E+02 -0.15753664738E+02  0.35641375809E+02  0.00000000000E+00 0. -1.
        -12    1    4    4    0    0  0.10911574737E+03 -0.51697968753E+02  0.68676783640E+02  0.13890798000E+03  0.00000000000E+00 0.  1.
</event>
<event>
12    1  0.1030140E-001  0.2012744E+03  0.7818608E-02  0.1148733E+00
         21   -1    0    0  503  502  0.00000000000E+00  0.00000000000E+00  0.25158814948E+03  0.25158814948E+03  0.00000000000E+00 0. -1.
         21   -1    0    0  501  503 -0.00000000000E+00 -0.00000000000E+00 -0.20848030943E+03  0.20848030943E+03  0.00000000000E+00 0.  1.
          6    2    1    2  501    0  0.74841123635E+02 -0.71111327507E+02 -0.88495502679E+02  0.21958807481E+03  0.17242231271E+03 0.  0.
         24    2    3    3    0    0  0.26470735537E+02  0.98489285511E+01 -0.91756702704E+02  0.12510536247E+03  0.80214450035E+02 0.  0.
         -6    2    1    2    0  502 -0.74841123635E+02  0.71111327507E+02  0.13160334274E+03  0.24048038410E+03  0.17278125081E+03 0.  0.
        -24    2    5    5    0    0  0.12173580496E+02  0.79824251939E+02  0.64439016506E+02  0.13011458095E+03  0.79103160921E+02 0.  0.
          5    1    3    3  501    0  0.48370388098E+02 -0.80960256058E+02  0.32612000252E+01  0.94482712341E+02  0.47000000000E+01 0. -1.
        -13    1    4    4    0    0  0.18776728000E+01 -0.19147337098E+02 -0.84162227460E+02  0.86333230590E+02  0.00000000000E+00 0.  1.
         14    1    4    4    0    0  0.24593062737E+02  0.28996265649E+02 -0.75944752433E+01  0.38772131881E+02  0.00000000000E+00 0. -1.
         -5    1    5    5    0  502 -0.87014704131E+02 -0.87129244320E+01  0.67164326230E+02  0.11036580315E+03  0.47000000000E+01 0.  1.
         13    1    6    6    0    0 -0.10971054286E+02 -0.10448990922E+02 -0.25224689914E+01  0.15359306405E+02  0.00000000000E+00 0. -1.
        -14    1    6    6    0    0  0.23144634782E+02  0.90273242861E+02  0.66961485497E+02  0.11475527454E+03  0.00000000000E+00 0.  1.
</event>
<event>
12    1  0.1030140E-001  0.1960647E+03  0.7818608E-02  0.1153119E+00
         21   -1    0    0  503  502  0.00000000000E+00  0.00000000000E+00  0.19505445755E+03  0.19505445755E+03  0.00000000000E+00 0.  1.
         21   -1    0    0  501  503 -0.00000000000E+00 -0.00000000000E+00 -0.22158131625E+03  0.22158131625E+03  0.00000000000E+00 0. -1.
          6    2    1    2  501    0  0.58683362349E+02  0.73069662811E+02 -0.82645812959E+02  0.21277145029E+03  0.17221627977E+03 0.  0.
         24    2    3    3    0    0  0.26491616403E+00  0.96288379930E+02 -0.36842300674E+02  0.13484921073E+03  0.86921989313E+02 0.  0.
         -6    2    1    2    0  502 -0.58683362349E+02 -0.73069662811E+02  0.56118954253E+02  0.20386432352E+03  0.17212905837E+03 0.  0.
        -24    2    5    5    0    0 -0.21575497346E+02 -0.10661802491E+03  0.10235222735E+02  0.13582100597E+03  0.80682591404E+02 0.  0.
          5    1    3    3  501    0  0.58418446185E+02 -0.23218717119E+02 -0.45803512285E+02  0.77922239553E+02  0.47000000000E+01 0. -1.
        -11    1    4    4    0    0 -0.36209366011E+02  0.28796528976E+02  0.65266235052E+01  0.46722104858E+02  0.00000000000E+00 0.  1.
         12    1    4    4    0    0  0.36474282175E+02  0.67491850954E+02 -0.43368924179E+02  0.88127105875E+02  0.00000000000E+00 0. -1.
         -5    1    5    5    0  502 -0.37107865003E+02  0.33548362102E+02  0.45883731518E+02  0.68043317547E+02  0.47000000000E+01 0.  1.
         11    1    6    6    0    0 -0.41681222318E+02 -0.25594203683E+02 -0.99968341284E+01  0.49923183479E+02  0.00000000000E+00 0. -1.
        -12    1    6    6    0    0  0.20105724972E+02 -0.81023821231E+02  0.20232056863E+02  0.85897822489E+02  0.00000000000E+00 0.  1.
</event>
<event>
12    1  0.1030140E-001  0.1879108E+03  0.7818608E-02  0.1161005E+00
         21   -1    0    0  503  502  0.00000000000E+00  0.00000000000E+00  0.91128215367E+02  0.91128215367E+02  0.00000000000E+00 0. -1.
         21   -1    0    0  501  503 -0.00000000000E+00 -0.00000000000E+00 -0.48377832535E+03  0.48377832535E+03  0.00000000000E+00 0.  1.
          6    2    1    2  501    0  0.24102720507E+02 -0.72700443617E+02 -0.32951101913E+03  0.37932569560E+03  0.17159305340E+03 0.  0.
         24    2    3    3    0    0  0.37034503531E+02  0.16961395547E+02 -0.21513734451E+03  0.23334657429E+03  0.80667858134E+02 0.  0.
         -6    2    1    2    0  502 -0.24102720507E+02  0.72700443617E+02 -0.63139090858E+02  0.19558084512E+03  0.16852010725E+03 0.  0.
        -24    2    5    5    0    0 -0.59858367660E+02  0.96822515677E+02 -0.33856876069E+02  0.14323699384E+03  0.80080738177E+02 0.  0.
          5    1    3    3  501    0 -0.12931783024E+02 -0.89661839164E+02 -0.11437367461E+03  0.14597912131E+03  0.47000000000E+01 0. -1.
        -13    1    4    4    0    0  0.12647347690E+02  0.48012428798E+01 -0.20310941940E+03  0.20355943503E+03  0.00000000000E+00 0.  1.
         14    1    4    4    0    0  0.24387155841E+02  0.12160152667E+02 -0.12027925108E+02  0.29787139260E+02  0.00000000000E+00 0. -1.
         -5    1    5    5    0  502  0.35755647153E+02 -0.24122072060E+02 -0.29282214789E+02  0.52343851279E+02  0.47000000000E+01 0.  1.
         13    1    6    6    0    0 -0.40938687356E+02  0.91522986258E+02  0.42620387932E+01  0.10035236973E+03  0.00000000000E+00 0. -1.
        -14    1    6    6    0    0 -0.18919680304E+02  0.52995294191E+01 -0.38118914862E+02  0.42884624111E+02  0.00000000000E+00 0.  1.
</event>
<event>
12    1  0.1030140E-001  0.2286458E+03  0.7818608E-02  0.1127736E+00
         21   -1    0    0  503  502  0.00000000000E+00  0.00000000000E+00  0.21281502193E+03  0.21281502193E+03  0.00000000000E+00 0. -1.
         21   -1    0    0  501  503 -0.00000000000E+00 -0.00000000000E+00 -0.31968049426E+03  0.31968049426E+03  0.00000000000E+00 0. -1.
          6    2    1    2  501    0 -0.31900282705E+02  0.14827231596E+03 -0.18234948042E+03  0.29245549402E+03  0.17110398959E+03 0.  0.
         24    2    3    3    0    0 -0.16324698553E+02  0.15587028317E+03 -0.20090157390E+03  0.26663693287E+03  0.78560617452E+02 0.  0.
         -6    2    1    2    0  502  0.31900282705E+02 -0.14827231596E+03  0.75484008092E+02  0.24004002218E+03  0.17005607619E+03 0.  0.
        -24    2    5    5    0    0  0.65517434590E+02 -0.46150068758E+02  0.96705820467E+01  0.11389501307E+03  0.80350424784E+02 0.  0.
          5    1    3    3  501    0 -0.15575584152E+02 -0.75979672090E+01  0.18552093481E+02  0.25818561151E+02  0.47000000000E+01 0. -1.
        -11    1    4    4    0    0  0.13734808299E+02  0.56637437815E+02 -0.27134158178E+02  0.64286132729E+02  0.00000000000E+00 0.  1.
         12    1    4    4    0    0 -0.30059506852E+02  0.99232845358E+02 -0.17376741572E+03  0.20235080014E+03  0.00000000000E+00 0. -1.
         -5    1    5    5    0  502 -0.33617151885E+02 -0.10212224721E+03  0.65813426046E+02  0.12614500911E+03  0.47000000000E+01 0.  1.
         11    1    6    6    0    0 -0.42587209611E+01 -0.31530897126E+02  0.25610000075E+02  0.40843681048E+02  0.00000000000E+00 0. -1.
        -12    1    6    6    0    0  0.69776155551E+02 -0.14619171633E+02 -0.15939418028E+02  0.73051332019E+02  0.00000000000E+00 0.  1.
</event>
<event>
12    1  0.1030140E-001  0.2416323E+03  0.7818608E-02  0.1118869E+00
         21   -1    0    0  501  502  0.00000000000E+00  0.00000000000E+00  0.83516043836E+02  0.83516043836E+02  0.00000000000E+00 0.  1.
         21   -1    0    0  502  503 -0.00000000000E+00 -0.00000000000E+00 -0.71323731277E+03  0.71323731277E+03  0.00000000000E+00 0.  1.
         -6    2    1    2    0  503  0.90532039962E+01 -0.16896015361E+03 -0.37681121828E+03  0.44763027669E+03  0.17250123586E+03 0.  0.
        -24    2    3    3    0    0 -0.15591222421E+02 -0.24164802045E+02 -0.81374384663E+02  0.11766352950E+03  0.79974319762E+02 0.  0.
          6    2    1    2  501    0 -0.90532039962E+01  0.16896015361E+03 -0.25291005065E+03  0.34912307992E+03  0.17115471714E+03 0.  0.
         24    2    5    5    0    0 -0.23537288074E+02  0.18730065125E+03 -0.25243785488E+03  0.32528035537E+03  0.80292596930E+02 0.  0.
          5    1    5    5  501    0  0.14484084078E+02 -0.18340497640E+02 -0.47219577076E+00  0.23842724553E+02  0.47000000000E+01 0. -1.
        -13    1    6    6    0    0 -0.27514077949E+02  0.17829135077E+02 -0.23161613964E+02  0.40141785017E+02  0.00000000000E+00 0.  1.
         14    1    6    6    0    0  0.39767898748E+01  0.16947151617E+03 -0.22927624092E+03  0.28513857035E+03  0.00000000000E+00 0. -1.
         -5    1    3    3    0  503  0.24644426418E+02 -0.14479535156E+03 -0.29543683362E+03  0.32996674718E+03  0.47000000000E+01 0.  1.
         11    1    4    4    0    0 -0.26082178959E+02 -0.46983448499E+02 -0.74066379798E+02  0.91507120534E+02  0.00000000000E+00 0. -1.
        -12    1    4    4    0    0  0.10490956537E+02  0.22818646454E+02 -0.73080048651E+01  0.26156408969E+02  0.00000000000E+00 0.  1.
</event>
<event>
12    1  0.1030140E-001  0.1719807E+03  0.7818608E-02  0.1175979E+00
         21   -1    0    0  501  502  0.00000000000E+00  0.00000000000E+00  0.23244561102E+04  0.23244561102E+04  0.00000000000E+00 0.  1.
         21   -1    0    0  502  503 -0.00000000000E+00 -0.00000000000E+00 -0.56087904529E+02  0.56087904529E+02  0.00000000000E+00 0.  1.
         -6    2    1    2    0  503 -0.10729236377E+02 -0.12561443014E+02  0.86449142705E+02  0.19185761195E+03  0.17047868672E+03 0.  0.
        -24    2    3    3    0    0 -0.53824271450E+02  0.28162634491E+02  0.41305676307E+02  0.11718730262E+03  0.91304538893E+02 0.  0.
          6    2    1    2  501    0  0.10729236377E+02  0.12561443014E+02  0.21819190630E+04  0.21886864028E+04  0.17118547254E+03 0.  0.
         24    2    5    5    0    0  0.40906999661E+02 -0.15848155442E+02  0.80123721102E+03  0.80737460996E+03  0.89152374254E+02 0.  0.
          5    1    5    5  501    0 -0.30177763284E+02  0.28409598456E+02  0.13806818520E+04  0.13813117928E+04  0.47000000000E+01 0. -1.
        -11    1    6    6    0    0  0.25744689209E+02 -0.50818401795E+02  0.58840583527E+03  0.59115710768E+03  0.00000000000E+00 0.  1.
         12    1    6    6    0    0  0.15162310452E+02  0.34970246353E+02  0.21283137575E+03  0.21621750228E+03  0.00000000000E+00 0. -1.
         -5    1    3    3    0  503  0.43095035073E+02 -0.40724077504E+02  0.45143466398E+02  0.74670309326E+02  0.47000000000E+01 0.  1.
         13    1    4    4    0    0  0.12030276698E+02  0.37161567913E+02  0.31126829574E+02  0.49945862757E+02  0.00000000000E+00 0. -1.
        -14    1    4    4    0    0 -0.65854548148E+02 -0.89989334226E+01  0.10178846733E+02  0.67241439867E+02  0.00000000000E+00 0.  1.
</event>
<event>
12    1  0.1030140E-001  0.2488325E+03  0.7818608E-02  0.1114212E+00
         21   -1    0    0  501  502  0.00000000000E+00  0.00000000000E+00  0.14702381883E+03  0.14702381883E+03  0.00000000000E+00 0.  1.
         21   -1    0    0  502  503 -0.00000000000E+00 -0.00000000000E+00 -0.15670927524E+04  0.15670927524E+04  0.00000000000E+00 0. -1.
         -6    2    1    2    0  503  0.75347365151E+02  0.16232564734E+03 -0.14439060337E+04  0.14651901797E+04  0.17288952302E+03 0.  0.
        -24    2    3    3    0    0  0.64712534371E+02  0.27796365033E+02 -0.81134636038E+03  0.81837872510E+03  0.80625499604E+02 0.  0.
          6    2    1    2  501    0 -0.75347365151E+02 -0.16232564734E+03  0.23837100164E+02  0.24892639155E+03  0.17137473514E+03 0.  0.
         24    2    5    5    0    0  0.22694902603E+02 -0.73875824084E+02 -0.13089834173E+02  0.11173548084E+03  0.79629001828E+02 0.  0.
          5    1    5    5  501    0 -0.98042267754E+02 -0.88449823254E+02  0.36926934337E+02  0.13719091070E+03  0.47000000000E+01 0. -1.
        -11    1    6    6    0    0  0.91501756537E+01 -0.87861333544E+02 -0.20871379034E+02  0.90768684630E+02  0.00000000000E+00 0.  1.
         12    1    6    6    0    0  0.13544726949E+02  0.13985509460E+02  0.77815448611E+01  0.20966796212E+02  0.00000000000E+00 0. -1.
         -5    1    3    3    0  503  0.10634830780E+02  0.13452928231E+03 -0.63255967337E+03  0.64681145459E+03  0.47000000000E+01 0.  1.
         11    1    4    4    0    0  0.63753685327E+02  0.40013970603E+02 -0.41042438007E+03  0.41726948365E+03  0.00000000000E+00 0. -1.
        -12    1    4    4    0    0  0.95884904406E+00 -0.12217605570E+02 -0.40092198031E+03  0.40110924145E+03  0.00000000000E+00 0.  1.
</event>
<event>
12    1  0.1030140E-001  0.1774169E+03  0.7818608E-02  0.1170612E+00
         21   -1    0    0  501  502  0.00000000000E+00  0.00000000000E+00  0.22256477218E+02  0.22256477218E+02  0.00000000000E+00 0.  1.
         21   -1    0    0  502  503 -0.00000000000E+00 -0.00000000000E+00 -0.16794631397E+04  0.16794631397E+04  0.00000000000E+00 0.  1.
         -6    2    1    2    0  503  0.71437038025E+00  0.41047155415E+02 -0.11747794226E+04  0.11881007805E+04  0.17260183541E+03 0.  0.
        -24    2    3    3    0    0  0.37202885774E+02  0.35635400406E+02 -0.11048638925E+04  0.11089113229E+04  0.79411363358E+02 0.  0.
          6    2    1    2  501    0 -0.71437038025E+00 -0.41047155415E+02 -0.48242723983E+03  0.51361883636E+03  0.17141437524E+03 0.  0.
         24    2    5    5    0    0  0.86254074028E+01  0.53478478540E+01 -0.10430778675E+03  0.13252024207E+03  0.81107971558E+02 0.  0.
          5    1    5    5  501    0 -0.93397777831E+01 -0.46395003269E+02 -0.37811945307E+03  0.38109859429E+03  0.47000000000E+01 0. -1.
        -13    1    6    6    0    0  0.18917239440E+02  0.10273127419E+02 -0.11493167332E+03  0.11693027250E+03  0.00000000000E+00 0.  1.
         14    1    6    6    0    0 -0.10291832037E+02 -0.49252795649E+01  0.10623886562E+02  0.15589969569E+02  0.00000000000E+00 0. -1.
         -5    1    3    3    0  503 -0.36488515394E+02  0.54117550095E+01 -0.69915530131E+02  0.79189457641E+02  0.47000000000E+01 0.  1.
         13    1    4    4    0    0  0.38862238103E+02  0.26274050084E+02 -0.27355597212E+03  0.27754903916E+03  0.00000000000E+00 0. -1.
        -14    1    4    4    0    0 -0.16593523295E+01  0.93613503216E+01 -0.83130792039E+03  0.83136228375E+03  0.00000000000E+00 0.  1.
</event>
<event>
12    1  0.1030140E-001  0.1756783E+03  0.7818608E-02  0.1172086E+00
         21   -1    0    0  501  502  0.00000000000E+00  0.00000000000E+00  0.83925523735E+02  0.83925523735E+02  0.00000000000E+00 0.  1.
         21   -1    0    0  502  503 -0.00000000000E+00 -0.00000000000E+00 -0.38606926196E+03  0.38606926196E+03  0.00000000000E+00 0.  1.
         -6    2    1    2    0  503  0.13561682523E+02  0.30313246134E+02 -0.99425012153E+02  0.20174536479E+03  0.17237472857E+03 0.  0.
        -24    2    3    3    0    0  0.75718338456E+02  0.34291873176E+02 -0.86132293871E+02  0.13788563014E+03  0.68443229089E+02 0.  0.
          6    2    1    2  501    0 -0.13561682523E+02 -0.30313246134E+02 -0.20271872608E+03  0.26824942091E+03  0.17251103672E+03 0.  0.
         24    2    5    5    0    0  0.42751657694E+02 -0.26314542746E+02 -0.51637776331E+02  0.10689662331E+03  0.78995371612E+02 0.  0.
          5    1    5    5  501    0 -0.56313340216E+02 -0.39987033876E+01 -0.15108094974E+03  0.16135279759E+03  0.47000000000E+01 0. -1.
        -13    1    6    6    0    0  0.32239087932E+02 -0.52879522905E+02 -0.47454306995E+02  0.78022522298E+02  0.00000000000E+00 0.  1.
         14    1    6    6    0    0  0.10512569762E+02  0.26564980159E+02 -0.41834693361E+01  0.28874101017E+02  0.00000000000E+00 0. -1.
         -5    1    3    3    0  503 -0.62156655934E+02 -0.39786270424E+01 -0.13292718282E+02  0.63859734648E+02  0.47000000000E+01 0.  1.
         11    1    4    4    0    0  0.45613563745E+02 -0.50813253649E+01 -0.98900238877E+01  0.46949224035E+02  0.00000000000E+00 0. -1.
        -12    1    4    4    0    0  0.30104774711E+02  0.39373198541E+02 -0.76242269983E+02  0.90936406109E+02  0.00000000000E+00 0.  1.
</event>
<event>
12    1  0.1030140E-001  0.2064375E+03  0.7818608E-02  0.1147284E+00
         21   -1    0    0  503  502  0.00000000000E+00  0.00000000000E+00  0.21062081459E+03  0.21062081459E+03  0.00000000000E+00 0.  1.
         21   -1    0    0  501  503 -0.00000000000E+00 -0.00000000000E+00 -0.23767731567E+03  0.23767731567E+03  0.00000000000E+00 0.  1.
          6    2    1    2  501    0 -0.88353378479E+02  0.35218988074E+01 -0.11436120549E+03  0.22415858573E+03  0.17131801708E+03 0.  0.
         24    2    3    3    0    0 -0.14282173223E+01 -0.71551249133E+01 -0.35512434580E+01  0.82840079640E+02  0.82441687558E+02 0.  0.
         -6    2    1    2    0  502  0.88353378479E+02 -0.35218988074E+01  0.87304704414E+02  0.22413954453E+03  0.18654141832E+03 0.  0.
        -24    2    5    5    0    0  0.11447793731E+03  0.47414415825E+02  0.58020930953E+02  0.15966761180E+03  0.82304270054E+02 0.  0.
          5    1    3    3  501    0 -0.86925161157E+02  0.10677023721E+02 -0.11080996203E+03  0.14131850609E+03  0.47000000000E+01 0. -1.
        -13    1    4    4    0    0 -0.30360291273E+02  0.23958073074E+02 -0.97987717794E+01  0.39896772802E+02  0.00000000000E+00 0.  1.
         14    1    4    4    0    0  0.28932073951E+02 -0.31113197987E+02  0.62475283214E+01  0.42943306838E+02  0.00000000000E+00 0. -1.
         -5    1    5    5    0  502 -0.26124558832E+02 -0.50936314633E+02  0.29283773461E+02  0.64471932735E+02  0.47000000000E+01 0.  1.
         13    1    6    6    0    0  0.48567288672E+02  0.49294979229E+02 -0.37683868642E+01  0.69303515392E+02  0.00000000000E+00 0. -1.
        -14    1    6    6    0    0  0.65910648638E+02 -0.18805634034E+01  0.61789317817E+02  0.90364096404E+02  0.00000000000E+00 0.  1.
</event>
<event>
12    1  0.1030140E-001  0.2655719E+03  0.7818608E-02  0.1103927E+00
         21   -1    0    0  503  502  0.00000000000E+00  0.00000000000E+00  0.28423885455E+03  0.28423885455E+03  0.00000000000E+00 0.  1.
         21   -1    0    0  501  503 -0.00000000000E+00 -0.00000000000E+00 -0.11578920214E+04  0.11578920214E+04  0.00000000000E+00 0. -1.
          6    2    1    2  501    0  0.14871297809E+03  0.13732939614E+03 -0.10760679360E+04  0.11082144554E+04  0.17100340147E+03 0.  0.
         24    2    3    3    0    0  0.90000956844E+02  0.16227419179E+02 -0.36614373407E+03  0.38563072130E+03  0.79286303009E+02 0.  0.
         -6    2    1    2    0  502 -0.14871297809E+03 -0.13732939614E+03  0.20241476921E+03  0.33391642051E+03  0.17191138471E+03 0.  0.
        -24    2    5    5    0    0 -0.13466482645E+03 -0.16872508445E+03  0.17378416250E+03  0.28891818222E+03  0.81670136988E+02 0.  0.
          5    1    3    3  501    0  0.58712021249E+02  0.12110197697E+03 -0.70992420197E+03  0.72258373412E+03  0.47000000000E+01 0. -1.
        -11    1    4    4    0    0  0.23779959053E+02 -0.99177301794E+01 -0.23499667473E+03  0.23640491738E+03  0.00000000000E+00 0.  1.
         12    1    4    4    0    0  0.66220997791E+02  0.26145149359E+02 -0.13114705933E+03  0.14922580392E+03  0.00000000000E+00 0. -1.
         -5    1    5    5    0  502 -0.14048151640E+02  0.31395688304E+02  0.28630606705E+02  0.44998238286E+02  0.47000000000E+01 0.  1.
         13    1    6    6    0    0  0.22208747190E+01  0.67161802915E+01  0.90794343441E+00  0.71318807832E+01  0.00000000000E+00 0. -1.
        -14    1    6    6    0    0 -0.13688570117E+03 -0.17544126474E+03  0.17287621907E+03  0.28178630144E+03  0.00000000000E+00 0.  1.
</event>
<event>
12    1  0.1030140E-001  0.2592385E+03  0.7818608E-02  0.1107626E+00
         21   -1    0    0  503  502  0.00000000000E+00  0.00000000000E+00  0.46638262775E+02  0.46638262775E+02  0.00000000000E+00 0. -1.
         21   -1    0    0  501  503 -0.00000000000E+00 -0.00000000000E+00 -0.14425508289E+04  0.14425508289E+04  0.00000000000E+00 0.  1.
          6    2    1    2  501    0  0.19199056708E+03 -0.26477060862E+02 -0.66722741024E+03  0.71581913982E+03  0.17217204003E+03 0.  0.
         24    2    3    3    0    0  0.13884556423E+03 -0.83802825594E+02 -0.45726319133E+03  0.49172608359E+03  0.80024439115E+02 0.  0.
         -6    2    1    2    0  502 -0.19199056708E+03  0.26477060862E+02 -0.72868515587E+03  0.77336995183E+03  0.17192327769E+03 0.  0.
        -24    2    5    5    0    0 -0.87729187684E+02  0.45340244497E+02 -0.56285659834E+03  0.57652621832E+03  0.76307155445E+02 0.  0.
          5    1    3    3  501    0  0.53145002850E+02  0.57325764732E+02 -0.20996421891E+03  0.22409305623E+03  0.47000000000E+01 0. -1.
        -11    1    4    4    0    0  0.77574308788E+02 -0.10869768994E+02 -0.13944248760E+03  0.15993790235E+03  0.00000000000E+00 0.  1.
         12    1    4    4    0    0  0.61271255442E+02 -0.72933056600E+02 -0.31782070373E+03  0.33178818124E+03  0.00000000000E+00 0. -1.
         -5    1    5    5    0  502 -0.10426137940E+03 -0.18863183636E+02 -0.16582855752E+03  0.19684373351E+03  0.47000000000E+01 0.  1.
         11    1    6    6    0    0 -0.85897572670E+02  0.10693192494E+02 -0.33303030607E+03  0.34409580369E+03  0.00000000000E+00 0. -1.
        -12    1    6    6    0    0 -0.18316150141E+01  0.34647052003E+02 -0.22982629227E+03  0.23243041463E+03  0.00000000000E+00 0.  1.
</event>
<event>
12    1  0.1030140E-001  0.1792990E+03  0.7818608E-02  0.1168883E+00
         21   -1    0    0  503  502  0.00000000000E+00  0.00000000000E+00  0.18390244027E+03  0.18390244027E+03  0.00000000000E+00 0.  1.
         21   -1    0    0  501  503 -0.00000000000E+00 -0.00000000000E+00 -0.36384932783E+03  0.36384932783E+03  0.00000000000E+00 0.  1.
          6    2    1    2  501    0 -0.39797356885E+02 -0.15082344675E+02 -0.28840722634E+03  0.33959810866E+03  0.17417474118E+03 0.  0.
         24    2    3    3    0    0 -0.14805664706E+01 -0.14382161795E+02 -0.47579274385E+02  0.95694727939E+02  0.81759739171E+02 0.  0.
         -6    2    1    2    0  502  0.39797356885E+02  0.15082344675E+02  0.10846033878E+03  0.20815365944E+03  0.17249056239E+03 0.  0.
        -24    2    5    5    0    0  0.54747369939E+02  0.56523048924E+02  0.27917582973E+02  0.11622944950E+03  0.80856440173E+02 0.  0.
          5    1    3    3  501    0 -0.38316790415E+02 -0.70018288032E+00 -0.24082795195E+03  0.24390338072E+03  0.47000000000E+01 0. -1.
        -11    1    4    4    0    0  0.78038822117E+00 -0.45084447055E+02 -0.46671899223E+02  0.64895936307E+02  0.00000000000E+00 0.  1.
         12    1    4    4    0    0 -0.22609546917E+01  0.30702285260E+02 -0.90737516180E+00  0.30798791632E+02  0.00000000000E+00 0. -1.
         -5    1    5    5    0  502 -0.14950013053E+02 -0.41440704249E+02  0.80542755810E+02  0.91924209936E+02  0.47000000000E+01 0.  1.
         11    1    6    6    0    0  0.12959999226E+02  0.55298880457E+02 -0.12416738766E+02  0.58138654623E+02  0.00000000000E+00 0. -1.
        -12    1    6    6    0    0  0.41787370712E+02  0.12241684670E+01  0.40334321739E+02  0.58090794879E+02  0.00000000000E+00 0.  1.
</event>
<event>
12    1  0.1030140E-001  0.1934997E+03  0.7818608E-02  0.1155654E+00
         21   -1    0    0  503  502  0.00000000000E+00  0.00000000000E+00  0.33659708525E+03  0.33659708525E+03  0.00000000000E+00 0.  1.
         21   -1    0    0  501  503 -0.00000000000E+00 -0.00000000000E+00 -0.15041247255E+03  0.15041247255E+03  0.00000000000E+00 0.  1.
          6    2    1    2  501    0  0.87840254646E+02  0.28811548997E+01 -0.32205896332E+02  0.19616154900E+03  0.17238886901E+03 0.  0.
         24    2    3    3    0    0  0.29027056254E+02  0.31349540707E+02 -0.75171610505E+02  0.11781881552E+03  0.80032109597E+02 0.  0.
         -6    2    1    2    0  502 -0.87840254646E+02 -0.28811548997E+01  0.21839050903E+03  0.29084800879E+03  0.17080380087E+03 0.  0.
        -24    2    5    5    0    0 -0.16232452672E+02  0.55459120430E+02  0.12744432992E+03  0.16113847744E+03  0.79902097116E+02 0.  0.
          5    1    3    3  501    0  0.58813198391E+02 -0.28468385807E+02  0.42965714173E+02  0.78342733485E+02  0.47000000000E+01 0. -1.
        -11    1    4    4    0    0  0.39171394051E+02 -0.13816977368E+02 -0.50417901529E+02  0.65324358168E+02  0.00000000000E+00 0.  1.
         12    1    4    4    0    0 -0.10144337796E+02  0.45166518075E+02 -0.24753708977E+02  0.52494457349E+02  0.00000000000E+00 0. -1.
         -5    1    5    5    0  502 -0.71607801974E+02 -0.58340275330E+02  0.90946179111E+02  0.12970953135E+03  0.47000000000E+01 0.  1.
         11    1    6    6    0    0 -0.21037228102E+02 -0.29759647043E+01  0.43759859380E+00  0.21251184077E+02  0.00000000000E+00 0. -1.
        -12    1    6    6    0    0  0.48047754301E+01  0.58435085135E+02  0.12700673133E+03  0.13988729336E+03  0.00000000000E+00 0.  1.
</event>
<event>
12    1  0.1030140E-001  0.2471689E+03  0.7818608E-02  0.1115119E+00
         21   -1    0    0  501  502  0.00000000000E+00  0.00000000000E+00  0.97247359603E+02  0.97247359603E+02  0.00000000000E+00 0. -1.
         21   -1    0    0  502  503 -0.00000000000E+00 -0.00000000000E+00 -0.68517555651E+03  0.68517555651E+03  0.00000000000E+00 0.  1.
         -6    2    1    2    0  503  0.32784366948E+02  0.17422279435E+03 -0.40697621547E+03  0.47615344386E+03  0.17223259085E+03 0.  0.
        -24    2    3    3    0    0 -0.64385585440E+00  0.13764005118E+02 -0.16024964857E+03  0.17990935879E+03  0.80607475625E+02 0.  0.
          6    2    1    2  501    0 -0.32784366948E+02 -0.17422279435E+03 -0.18095198143E+03  0.30626947225E+03  0.17213068658E+03 0.  0.
         24    2    5    5    0    0 -0.38580912053E+02 -0.18065047661E+02 -0.86012025526E+02  0.12336368499E+03  0.77496435517E+02 0.  0.
          5    1    5    5  501    0  0.57965451051E+01 -0.15615774669E+03 -0.94939955908E+02  0.18290578726E+03  0.47000000000E+01 0. -1.
        -13    1    6    6    0    0 -0.36297540012E+02 -0.10309153702E+02 -0.77195310640E+00  0.37741038308E+02  0.00000000000E+00 0.  1.
         14    1    6    6    0    0 -0.22833720409E+01 -0.77558939592E+01 -0.85240072419E+02  0.85622646683E+02  0.00000000000E+00 0. -1.
         -5    1    3    3    0  503  0.33428222803E+02  0.16045878923E+03 -0.24672656691E+03  0.29624408507E+03  0.47000000000E+01 0.  1.
         13    1    4    4    0    0 -0.10803373530E+02  0.44704085361E+02 -0.68105096998E+02  0.82179513047E+02  0.00000000000E+00 0. -1.
        -14    1    4    4    0    0  0.10159517676E+02 -0.30940080243E+02 -0.92144551568E+02  0.97729845741E+02  0.00000000000E+00 0.  1.
</event>
<event>
12    1  0.1030140E-001  0.1771266E+03  0.7818608E-02  0.1171509E+00
         21   -1    0    0  503  502  0.00000000000E+00  0.00000000000E+00  0.13213003124E+03  0.13213003124E+03  0.00000000000E+00 0.  1.
         21   -1    0    0  501  503 -0.00000000000E+00 -0.00000000000E+00 -0.29209600611E+03  0.29209600611E+03  0.00000000000E+00 0.  1.
          6    2    1    2  501    0  0.25924237715E+02  0.12256818267E+02  0.15039606314E+02  0.17776396361E+03  0.17478999201E+03 0.  0.
         24    2    3    3    0    0  0.57064947165E+01 -0.43035357958E+02  0.55556747371E+02  0.10614196557E+03  0.79340774892E+02 0.  0.
         -6    2    1    2    0  502 -0.25924237715E+02 -0.12256818267E+02 -0.17500558118E+03  0.24646207374E+03  0.17115579059E+03 0.  0.
        -24    2    5    5    0    0  0.30551249577E+02 -0.14331073714E+02 -0.48318530108E+02  0.10766192205E+03  0.90098005434E+02 0.  0.
          5    1    3    3  501    0  0.20217742999E+02  0.55292176225E+02 -0.40517141057E+02  0.71621998039E+02  0.47000000000E+01 0. -1.
        -11    1    4    4    0    0  0.14705436392E+02  0.14674131631E+02  0.40977832032E+02  0.45943037738E+02  0.00000000000E+00 0.  1.
         12    1    4    4    0    0 -0.89989416752E+01 -0.57709489588E+02  0.14578915339E+02  0.60198927833E+02  0.00000000000E+00 0. -1.
         -5    1    5    5    0  502 -0.56475487292E+02  0.20742554468E+01 -0.12668705107E+03  0.13880015169E+03  0.47000000000E+01 0.  1.
         13    1    6    6    0    0 -0.95586414742E+01 -0.32495380303E+02  0.93187276727E+01  0.35130557259E+02  0.00000000000E+00 0. -1.
        -14    1    6    6    0    0  0.40109891051E+02  0.18164306589E+02 -0.57637257781E+02  0.72531364791E+02  0.00000000000E+00 0.  1.
</event>
<event>
12    1  0.1030140E-001  0.2602184E+03  0.7818608E-02  0.1107257E+00
         21   -1    0    0  501  502  0.00000000000E+00  0.00000000000E+00  0.27975350174E+03  0.27975350174E+03  0.00000000000E+00 0.  1.
         21   -1    0    0  502  503 -0.00000000000E+00 -0.00000000000E+00 -0.30339076478E+03  0.30339076478E+03  0.00000000000E+00 0.  1.
         -6    2    1    2    0  503 -0.13820308604E+03 -0.13566446762E+03 -0.14456033392E+03  0.29767652403E+03  0.17380644996E+03 0.  0.
        -24    2    3    3    0    0 -0.16848188219E+03 -0.97039629279E+02 -0.12488914667E+03  0.24459423657E+03  0.80163628486E+02 0.  0.
          6    2    1    2  501    0  0.13820308604E+03  0.13566446762E+03  0.12092307088E+03  0.28546774249E+03  0.17136073694E+03 0.  0.
         24    2    5    5    0    0  0.15839112503E+03  0.14690132980E+03  0.91100105822E+02  0.24745033549E+03  0.79149795120E+02 0.  0.
          5    1    5    5  501    0 -0.20188038991E+02 -0.11236862179E+02  0.29822965058E+02  0.38017406997E+02  0.47000000000E+01 0. -1.
        -11    1    6    6    0    0  0.18514809635E+02  0.38026902970E+02 -0.99034469948E+01  0.43438713007E+02  0.00000000000E+00 0.  1.
         12    1    6    6    0    0  0.13987631540E+03  0.10887442683E+03  0.10100355282E+03  0.20401162248E+03  0.00000000000E+00 0. -1.
         -5    1    3    3    0  503  0.30278796152E+02 -0.38624838345E+02 -0.19671187251E+02  0.53082287455E+02  0.47000000000E+01 0.  1.
         11    1    4    4    0    0 -0.21845528190E+02 -0.37735137636E+02 -0.89398981304E+00  0.43611545858E+02  0.00000000000E+00 0. -1.
        -12    1    4    4    0    0 -0.14663635400E+03 -0.59304491643E+02 -0.12399515685E+03  0.20098269072E+03  0.00000000000E+00 0.  1.
</event>
<event>
12    1  0.1030140E-001  0.2091306E+03  0.7818608E-02  0.1142513E+00
         21   -1    0    0  503  502  0.00000000000E+00  0.00000000000E+00  0.66793660864E+02  0.66793660864E+02  0.00000000000E+00 0. -1.
         21   -1    0    0  501  503 -0.00000000000E+00 -0.00000000000E+00 -0.18205253730E+04  0.18205253730E+04  0.00000000000E+00 0. -1.
          6    2    1    2  501    0  0.34873791470E+02 -0.11126899199E+03 -0.16323220196E+04  0.16455011036E+04  0.17205155157E+03 0.  0.
         24    2    3    3    0    0  0.84811952310E+02 -0.10145849296E+03 -0.12918737894E+04  0.13012379002E+04  0.82433561355E+02 0.  0.
         -6    2    1    2    0  502 -0.34873791470E+02  0.11126899199E+03 -0.12140969250E+03  0.24181793022E+03  0.17360480418E+03 0.  0.
        -24    2    5    5    0    0 -0.18542201174E+02  0.13826862935E+03 -0.61512526341E+02  0.17395437761E+03  0.83751462704E+02 0.  0.
          5    1    3    3  501    0 -0.49938160840E+02 -0.98104990354E+01 -0.34044823020E+03  0.34426320345E+03  0.47000000000E+01 0. -1.
        -13    1    4    4    0    0  0.18971224557E+02  0.22495724111E+01 -0.45452230200E+03  0.45492361002E+03  0.00000000000E+00 0.  1.
         14    1    4    4    0    0  0.65840727753E+02 -0.10370806537E+03 -0.83735148743E+03  0.84631429018E+03  0.00000000000E+00 0. -1.
         -5    1    5    5    0  502 -0.16331590296E+02 -0.26999637359E+02 -0.59897166162E+02  0.67863552614E+02  0.47000000000E+01 0.  1.
         11    1    6    6    0    0 -0.16068521357E+02  0.31761288288E+02  0.19064139030E+02  0.40378437430E+02  0.00000000000E+00 0. -1.
        -12    1    6    6    0    0 -0.24736798169E+01  0.10650734106E+03 -0.80576665371E+02  0.13357594018E+03  0.00000000000E+00 0.  1.
</event>
<event>
12    1  0.1030140E-001  0.2097492E+03  0.7818608E-02  0.1141808E+00
         21   -1    0    0  501  502  0.00000000000E+00  0.00000000000E+00  0.25971704757E+02  0.25971704757E+02  0.00000000000E+00 0.  1.
         21   -1    0    0  502  503 -0.00000000000E+00 -0.00000000000E+00 -0.16922596717E+04  0.16922596717E+04  0.00000000000E+00 0.  1.
         -6    2    1    2    0  503 -0.58362868690E+02  0.10453767569E+03 -0.82765401546E+03  0.85381843281E+03  0.17222194057E+03 0.  0.
        -24    2    3    3    0    0  0.35589353244E+02  0.58017836901E+02 -0.41791275949E+03  0.43085141015E+03  0.79681814891E+02 0.  0.
          6    2    1    2  501    0  0.58362868690E+02 -0.10453767569E+03 -0.83863395148E+03  0.86441294365E+03  0.17195488505E+03 0.  0.
         24    2    5    5    0    0  0.15147484796E+02 -0.13347291820E+03 -0.58711928606E+03  0.60753450044E+03  0.79653292273E+02 0.  0.
          5    1    5    5  501    0  0.43215383894E+02  0.28935242518E+02 -0.25151466543E+03  0.25687844322E+03  0.47000000000E+01 0. -1.
        -11    1    6    6    0    0  0.17192292457E+02 -0.12414744067E+02 -0.21880293436E+03  0.21982817125E+03  0.00000000000E+00 0.  1.
         12    1    6    6    0    0 -0.20448076612E+01 -0.12105817414E+03 -0.36831635169E+03  0.38770632918E+03  0.00000000000E+00 0. -1.
         -5    1    3    3    0  503 -0.93952221933E+02  0.46519838785E+02 -0.40974125597E+03  0.42296702265E+03  0.47000000000E+01 0.  1.
         13    1    4    4    0    0  0.53112665048E+02  0.37643712589E+02 -0.17971579158E+03  0.19114332327E+03  0.00000000000E+00 0. -1.
        -14    1    4    4    0    0 -0.17523311804E+02  0.20374124312E+02 -0.23819696791E+03  0.23970808689E+03  0.00000000000E+00 0.  1.
</event>
<event>
12    1  0.1030140E-001  0.1860839E+03  0.7818608E-02  0.1164677E+00
         21   -1    0    0  501  502  0.00000000000E+00  0.00000000000E+00  0.88913357566E+03  0.88913357566E+03  0.00000000000E+00 0.  1.
         21   -1    0    0  502  503 -0.00000000000E+00 -0.00000000000E+00 -0.36735836511E+02  0.36735836511E+02  0.00000000000E+00 0.  1.
         -6    2    1    2    0  503 -0.33894905743E+02 -0.61376573150E+02  0.39433807543E+03  0.43145473973E+03  0.16042046731E+03 0.  0.
        -24    2    3    3    0    0  0.23292384690E+02 -0.19614255863E+02  0.11297484225E+03  0.14127921299E+03  0.79178575534E+02 0.  0.
          6    2    1    2  501    0  0.33894905743E+02  0.61376573150E+02  0.45805966372E+03  0.49441467244E+03  0.17236955774E+03 0.  0.
         24    2    5    5    0    0 -0.40746815777E+02  0.19596665095E+02  0.16815719418E+03  0.19211932158E+03  0.81170558035E+02 0.  0.
          5    1    5    5  501    0  0.74641721520E+02  0.41779908055E+02  0.28990246954E+03  0.30229535086E+03  0.47000000000E+01 0. -1.
        -13    1    6    6    0    0 -0.97811026664E+01  0.26464642650E+02  0.86811476384E+01  0.29519647767E+02  0.00000000000E+00 0.  1.
         14    1    6    6    0    0 -0.30965713110E+02 -0.68679775552E+01  0.15947604654E+03  0.16259967381E+03  0.00000000000E+00 0. -1.
         -5    1    3    3    0  503 -0.57187290434E+02 -0.41762317287E+02  0.28136323318E+03  0.29017552674E+03  0.47000000000E+01 0.  1.
         13    1    4    4    0    0 -0.79644402001E+01  0.20928377584E+02  0.67918901147E+01  0.23399980071E+02  0.00000000000E+00 0. -1.
        -14    1    4    4    0    0  0.31256824890E+02 -0.40542633447E+02  0.10618295214E+03  0.11787923292E+03  0.00000000000E+00 0.  1.
</event>
<event>
12    1  0.1030140E-001  0.2392903E+03  0.7818608E-02  0.1120482E+00
         21   -1    0    0  501  502  0.00000000000E+00  0.00000000000E+00  0.27773586077E+03  0.27773586077E+03  0.00000000000E+00 0.  1.
         21   -1    0    0  502  503 -0.00000000000E+00 -0.00000000000E+00 -0.22262193696E+03  0.22262193696E+03  0.00000000000E+00 0. -1.
         -6    2    1    2    0  503  0.46581032934E+02 -0.15840603027E+03  0.97755725159E+02  0.25729781370E+03  0.17141680221E+03 0.  0.
        -24    2    3    3    0    0  0.17522912234E+02 -0.66638241695E+02  0.11784314263E+03  0.15885343479E+03  0.81238536237E+02 0.  0.
          6    2    1    2  501    0 -0.46581032934E+02  0.15840603027E+03 -0.42641801342E+02  0.24305998403E+03  0.17319806454E+03 0.  0.
         24    2    5    5    0    0 -0.62962888485E+02  0.73401317644E+02  0.26166689963E+02  0.13237635906E+03  0.86525869064E+02 0.  0.
          5    1    5    5  501    0  0.16381855552E+02  0.85004712624E+02 -0.68808491305E+02  0.11068362496E+03  0.47000000000E+01 0. -1.
        -11    1    6    6    0    0 -0.59569224965E+02  0.79245519727E+02 -0.61807617918E+01  0.99330492680E+02  0.00000000000E+00 0.  1.
         12    1    6    6    0    0 -0.33936635200E+01 -0.58442020827E+01  0.32347451755E+02  0.33045866384E+02  0.00000000000E+00 0. -1.
         -5    1    3    3    0  503  0.29058120700E+02 -0.91767788573E+02 -0.20087417473E+02  0.98444378910E+02  0.47000000000E+01 0.  1.
         13    1    4    4    0    0 -0.19206744775E+02  0.80471740062E+01  0.38990009705E+02  0.44202679909E+02  0.00000000000E+00 0. -1.
        -14    1    4    4    0    0  0.36729657009E+02 -0.74685415701E+02  0.78853132927E+02  0.11465075488E+03  0.00000000000E+00 0.  1.
</event>
<event>
12    1  0.1030140E-001  0.1819515E+03  0.7818608E-02  0.1166066E+00
         21   -1    0    0  503  502  0.00000000000E+00  0.00000000000E+00  0.38908990238E+02  0.38908990238E+02  0.00000000000E+00 0. -1.
         21   -1    0    0  501  503 -0.00000000000E+00 -0.00000000000E+00 -0.85263484483E+03  0.85263484483E+03  0.00000000000E+00 0. -1.
          6    2    1    2  501    0  0.20472056080E+02 -0.54355218519E+02 -0.37519857785E+03  0.41698960857E+03  0.17243191692E+03 0.  0.
         24    2    3    3    0    0  0.64715518129E+02 -0.15360836050E+02 -0.31239213108E+03  0.33070643783E+03  0.85754596881E+02 0.  0.
         -6    2    1    2    0  502 -0.20472056080E+02  0.54355218519E+02 -0.43852727675E+03  0.47455422650E+03  0.17181951746E+03 0.  0.
        -24    2    5    5    0    0  0.21845646130E+02 -0.22899828548E+01 -0.35979492458E+03  0.36862812001E+03  0.77148083783E+02 0.  0.
          5    1    3    3  501    0 -0.44243462048E+02 -0.38994382468E+02 -0.62806446765E+02  0.86283170742E+02  0.47000000000E+01 0. -1.
        -13    1    4    4    0    0  0.34463894192E+02 -0.48989425596E+02 -0.21730183603E+03  0.22540588228E+03  0.00000000000E+00 0.  1.
         14    1    4    4    0    0  0.30251623937E+02  0.33628589545E+02 -0.95090295050E+02  0.10530055555E+03  0.00000000000E+00 0. -1.
         -5    1    5    5    0  502 -0.42317702211E+02  0.56645201373E+02 -0.78732352167E+02  0.10592610649E+03  0.47000000000E+01 0.  1.
         13    1    6    6    0    0 -0.12316028239E+02 -0.27198301605E+02 -0.23448697161E+03  0.23638014303E+03  0.00000000000E+00 0. -1.
        -14    1    6    6    0    0  0.34161674370E+02  0.24908318750E+02 -0.12530795297E+03  0.13224797698E+03  0.00000000000E+00 0.  1.
</event>
<event>
12    1  0.1030140E-001  0.1796801E+03  0.7818608E-02  0.1169188E+00
         21   -1    0    0  503  502  0.00000000000E+00  0.00000000000E+00  0.59196043613E+03  0.59196043613E+03  0.00000000000E+00 0. -1.
         21   -1    0    0  501  503 -0.00000000000E+00 -0.00000000000E+00 -0.79484577017E+02  0.79484577017E+02  0.00000000000E+00 0. -1.
          6    2    1    2  501    0 -0.36402006071E+02 -0.46998934456E+01  0.61144869784E+02  0.18566253985E+03  0.17141962711E+03 0.  0.
         24    2    3    3    0    0 -0.47873877107E+02 -0.14252447789E+02  0.10447931950E+03  0.13958847283E+03  0.77935698925E+02 0.  0.
         -6    2    1    2    0  502  0.36402006071E+02  0.46998934456E+01  0.45133098933E+03  0.48578247330E+03  0.17589131413E+03 0.  0.
        -24    2    5    5    0    0  0.33988827948E+02  0.71750141520E+02  0.28213687220E+03  0.30371023910E+03  0.79595046597E+02 0.  0.
          5    1    3    3  501    0  0.11471871037E+02  0.95525543431E+01 -0.43334449716E+02  0.46074067020E+02  0.47000000000E+01 0. -1.
        -11    1    4    4    0    0 -0.22326944841E+01  0.25841826924E+02  0.11160229870E+02  0.28237132896E+02  0.00000000000E+00 0.  1.
         12    1    4    4    0    0 -0.45641182623E+02 -0.40094274713E+02  0.93319089630E+02  0.11135133993E+03  0.00000000000E+00 0. -1.
         -5    1    5    5    0  502  0.24131781222E+01 -0.67050248074E+02  0.16919411713E+03  0.18207223420E+03  0.47000000000E+01 0.  1.
         11    1    6    6    0    0 -0.15035299275E+01  0.76496332817E+02  0.19814095463E+03  0.21240006459E+03  0.00000000000E+00 0. -1.
        -12    1    6    6    0    0  0.35492357876E+02 -0.47461912974E+01  0.83995917572E+02  0.91310174505E+02  0.00000000000E+00 0.  1.
</event>
<event>
12    1  0.1030140E-001  0.1990952E+03  0.7818608E-02  0.1150721E+00
         21   -1    0    0  503  502  0.00000000000E+00  0.00000000000E+00  0.60654591320E+02  0.60654591320E+02  0.00000000000E+00 0.  1.
         21   -1    0    0  501  503 -0.00000000000E+00 -0.00000000000E+00 -0.91017438205E+03  0.91017438205E+03  0.00000000000E+00 0. -1.
          6    2    1    2  501    0  0.94042592321E+02  0.29815626457E+02 -0.68341603319E+03  0.71154273309E+03  0.17176322609E+03 0.  0.
         24    2    3    3    0    0  0.60223983804E+02  0.79871059595E+02 -0.55707189267E+03  0.57142072728E+03  0.78652651401E+02 0.  0.
         -6    2    1    2    0  502 -0.94042592321E+02 -0.29815626457E+02 -0.16610375754E+03  0.25928624028E+03  0.17293326857E+03 0.  0.
        -24    2    5    5    0    0 -0.11808543694E+03  0.20058806643E+02 -0.11065860386E+03  0.18078928161E+03  0.78057104717E+02 0.  0.
          5    1    3    3  501    0  0.33818608517E+02 -0.50055433138E+02 -0.12634414052E+03  0.14012200581E+03  0.47000000000E+01 0. -1.
        -13    1    4    4    0    0  0.70910087458E+02  0.32756096201E+02 -0.31169890407E+03  0.32133690908E+03  0.00000000000E+00 0.  1.
         14    1    4    4    0    0 -0.10686103655E+02  0.47114963393E+02 -0.24537298860E+03  0.25008381819E+03  0.00000000000E+00 0. -1.
         -5    1    5    5    0  502  0.24042844614E+02 -0.49874433099E+02 -0.55445153682E+02  0.78496958673E+02  0.47000000000E+01 0.  1.
         13    1    6    6    0    0 -0.84805018567E+02 -0.22824737765E+02 -0.77862065181E+02  0.11736848394E+03  0.00000000000E+00 0. -1.
        -14    1    6    6    0    0 -0.33280418368E+02  0.42883544408E+02 -0.32796538676E+02  0.63420797668E+02  0.00000000000E+00 0.  1.
</event>
<event>
12    1  0.1030140E-001  0.2623360E+03  0.7818608E-02  0.1105769E+00
         21   -1    0    0  501  502  0.00000000000E+00  0.00000000000E+00  0.19777462296E+03  0.19777462296E+03  0.00000000000E+00 0.  1.
         21   -1    0    0  502  503 -0.00000000000E+00 -0.00000000000E+00 -0.41785035715E+03  0.41785035715E+03  0.00000000000E+00 0.  1.
         -6    2    1    2    0  503 -0.23438041331E+02 -0.19635749069E+03 -0.23605905802E+03  0.35280249609E+03  0.17216305191E+03 0.  0.
        -24    2    3    3    0    0 -0.51583956344E+02 -0.46303943312E+02 -0.12377629186E+03  0.16322990000E+03  0.80737042980E+02 0.  0.
          6    2    1    2  501    0  0.23438041331E+02  0.19635749069E+03  0.15983323834E+02  0.26282248402E+03  0.17237919114E+03 0.  0.
         24    2    5    5    0    0 -0.32099804643E+02  0.18743817828E+03  0.14553519346E+02  0.20635886025E+03  0.78795343402E+02 0.  0.
          5    1    5    5  501    0  0.55537845975E+02  0.89193124061E+01  0.14298044876E+01  0.56463623778E+02  0.47000000000E+01 0. -1.
        -13    1    6    6    0    0 -0.15875802222E+02  0.10125597406E+03  0.47127275799E+02  0.11280865881E+03  0.00000000000E+00 0.  1.
         14    1    6    6    0    0 -0.16224002422E+02  0.86182204224E+02 -0.32573756452E+02  0.93550201437E+02  0.00000000000E+00 0. -1.
         -5    1    3    3    0  503  0.28145915012E+02 -0.15005354737E+03 -0.11228276616E+03  0.18957259609E+03  0.47000000000E+01 0.  1.
         13    1    4    4    0    0  0.19353455498E+02  0.13268491560E+01 -0.13097543809E+02  0.23406461121E+02  0.00000000000E+00 0. -1.
        -14    1    4    4    0    0 -0.70937411841E+02 -0.47630792468E+02 -0.11067874805E+03  0.13982343888E+03  0.00000000000E+00 0.  1.
</event>
<event>
12    1  0.1030140E-001  0.1990643E+03  0.7818608E-02  0.1152524E+00
         21   -1    0    0  501  502  0.00000000000E+00  0.00000000000E+00  0.50312931491E+03  0.50312931491E+03  0.00000000000E+00 0.  1.
         21   -1    0    0  502  503 -0.00000000000E+00 -0.00000000000E+00 -0.88735530948E+02  0.88735530948E+02  0.00000000000E+00 0. -1.
         -6    2    1    2    0  503  0.14645984411E+02 -0.77275075727E+02  0.31870739401E+03  0.37099727488E+03  0.17285436872E+03 0.  0.
        -24    2    3    3    0    0  0.23773207311E+02 -0.72032120402E+01  0.63531924324E+02  0.10617661366E+03  0.81364096698E+02 0.  0.
          6    2    1    2  501    0 -0.14645984411E+02  0.77275075727E+02  0.95686389952E+02  0.22086757097E+03  0.18286786623E+03 0.  0.
         24    2    5    5    0    0  0.51958504333E+02  0.76287463665E+02  0.94210901760E+02  0.15407385597E+03  0.79646693582E+02 0.  0.
          5    1    5    5  501    0 -0.66604488745E+02  0.98761206164E+00  0.14754881922E+01  0.66793715003E+02  0.47000000000E+01 0. -1.
        -13    1    6    6    0    0 -0.15882934072E+02  0.41431123175E+02  0.45615875511E+02  0.63636574868E+02  0.00000000000E+00 0.  1.
         14    1    6    6    0    0  0.67841438405E+02  0.34856340490E+02  0.48595026249E+02  0.90437281103E+02  0.00000000000E+00 0. -1.
         -5    1    3    3    0  503 -0.91272228998E+01 -0.70071863686E+02  0.25517546969E+03  0.26482066122E+03  0.47000000000E+01 0.  1.
         11    1    4    4    0    0  0.16298445663E+02  0.31400594503E+02  0.55849950619E+02  0.66112431889E+02  0.00000000000E+00 0. -1.
        -12    1    4    4    0    0  0.74747616481E+01 -0.38603806543E+02  0.76819737045E+01  0.40064181775E+02  0.00000000000E+00 0.  1.
</event>
<event>
12    1  0.1030140E-001  0.1907032E+03  0.7818608E-02  0.1158006E+00
         21   -1    0    0  501  502  0.00000000000E+00  0.00000000000E+00  0.34629359736E+02  0.34629359736E+02  0.00000000000E+00 0.  1.
         21   -1    0    0  502  503 -0.00000000000E+00 -0.00000000000E+00 -0.11208938184E+04  0.11208938184E+04  0.00000000000E+00 0. -1.
         -6    2    1    2    0  503  0.76732337017E+02 -0.27884427559E+02 -0.69366471515E+03  0.71940145138E+03  0.17234360550E+03 0.  0.
        -24    2    3    3    0    0  0.31129091643E+02 -0.83662806393E+02 -0.43172803021E+03  0.44769609543E+03  0.77937258570E+02 0.  0.
          6    2    1    2  501    0 -0.76732337017E+02  0.27884427559E+02 -0.39259974350E+03  0.43612172674E+03  0.17147072373E+03 0.  0.
         24    2    5    5    0    0  0.10143895237E+02  0.54412028757E+02 -0.17151848754E+03  0.19706063603E+03  0.79691500304E+02 0.  0.
          5    1    5    5  501    0 -0.86876232254E+02 -0.26527601197E+02 -0.22108125596E+03  0.23906109071E+03  0.47000000000E+01 0. -1.
        -11    1    6    6    0    0  0.72518993295E+01  0.73032872685E+02 -0.10630205309E+03  0.12917630211E+03  0.00000000000E+00 0.  1.
         12    1    6    6    0    0  0.28919959074E+01 -0.18620843928E+02 -0.65216434453E+02  0.67884333920E+02  0.00000000000E+00 0. -1.
         -5    1    3    3    0  503  0.45603245374E+02  0.55778378834E+02 -0.26193668494E+03  0.27170535595E+03  0.47000000000E+01 0.  1.
         11    1    4    4    0    0 -0.76947619646E+00 -0.37729365443E+02 -0.32519232655E+03  0.32737462693E+03  0.00000000000E+00 0. -1.
        -12    1    4    4    0    0  0.31898567840E+02 -0.45933440950E+02 -0.10653570367E+03  0.12032146851E+03  0.00000000000E+00 0.  1.
</event>
<event>
12    1  0.1030140E-001  0.1805433E+03  0.7818608E-02  0.1170238E+00
         21   -1    0    0  501  502  0.00000000000E+00  0.00000000000E+00  0.40328448698E+02  0.40328448698E+02  0.00000000000E+00 0.  1.
         21   -1    0    0  502  503 -0.00000000000E+00 -0.00000000000E+00 -0.90605415709E+03  0.90605415709E+03  0.00000000000E+00 0.  1.
         -6    2    1    2    0  503  0.22237769607E+00 -0.12131186310E+02 -0.63751513351E+03  0.66258691003E+03  0.18013509585E+03 0.  0.
        -24    2    3    3    0    0  0.64588513566E+02  0.67316604765E+01 -0.26991843885E+03  0.28889154431E+03  0.79908506467E+02 0.  0.
          6    2    1    2  501    0 -0.22237769607E+00  0.12131186310E+02 -0.22821057488E+03  0.28379569575E+03  0.16826382650E+03 0.  0.
         24    2    5    5    0    0  0.21590404954E+02  0.12735536764E+02 -0.24299178853E+03  0.25702375142E+03  0.79924089091E+02 0.  0.
          5    1    5    5  501    0 -0.21812782650E+02 -0.60435045362E+00  0.14781213652E+02  0.26771944334E+02  0.47000000000E+01 0. -1.
        -13    1    6    6    0    0  0.27127599882E+02 -0.68124814407E+01 -0.23325004326E+02  0.36419396008E+02  0.00000000000E+00 0.  1.
         14    1    6    6    0    0 -0.55371949283E+01  0.19548018205E+02 -0.21966678420E+03  0.22060435541E+03  0.00000000000E+00 0. -1.
         -5    1    3    3    0  503 -0.64366135870E+02 -0.18862846787E+02 -0.36759669467E+03  0.37369536573E+03  0.47000000000E+01 0.  1.
         11    1    4    4    0    0 -0.40001513347E+01  0.28844281737E+02 -0.55324980373E+02  0.62520774571E+02  0.00000000000E+00 0. -1.
        -12    1    4    4    0    0  0.68588664901E+02 -0.22112621260E+02 -0.21459345847E+03  0.22637076974E+03  0.00000000000E+00 0.  1.
</event>
<event>
12    1  0.1030140E-001  0.2043486E+03  0.7818608E-02  0.1146126E+00
         21   -1    0    0  501  502  0.00000000000E+00  0.00000000000E+00  0.22733386263E+03  0.22733386263E+03  0.00000000000E+00 0. -1.
         21   -1    0    0  502  503 -0.00000000000E+00 -0.00000000000E+00 -0.47981990804E+03  0.47981990804E+03  0.00000000000E+00 0. -1.
         -6    2    1    2    0  503  0.59485430761E+02  0.92990342052E+02 -0.40402202306E+03  0.45274958318E+03  0.17193798233E+03 0.  0.
        -24    2    3    3    0    0  0.68844256959E+02  0.12892085856E+03 -0.33052864068E+03  0.37027560609E+03  0.80589842188E+02 0.  0.
          6    2    1    2  501    0 -0.59485430761E+02 -0.92990342052E+02  0.15153597765E+03  0.25440418748E+03  0.17196690931E+03 0.  0.
         24    2    5    5    0    0 -0.52738000225E+01 -0.10099133794E+03  0.54212400668E+02  0.14261471803E+03  0.84693034588E+02 0.  0.
          5    1    5    5  501    0 -0.54211630738E+02  0.80009958905E+01  0.97323576981E+02  0.11178946945E+03  0.47000000000E+01 0. -1.
        -11    1    6    6    0    0  0.10105563108E+02 -0.12414715645E+02 -0.20297108668E+02  0.25849955330E+02  0.00000000000E+00 0.  1.
         12    1    6    6    0    0 -0.15379363131E+02 -0.88576622298E+02  0.74509509336E+02  0.11676476270E+03  0.00000000000E+00 0. -1.
         -5    1    3    3    0  503 -0.93588261981E+01 -0.35930516509E+02 -0.73493382377E+02  0.82473977094E+02  0.47000000000E+01 0.  1.
         13    1    4    4    0    0  0.13755028231E+02  0.72964691101E+02 -0.23590514806E+03  0.24731414402E+03  0.00000000000E+00 0. -1.
        -14    1    4    4    0    0  0.55089228728E+02  0.55956167460E+02 -0.94623492620E+02  0.12296146207E+03  0.00000000000E+00 0.  1.
</event>
<event>
12    1  0.1030140E-001  0.1800386E+03  0.7818608E-02  0.1167909E+00
         21   -1    0    0  503  502  0.00000000000E+00  0.00000000000E+00  0.38991637955E+02  0.38991637955E+02  0.00000000000E+00 0.  1.
         21   -1    0    0  501  503 -0.00000000000E+00 -0.00000000000E+00 -0.10320417868E+04  0.10320417868E+04  0.00000000000E+00 0.  1.
          6    2    1    2  501    0 -0.23804461460E+02  0.47805207813E+02 -0.73364444634E+03  0.75527211857E+03  0.17131786005E+03 0.  0.
         24    2    3    3    0    0  0.16641813397E+02  0.80991788055E+02 -0.36736727928E+03  0.38524738512E+03  0.81364673985E+02 0.  0.
         -6    2    1    2    0  502  0.23804461460E+02 -0.47805207813E+02 -0.25940570252E+03  0.31576130619E+03  0.17193572552E+03 0.  0.
        -24    2    5    5    0    0 -0.40554606068E+02 -0.54905255848E+02 -0.94659096452E+02  0.13868495411E+03  0.74926021937E+02 0.  0.
          5    1    3    3  501    0 -0.40446274857E+02 -0.33186580242E+02 -0.36627716706E+03  0.37002473345E+03  0.47000000000E+01 0. -1.
        -13    1    4    4    0    0  0.20588600136E+02 -0.11121986871E+02 -0.62184219550E+02  0.66441449477E+02  0.00000000000E+00 0.  1.
         14    1    4    4    0    0 -0.39467867390E+01  0.92113774926E+02 -0.30518305973E+03  0.31880593564E+03  0.00000000000E+00 0. -1.
         -5    1    5    5    0  502  0.64359067528E+02  0.71000480350E+01 -0.16474660607E+03  0.17707635208E+03  0.47000000000E+01 0.  1.
         11    1    6    6    0    0 -0.15133548136E+02 -0.93067135553E+01 -0.83409651277E+02  0.85280766428E+02  0.00000000000E+00 0. -1.
        -12    1    6    6    0    0 -0.25421057932E+02 -0.45598542293E+02 -0.11249445175E+02  0.53404187685E+02  0.00000000000E+00 0.  1.
</event>
<event>
12    1  0.1030140E-001  0.2135675E+03  0.7818608E-02  0.1138854E+00
         21   -1    0    0  501  502  0.00000000000E+00  0.00000000000E+00  0.31531348943E+03  0.31531348943E+03  0.00000000000E+00 0.  1.
         21   -1    0    0  502  503 -0.00000000000E+00 -0.00000000000E+00 -0.17279321223E+03  0.17279321223E+03  0.00000000000E+00 0. -1.
         -6    2    1    2    0  503 -0.30432869096E+02 -0.12224157477E+03  0.17018844454E+03  0.27275438386E+03  0.17193511897E+03 0.  0.
        -24    2    3    3    0    0 -0.25701736917E+02 -0.13698496459E+03  0.77450267447E+02  0.17861506877E+03  0.80494341782E+02 0.  0.
          6    2    1    2  501    0  0.30432869096E+02  0.12224157477E+03 -0.27668167333E+02  0.21535231780E+03  0.17245849117E+03 0.  0.
         24    2    5    5    0    0  0.40928288091E+02  0.53223433304E+01  0.10378777436E+02  0.91861749308E+02  0.81408905289E+02 0.  0.
          5    1    5    5  501    0 -0.10495418995E+02  0.11691923144E+03 -0.38046944769E+02  0.12349056850E+03  0.47000000000E+01 0. -1.
        -11    1    6    6    0    0  0.55804721658E+02 -0.21623593266E+02  0.16588821147E+01  0.59870682599E+02  0.00000000000E+00 0.  1.
         12    1    6    6    0    0 -0.14876433567E+02  0.26945936596E+02  0.87198953217E+01  0.31991066709E+02  0.00000000000E+00 0. -1.
         -5    1    3    3    0  503 -0.47311321789E+01  0.14743389818E+02  0.92738177091E+02  0.94139315088E+02  0.47000000000E+01 0.  1.
         11    1    4    4    0    0 -0.32278118982E+02 -0.82440938540E+02  0.63499149377E+01  0.88762079359E+02  0.00000000000E+00 0. -1.
        -12    1    4    4    0    0  0.65763820651E+01 -0.54544026051E+02  0.71100352509E+02  0.89852989410E+02  0.00000000000E+00 0.  1.
</event>
<event>
12    1  0.1030140E-001  0.2227743E+03  0.7818608E-02  0.1131879E+00
         21   -1    0    0  501  502  0.00000000000E+00  0.00000000000E+00  0.18178649645E+04  0.18178649645E+04  0.00000000000E+00 0.  1.
         21   -1    0    0  502  503 -0.00000000000E+00 -0.00000000000E+00 -0.79867707247E+02  0.79867707247E+02  0.00000000000E+00 0.  1.
         -6    2    1    2    0  503 -0.49100534526E+02  0.13344781471E+03  0.98790202266E+02  0.24345694668E+03  0.17115080801E+03 0.  0.
        -24    2    3    3    0    0 -0.67773173823E+02  0.42228545135E+02  0.96113701793E+02  0.15018918025E+03  0.83321624309E+02 0.  0.
          6    2    1    2  501    0  0.49100534526E+02 -0.13344781471E+03  0.16392070550E+04  0.16542757251E+04  0.17149117665E+03 0.  0.
         24    2    5    5    0    0 -0.31243753960E+02 -0.10818552085E+03  0.10013408816E+04  0.10108561626E+04  0.80413563899E+02 0.  0.
          5    1    5    5  501    0  0.80344288486E+02 -0.25262293867E+02  0.63786617338E+03  0.64341956243E+03  0.47000000000E+01 0. -1.
        -13    1    6    6    0    0  0.85240654964E+01 -0.83915198735E+02  0.47270142431E+03  0.48016773820E+03  0.00000000000E+00 0.  1.
         14    1    6    6    0    0 -0.39767819456E+02 -0.24270322112E+02  0.52863945730E+03  0.53068842442E+03  0.00000000000E+00 0. -1.
         -5    1    3    3    0  503  0.18672639297E+02  0.91219269579E+02  0.26765004726E+01  0.93267766434E+02  0.47000000000E+01 0.  1.
         13    1    4    4    0    0 -0.13464831615E+02  0.47800689060E+02  0.78379263941E+02  0.92787480734E+02  0.00000000000E+00 0. -1.
        -14    1    4    4    0    0 -0.54308342209E+02 -0.55721439250E+01  0.17734437852E+02  0.57401699516E+02  0.00000000000E+00 0.  1.
</event>
<event>
12    1  0.1030140E-001  0.1869671E+03  0.7818608E-02  0.1161492E+00
         21   -1    0    0  503  502  0.00000000000E+00  0.00000000000E+00  0.32417926768E+03  0.32417926768E+03  0.00000000000E+00 0.  1.
         21   -1    0    0  501  503 -0.00000000000E+00 -0.00000000000E+00 -0.13050473684E+03  0.13050473684E+03  0.00000000000E+00 0.  1.
          6    2    1    2  501    0  0.47975074229E+02 -0.64571000568E+02  0.45417528874E+00  0.18581448154E+03  0.16749863705E+03 0.  0.
         24    2    3    3    0    0  0.25236904985E+02 -0.10644361286E+03 -0.24241554917E+02  0.13194139836E+03  0.69668755717E+02 0.  0.
         -6    2    1    2    0  502 -0.47975074229E+02  0.64571000568E+02  0.19322035555E+03  0.26886952297E+03  0.16877705034E+03 0.  0.
        -24    2    5    5    0    0 -0.36624963422E+02  0.23887224087E+02  0.20506675083E+03  0.22475125278E+03  0.80924445674E+02 0.  0.
          5    1    3    3  501    0  0.22738169245E+02  0.41872612294E+02  0.24695730206E+02  0.53873083180E+02  0.47000000000E+01 0. -1.
        -13    1    4    4    0    0  0.24501174003E+02 -0.62028996203E+02  0.19616413313E+02  0.69517678103E+02  0.00000000000E+00 0.  1.
         14    1    4    4    0    0  0.73573098133E+00 -0.44414616659E+02 -0.43857968231E+02  0.62423720254E+02  0.00000000000E+00 0. -1.
         -5    1    5    5    0  502 -0.11350110807E+02  0.40683776481E+02 -0.11846395280E+02  0.44118270198E+02  0.47000000000E+01 0.  1.
         11    1    6    6    0    0 -0.31693763911E+02 -0.26076348937E+02  0.10649471375E+03  0.11412972751E+03  0.00000000000E+00 0. -1.
        -12    1    6    6    0    0 -0.49311995114E+01  0.49963573024E+02  0.98572037079E+02  0.11062152526E+03  0.00000000000E+00 0.  1.
</event>
<event>
12    1  0.1030140E-001  0.1808895E+03  0.7818608E-02  0.1166986E+00
         21   -1    0    0  503  502  0.00000000000E+00  0.00000000000E+00  0.74513207023E+03  0.74513207023E+03  0.00000000000E+00 0.  1.
         21   -1    0    0  501  503 -0.00000000000E+00 -0.00000000000E+00 -0.44616519306E+02  0.44616519306E+02  0.00000000000E+00 0.  1.
          6    2    1    2  501    0 -0.27959401356E+02  0.48787232938E+02  0.29906376653E+03  0.34942536328E+03  0.17174698201E+03 0.  0.
         24    2    3    3    0    0  0.18481704529E+02  0.87151082219E+02  0.22535243209E+03  0.25411527948E+03  0.76511254629E+02 0.  0.
         -6    2    1    2    0  502  0.27959401356E+02 -0.48787232938E+02  0.40145178440E+03  0.44032322626E+03  0.17192756082E+03 0.  0.
        -24    2    5    5    0    0  0.28342589103E+02 -0.87254455908E+02  0.37125782917E+03  0.39119442607E+03  0.82365410432E+02 0.  0.
          5    1    3    3  501    0 -0.46441105885E+02 -0.38363849281E+02  0.73711334442E+02  0.95310083793E+02  0.47000000000E+01 0. -1.
        -11    1    4    4    0    0  0.21310393602E+02  0.74066900504E+02  0.91668977449E+02  0.11976326671E+03  0.00000000000E+00 0.  1.
         12    1    4    4    0    0 -0.28286890737E+01  0.13084181715E+02  0.13368345464E+03  0.13435201278E+03  0.00000000000E+00 0. -1.
         -5    1    5    5    0  502 -0.38318774651E+00  0.38467222970E+02  0.30193955224E+02  0.49128800188E+02  0.47000000000E+01 0.  1.
         13    1    6    6    0    0  0.11841049021E+02  0.14519899298E+02  0.81922771194E+02  0.84037957839E+02  0.00000000000E+00 0. -1.
        -14    1    6    6    0    0  0.16501540081E+02 -0.10177435521E+03  0.28933505798E+03  0.30715646823E+03  0.00000000000E+00 0.  1.
</event>
<event>
12    1  0.1030140E-001  0.1985212E+03  0.7818608E-02  0.1152960E+00
         21   -1    0    0  503  502  0.00000000000E+00  0.00000000000E+00  0.64908851188E+02  0.64908851188E+02  0.00000000000E+00 0. -1.
         21   -1    0    0  501  503 -0.00000000000E+00 -0.00000000000E+00 -0.64871765746E+03  0.64871765746E+03  0.00000000000E+00 0. -1.
          6    2    1    2  501    0 -0.79268654174E+02  0.67883560799E+01 -0.41413307274E+03  0.45925685280E+03  0.18188197709E+03 0.  0.
         24    2    3    3    0    0  0.15533905049E+02  0.46767080211E+02 -0.14873508018E+03  0.17457455957E+03  0.76978508542E+02 0.  0.
         -6    2    1    2    0  502  0.79268654174E+02 -0.67883560799E+01 -0.16967573353E+03  0.25436965585E+03  0.17200135452E+03 0.  0.
        -24    2    5    5    0    0  0.10528443870E+03 -0.10183164634E+01 -0.18148415303E+03  0.22484605220E+03  0.80829446293E+02 0.  0.
          5    1    3    3  501    0 -0.94802559223E+02 -0.39978724131E+02 -0.26539799257E+03  0.28468229323E+03  0.47000000000E+01 0. -1.
        -11    1    4    4    0    0 -0.80758160724E+01  0.33576387183E+01  0.69908188652E+01  0.11196610711E+02  0.00000000000E+00 0.  1.
         12    1    4    4    0    0  0.23609721121E+02  0.43409441492E+02 -0.15572589904E+03  0.16337794886E+03  0.00000000000E+00 0. -1.
         -5    1    5    5    0  502 -0.26015784525E+02 -0.57700396164E+01  0.11808419498E+02  0.29523603653E+02  0.47000000000E+01 0.  1.
         11    1    6    6    0    0  0.58530396091E+02 -0.22149664479E+02 -0.39817348382E+02  0.74174363059E+02  0.00000000000E+00 0. -1.
        -12    1    6    6    0    0  0.46754042609E+02  0.21131348016E+02 -0.14166680465E+03  0.15067168914E+03  0.00000000000E+00 0.  1.
</event>
<event>
12    1  0.1030140E-001  0.2373146E+03  0.7818608E-02  0.1122389E+00
         21   -1    0    0  501  502  0.00000000000E+00  0.00000000000E+00  0.11019911986E+04  0.11019911986E+04  0.00000000000E+00 0. -1.
         21   -1    0    0  502  503 -0.00000000000E+00 -0.00000000000E+00 -0.75111603808E+02  0.75111603808E+02  0.00000000000E+00 0.  1.
         -6    2    1    2    0  503  0.12015186890E+03  0.10244607241E+03  0.84960369438E+03  0.88088504109E+03  0.17088109539E+03 0.  0.
        -24    2    3    3    0    0  0.15204494194E+03  0.10057340769E+03  0.76103337267E+03  0.78661167863E+03  0.79708618985E+02 0.  0.
          6    2    1    2  501    0 -0.12015186890E+03 -0.10244607241E+03  0.17727590044E+03  0.29621776134E+03  0.17716249012E+03 0.  0.
         24    2    5    5    0    0 -0.13078192812E+02 -0.70107157511E+02  0.14333709787E+03  0.17923695160E+03  0.80587272766E+02 0.  0.
          5    1    5    5  501    0 -0.10707367609E+03 -0.32338914900E+02  0.33938802569E+02  0.11698080974E+03  0.47000000000E+01 0. -1.
        -11    1    6    6    0    0 -0.65946548466E+01 -0.15176037304E+02 -0.78022772553E+01  0.18294182441E+02  0.00000000000E+00 0.  1.
         12    1    6    6    0    0 -0.64835379653E+01 -0.54931120207E+02  0.15113937512E+03  0.16094276916E+03  0.00000000000E+00 0. -1.
         -5    1    3    3    0  503 -0.31893073041E+02  0.18726647163E+01  0.88570321709E+02  0.94273362457E+02  0.47000000000E+01 0.  1.
         11    1    4    4    0    0  0.12455129707E+03  0.10833151834E+03  0.56884968302E+03  0.59231638956E+03  0.00000000000E+00 0. -1.
        -12    1    4    4    0    0  0.27493644870E+02 -0.77581106487E+01  0.19218368965E+03  0.19429528907E+03  0.00000000000E+00 0.  1.
</event>
<event>
12    1  0.1030140E-001  0.1835635E+03  0.7818608E-02  0.1164505E+00
         21   -1    0    0  503  502  0.00000000000E+00  0.00000000000E+00  0.15969263853E+04  0.15969263853E+04  0.00000000000E+00 0. -1.
         21   -1    0    0  501  503 -0.00000000000E+00 -0.00000000000E+00 -0.33897450319E+02  0.33897450319E+02  0.00000000000E+00 0. -1.
          6    2    1    2  501    0  0.50051998625E+02  0.38811049556E+02  0.28008143842E+03  0.33487485798E+03  0.17229062142E+03 0.  0.
         24    2    3    3    0    0 -0.20290718037E+02  0.38602376854E+02  0.23248386425E+03  0.24981158508E+03  0.80344409655E+02 0.  0.
         -6    2    1    2    0  502 -0.50051998625E+02 -0.38811049556E+02  0.12829474966E+04  0.12959489776E+04  0.17180795545E+03 0.  0.
        -24    2    5    5    0    0 -0.66887538274E+01 -0.28670780127E+02  0.11843213001E+04  0.11876327153E+04  0.83592891152E+02 0.  0.
          5    1    3    3  501    0  0.70342716662E+02  0.20867270193E+00  0.47597574163E+02  0.85063272908E+02  0.47000000000E+01 0. -1.
        -11    1    4    4    0    0 -0.32966339410E+01  0.25309363356E+02  0.22578073494E+03  0.22721877550E+03  0.00000000000E+00 0.  1.
         12    1    4    4    0    0 -0.16994084096E+02  0.13293013498E+02  0.67031293151E+01  0.22592809580E+02  0.00000000000E+00 0. -1.
         -5    1    5    5    0  502 -0.43363244798E+02 -0.10140269429E+02  0.98626196482E+02  0.10831626238E+03  0.47000000000E+01 0.  1.
         13    1    6    6    0    0  0.26516471370E+02 -0.44528633587E+02  0.68832272648E+03  0.69027103246E+03  0.00000000000E+00 0. -1.
        -14    1    6    6    0    0 -0.33205225198E+02  0.15857853460E+02  0.49599857361E+03  0.49736168280E+03  0.00000000000E+00 0.  1.
</event>
<event>
12    1  0.1030140E-001  0.2409445E+03  0.7818608E-02  0.1119185E+00
         21   -1    0    0  501  502  0.00000000000E+00  0.00000000000E+00  0.49843159606E+03  0.49843159606E+03  0.00000000000E+00 0.  1.
         21   -1    0    0  502  503 -0.00000000000E+00 -0.00000000000E+00 -0.26149103595E+03  0.26149103595E+03  0.00000000000E+00 0.  1.
         -6    2    1    2    0  503  0.15482761634E+03 -0.66040893900E+02 -0.16453080069E+03  0.29176125285E+03  0.17239853200E+03 0.  0.
        -24    2    3    3    0    0  0.69677220679E+02 -0.85153641845E+02 -0.47947719184E+02  0.14605747146E+03  0.83233066708E+02 0.  0.
          6    2    1    2  501    0 -0.15482761634E+03  0.66040893900E+02  0.40147136080E+03  0.46816137917E+03  0.17222901310E+03 0.  0.
         24    2    5    5    0    0 -0.14505005659E+03  0.87679168246E+01  0.36112846129E+03  0.39727108281E+03  0.79335694345E+02 0.  0.
          5    1    5    5  501    0 -0.97775597545E+01  0.57272977075E+02  0.40342899508E+02  0.70890296364E+02  0.47000000000E+01 0. -1.
        -11    1    6    6    0    0 -0.12772387175E+03  0.21153129921E+02  0.22583789384E+03  0.26031441876E+03  0.00000000000E+00 0.  1.
         12    1    6    6    0    0 -0.17326184832E+02 -0.12385213096E+02  0.13529056746E+03  0.13695666405E+03  0.00000000000E+00 0. -1.
         -5    1    3    3    0  503  0.85150395661E+02  0.19112747946E+02 -0.11658308151E+03  0.14570378138E+03  0.47000000000E+01 0.  1.
         11    1    4    4    0    0  0.22943557590E+02 -0.23164077801E+02  0.23785793392E+02  0.40357716766E+02  0.00000000000E+00 0. -1.
        -12    1    4    4    0    0  0.46733663089E+02 -0.61989564045E+02 -0.71733512577E+02  0.10569975470E+03  0.00000000000E+00 0.  1.
</event>
<event>
12    1  0.1030140E-001  0.1748791E+03  0.7818608E-02  0.1173082E+00
         21   -1    0    0  501  502  0.00000000000E+00  0.00000000000E+00  0.11759945631E+03  0.11759945631E+03  0.00000000000E+00 0. -1.
         21   -1    0    0  502  503 -0.00000000000E+00 -0.00000000000E+00 -0.56329087377E+03  0.56329087377E+03  0.00000000000E+00 0. -1.
         -6    2    1    2    0  503 -0.23339787534E+02 -0.85931060715E+01 -0.47292064844E+03  0.50390407183E+03  0.17218242285E+03 0.  0.
        -24    2    3    3    0    0 -0.45174545478E+02 -0.13524316276E+02 -0.12727318411E+03  0.15750064650E+03  0.79902087357E+02 0.  0.
          6    2    1    2  501    0  0.23339787534E+02  0.85931060715E+01  0.27229230983E+02  0.17698625825E+03  0.17310146572E+03 0.  0.
         24    2    5    5    0    0  0.49472292470E+01 -0.58952301547E+02 -0.93160678439E-02  0.10172207861E+03  0.82749817257E+02 0.  0.
          5    1    5    5  501    0  0.18392558287E+02  0.67545407618E+02  0.27238547050E+02  0.75264179634E+02  0.47000000000E+01 0. -1.
        -13    1    6    6    0    0 -0.27261005170E+01  0.16425597299E+02 -0.17295609808E+02  0.24007706873E+02  0.00000000000E+00 0.  1.
         14    1    6    6    0    0  0.76733297639E+01 -0.75377898845E+02  0.17286293740E+02  0.77714371742E+02  0.00000000000E+00 0. -1.
         -5    1    3    3    0  503  0.21834757944E+02  0.49312102049E+01 -0.34564746432E+03  0.34640342533E+03  0.47000000000E+01 0.  1.
         11    1    4    4    0    0 -0.55442175704E+02 -0.18595525330E+02 -0.13256155624E+03  0.14488683378E+03  0.00000000000E+00 0. -1.
        -12    1    4    4    0    0  0.10267630226E+02  0.50712090538E+01  0.52883721254E+01  0.12613812725E+02  0.00000000000E+00 0.  1.
</event>
<event>
12    1  0.1030140E-001  0.2059132E+03  0.7818608E-02  0.1146295E+00
         21   -1    0    0  501  502  0.00000000000E+00  0.00000000000E+00  0.18260850146E+03  0.18260850146E+03  0.00000000000E+00 0.  1.
         21   -1    0    0  502  503 -0.00000000000E+00 -0.00000000000E+00 -0.48583166628E+03  0.48583166628E+03  0.00000000000E+00 0.  1.
         -6    2    1    2    0  503  0.35517346809E+02  0.10606415438E+03 -0.39800038682E+03  0.44811220941E+03  0.17288481005E+03 0.  0.
        -24    2    3    3    0    0  0.87243589918E+02  0.47886773843E+02 -0.27187888012E+03  0.29982554014E+03  0.77927158107E+02 0.  0.
          6    2    1    2  501    0 -0.35517346809E+02 -0.10606415438E+03  0.94777221999E+02  0.22032795833E+03  0.16447066803E+03 0.  0.
         24    2    5    5    0    0 -0.78959869565E+02 -0.72253012368E+02  0.32779397032E+02  0.13728419632E+03  0.79481462565E+02 0.  0.
          5    1    5    5  501    0  0.43442522756E+02 -0.33811142016E+02  0.61997824968E+02  0.83043762009E+02  0.47000000000E+01 0. -1.
        -11    1    6    6    0    0 -0.31783825578E+00  0.15207943386E+02  0.75875506987E+01  0.16998631968E+02  0.00000000000E+00 0.  1.
         12    1    6    6    0    0 -0.78642031309E+02 -0.87460955753E+02  0.25191846333E+02  0.12028556435E+03  0.00000000000E+00 0. -1.
         -5    1    3    3    0  503 -0.51726243109E+02  0.58177380542E+02 -0.12612150670E+03  0.14828666928E+03  0.47000000000E+01 0.  1.
         11    1    4    4    0    0  0.27995651611E+01 -0.81522594776E+01  0.10540133435E+01  0.86837689865E+01  0.00000000000E+00 0. -1.
        -12    1    4    4    0    0  0.84444024757E+02  0.56039033320E+02 -0.27293289347E+03  0.29114177115E+03  0.00000000000E+00 0.  1.
</event>
<event>
12    1  0.1030140E-001  0.2354067E+03  0.7818608E-02  0.1122947E+00
         21   -1    0    0  501  502  0.00000000000E+00  0.00000000000E+00  0.41721848090E+02  0.41721848090E+02  0.00000000000E+00 0.  1.
         21   -1    0    0  502  503 -0.00000000000E+00 -0.00000000000E+00 -0.13269456292E+04  0.13269456292E+04  0.00000000000E+00 0. -1.
         -6    2    1    2    0  503  0.40884363675E+02  0.15617626038E+03 -0.65707223025E+03  0.69796864002E+03  0.17132936464E+03 0.  0.
        -24    2    3    3    0    0 -0.44082781192E+02  0.76974979755E+02 -0.29464323321E+03  0.31735186891E+03  0.77647502960E+02 0.  0.
          6    2    1    2  501    0 -0.40884363675E+02 -0.15617626038E+03 -0.62815155087E+03  0.67069883728E+03  0.17088008651E+03 0.  0.
         24    2    5    5    0    0 -0.62301744604E+02 -0.61302598978E+02 -0.20779586491E+03  0.23921221112E+03  0.80024024225E+02 0.  0.
          5    1    5    5  501    0  0.21417380929E+02 -0.94873661400E+02 -0.42035568596E+03  0.43148662616E+03  0.47000000000E+01 0. -1.
        -11    1    6    6    0    0 -0.79257206281E+02 -0.58416599480E+02 -0.19239630194E+03  0.21612621507E+03  0.00000000000E+00 0.  1.
         12    1    6    6    0    0  0.16955461676E+02 -0.28859994976E+01 -0.15399562969E+02  0.23085996045E+02  0.00000000000E+00 0. -1.
         -5    1    3    3    0  503  0.84967144867E+02  0.79201280623E+02 -0.36242899704E+03  0.38061677112E+03  0.47000000000E+01 0.  1.
         13    1    4    4    0    0 -0.74526007344E+00  0.35887233907E+02 -0.21407982668E+03  0.21706824080E+03  0.00000000000E+00 0. -1.
        -14    1    4    4    0    0 -0.43337521118E+02  0.41087745848E+02 -0.80563406529E+02  0.10028362811E+03  0.00000000000E+00 0.  1.
</event>
<event>
12    1  0.1030140E-001  0.1767304E+03  0.7818608E-02  0.1174743E+00
         21   -1    0    0  501  502  0.00000000000E+00  0.00000000000E+00  0.28379358394E+02  0.28379358394E+02  0.00000000000E+00 0. -1.
         21   -1    0    0  502  503 -0.00000000000E+00 -0.00000000000E+00 -0.12266911313E+04  0.12266911313E+04  0.00000000000E+00 0. -1.
         -6    2    1    2    0  503  0.62767658557E+01  0.37930370978E+02 -0.84006491419E+03  0.85560276657E+03  0.15769883728E+03 0.  0.
        -24    2    3    3    0    0  0.47801871095E+02 -0.38992564254E+01 -0.36190215999E+03  0.37379807419E+03  0.80321876121E+02 0.  0.
          6    2    1    2  501    0 -0.62767658557E+01 -0.37930370978E+02 -0.35824685869E+03  0.39946772310E+03  0.17249793971E+03 0.  0.
         24    2    5    5    0    0 -0.65819666644E+02 -0.25143781909E+02 -0.16485185857E+03  0.19665606179E+03  0.80827180303E+02 0.  0.
          5    1    5    5  501    0  0.59542900789E+02 -0.12786589069E+02 -0.19339500012E+03  0.20281166131E+03  0.47000000000E+01 0. -1.
        -13    1    6    6    0    0 -0.42240755073E+02  0.66434029265E+01 -0.14726417717E+03  0.15334651633E+03  0.00000000000E+00 0.  1.
         14    1    6    6    0    0 -0.23578911571E+02 -0.31787184836E+02 -0.17587681402E+02  0.43309545458E+02  0.00000000000E+00 0. -1.
         -5    1    3    3    0  503 -0.41525105239E+02  0.41829627404E+02 -0.47816275420E+03  0.48180469238E+03  0.47000000000E+01 0.  1.
         11    1    4    4    0    0  0.25109991384E+02  0.31015638481E+02 -0.26960390676E+03  0.27254127768E+03  0.00000000000E+00 0. -1.
        -12    1    4    4    0    0  0.22691879711E+02 -0.34914894906E+02 -0.92298253227E+02  0.10125679651E+03  0.00000000000E+00 0.  1.
</event>
<event>
12    1  0.1030140E-001  0.4462833E+03  0.7818608E-02  0.1029014E+00
         21   -1    0    0  501  502  0.00000000000E+00  0.00000000000E+00  0.12852780781E+04  0.12852780781E+04  0.00000000000E+00 0. -1.
         21   -1    0    0  502  503 -0.00000000000E+00 -0.00000000000E+00 -0.17877283559E+03  0.17877283559E+03  0.00000000000E+00 0.  1.
         -6    2    1    2    0  503  0.41127668993E+03 -0.18001635580E+02  0.28030532745E+03  0.52502213197E+03  0.16614628465E+03 0.  0.
        -24    2    3    3    0    0  0.23440925841E+03  0.40721425142E+02  0.11556534670E+03  0.27624143045E+03  0.79674611049E+02 0.  0.
          6    2    1    2  501    0 -0.41127668993E+03  0.18001635580E+02  0.82619991504E+03  0.93902878170E+03  0.17232579230E+03 0.  0.
         24    2    5    5    0    0 -0.21063610095E+03 -0.43981391981E+02  0.36696156038E+03  0.43403323911E+03  0.86151819421E+02 0.  0.
          5    1    5    5  501    0 -0.20064058898E+03  0.61983027561E+02  0.45923835466E+03  0.50499554259E+03  0.47000000000E+01 0. -1.
        -13    1    6    6    0    0 -0.77531018595E+02  0.16222270807E+02  0.83205970099E+02  0.11488017398E+03  0.00000000000E+00 0.  1.
         14    1    6    6    0    0 -0.13310508235E+03 -0.60203662787E+02  0.28375559028E+03  0.31915306512E+03  0.00000000000E+00 0. -1.
         -5    1    3    3    0  503  0.17686743152E+03 -0.58723060722E+02  0.16473998075E+03  0.24878070152E+03  0.47000000000E+01 0.  1.
         11    1    4    4    0    0  0.56736647736E+02  0.31469645816E+02  0.63697329034E+02  0.90921590011E+02  0.00000000000E+00 0. -1.
        -12    1    4    4    0    0  0.17767261067E+03  0.92517793256E+01  0.51868017671E+02  0.18531984044E+03  0.00000000000E+00 0.  1.
</event>
<event>
12    1  0.1030140E-001  0.2149528E+03  0.7818608E-02  0.1137741E+00
         21   -1    0    0  501  502  0.00000000000E+00  0.00000000000E+00  0.20005247435E+03  0.20005247435E+03  0.00000000000E+00 0. -1.
         21   -1    0    0  502  503 -0.00000000000E+00 -0.00000000000E+00 -0.36094975908E+03  0.36094975908E+03  0.00000000000E+00 0. -1.
         -6    2    1    2    0  503  0.11012634732E+03 -0.65680071261E+02 -0.24894150862E+03  0.32890208363E+03  0.17251962719E+03 0.  0.
        -24    2    3    3    0    0  0.11356853703E+03 -0.63430912611E+01 -0.22661847080E+03  0.26523785597E+03  0.77827639830E+02 0.  0.
          6    2    1    2  501    0 -0.11012634732E+03  0.65680071261E+02  0.88044223882E+02  0.23210014980E+03  0.17227016586E+03 0.  0.
         24    2    5    5    0    0 -0.10386679614E+03  0.43221066346E+02 -0.22827921278E+01  0.13869432181E+03  0.81083486889E+02 0.  0.
          5    1    5    5  501    0 -0.62595511814E+01  0.22459004915E+02  0.90327016009E+02  0.93405827998E+02  0.47000000000E+01 0. -1.
        -13    1    6    6    0    0 -0.85854862770E+01  0.41995935853E+02 -0.62757033404E+01  0.43321514923E+02  0.00000000000E+00 0.  1.
         14    1    6    6    0    0 -0.95281309858E+02  0.12251304931E+01  0.39929112126E+01  0.95372806884E+02  0.00000000000E+00 0. -1.
         -5    1    3    3    0  503 -0.34421897166E+01 -0.59336980000E+02 -0.22323037821E+02  0.63664227657E+02  0.47000000000E+01 0.  1.
         13    1    4    4    0    0  0.63033087093E+02 -0.42072555848E+02 -0.13083743583E+03  0.15120087513E+03  0.00000000000E+00 0. -1.
        -14    1    4    4    0    0  0.50535449940E+02  0.35729464587E+02 -0.95781034964E+02  0.11403698084E+03  0.00000000000E+00 0.  1.
</event>
<event>
12    1  0.1030140E-001  0.1788117E+03  0.7818608E-02  0.1169855E+00
         21   -1    0    0  501  502  0.00000000000E+00  0.00000000000E+00  0.26997204270E+03  0.26997204270E+03  0.00000000000E+00 0. -1.
         21   -1    0    0  502  503 -0.00000000000E+00 -0.00000000000E+00 -0.11762806137E+03  0.11762806137E+03  0.00000000000E+00 0.  1.
         -6    2    1    2    0  503 -0.46571555279E+02 -0.15505883798E+02  0.97934887926E+02  0.20069382313E+03  0.16815893130E+03 0.  0.
        -24    2    3    3    0    0 -0.68488218638E+02 -0.15161762960E+02  0.53149401052E+01  0.10539952484E+03  0.78487553796E+02 0.  0.
          6    2    1    2  501    0  0.46571555279E+02  0.15505883798E+02  0.54409093408E+02  0.18690628093E+03  0.17194262477E+03 0.  0.
         24    2    5    5    0    0  0.38366590685E+02  0.33380271298E+02 -0.28030467220E+02  0.10202291196E+03  0.83885217284E+02 0.  0.
          5    1    5    5  501    0  0.82049645943E+01 -0.17874387500E+02  0.82439560629E+02  0.84883368978E+02  0.47000000000E+01 0. -1.
        -13    1    6    6    0    0 -0.16990056063E+02 -0.16425580678E+02 -0.66447956253E+01  0.24548218154E+02  0.00000000000E+00 0.  1.
         14    1    6    6    0    0  0.55356646748E+02  0.49805851976E+02 -0.21385671595E+02  0.77474693802E+02  0.00000000000E+00 0. -1.
         -5    1    3    3    0  503  0.21916663358E+02 -0.34412083788E+00  0.92619947821E+02  0.95294298288E+02  0.47000000000E+01 0.  1.
         13    1    4    4    0    0 -0.22395417140E+02  0.27825772371E+02  0.19643302521E+02  0.40763803194E+02  0.00000000000E+00 0. -1.
        -14    1    4    4    0    0 -0.46092801498E+02 -0.42987535331E+02 -0.14328362416E+02  0.64635721650E+02  0.00000000000E+00 0.  1.
</event>
<event>
12    1  0.1030140E-001  0.2818160E+03  0.7818608E-02  0.1095256E+00
         21   -1    0    0  503  502  0.00000000000E+00  0.00000000000E+00  0.31245300847E+03  0.31245300847E+03  0.00000000000E+00 0. -1.
         21   -1    0    0  501  503 -0.00000000000E+00 -0.00000000000E+00 -0.31645012286E+03  0.31645012286E+03  0.00000000000E+00 0.  1.
          6    2    1    2  501    0  0.22754907163E+02  0.22173048909E+03 -0.14550187873E+03  0.31355591270E+03  0.16572361957E+03 0.  0.
         24    2    3    3    0    0 -0.43721295173E+02  0.12450262126E+03 -0.11316703894E+03  0.19132671969E+03  0.79916710465E+02 0.  0.
         -6    2    1    2    0  502 -0.22754907163E+02 -0.22173048909E+03  0.14150476435E+03  0.31534721863E+03  0.17244730897E+03 0.  0.
        -24    2    5    5    0    0 -0.31705323402E+02 -0.20688870275E+03  0.17032072532E+03  0.28139374783E+03  0.79781758467E+02 0.  0.
          5    1    3    3  501    0  0.66476202336E+02  0.97227867833E+02 -0.32334839789E+02  0.12222919301E+03  0.47000000000E+01 0. -1.
        -13    1    4    4    0    0  0.12723755033E+02  0.80529027434E+02 -0.48382684963E+02  0.94803493637E+02  0.00000000000E+00 0.  1.
         14    1    4    4    0    0 -0.56445050206E+02  0.43973593825E+02 -0.64784353982E+02  0.96523226052E+02  0.00000000000E+00 0. -1.
         -5    1    5    5    0  502  0.89504162392E+01 -0.14841786343E+02 -0.28815960976E+02  0.33953470804E+02  0.47000000000E+01 0.  1.
         11    1    6    6    0    0  0.25285743282E+02 -0.75171872389E+02  0.74610290853E+02  0.10888927731E+03  0.00000000000E+00 0. -1.
        -12    1    6    6    0    0 -0.56991066685E+02 -0.13171683036E+03  0.95710434471E+02  0.17250447052E+03  0.00000000000E+00 0.  1.
</event>
<event>
12    1  0.1030140E-001  0.1855639E+03  0.7818608E-02  0.1162559E+00
         21   -1    0    0  503  502  0.00000000000E+00  0.00000000000E+00  0.24985389117E+02  0.24985389117E+02  0.00000000000E+00 0. -1.
         21   -1    0    0  501  503 -0.00000000000E+00 -0.00000000000E+00 -0.15112122429E+04  0.15112122429E+04  0.00000000000E+00 0. -1.
          6    2    1    2  501    0 -0.63961350403E+02  0.25193472266E+02 -0.97170368183E+03  0.98923504663E+03  0.17219804533E+03 0.  0.
         24    2    3    3    0    0 -0.48965384252E+02  0.40168457659E+02 -0.27380344278E+03  0.29099729138E+03  0.75498241498E+02 0.  0.
         -6    2    1    2    0  502  0.63961350403E+02 -0.25193472266E+02 -0.51452317198E+03  0.54696258541E+03  0.17236069722E+03 0.  0.
        -24    2    5    5    0    0  0.10501802185E+03 -0.36093230895E+02 -0.29703059919E+03  0.32531068664E+03  0.72583467534E+02 0.  0.
          5    1    3    3  501    0 -0.14995966151E+02 -0.14974985393E+02 -0.69790023905E+03  0.69823775525E+03  0.47000000000E+01 0. -1.
        -11    1    4    4    0    0 -0.22635095911E+02 -0.21660454554E+02 -0.84812227807E+02  0.90413698320E+02  0.00000000000E+00 0.  1.
         12    1    4    4    0    0 -0.26330288341E+02  0.61828912213E+02 -0.18899121497E+03  0.20058359306E+03  0.00000000000E+00 0. -1.
         -5    1    5    5    0  502 -0.41056671448E+02  0.10899758628E+02 -0.21749257279E+03  0.22165189877E+03  0.47000000000E+01 0.  1.
         13    1    6    6    0    0  0.90829479253E+02 -0.53965611455E+02 -0.20662214315E+03  0.23206678255E+03  0.00000000000E+00 0. -1.
        -14    1    6    6    0    0  0.14188542598E+02  0.17872380561E+02 -0.90408456035E+02  0.93243904094E+02  0.00000000000E+00 0.  1.
</event>
<event>
12    1  0.1030140E-001  0.1882326E+03  0.7818608E-02  0.1160509E+00
         21   -1    0    0  503  502  0.00000000000E+00  0.00000000000E+00  0.23548309385E+03  0.23548309385E+03  0.00000000000E+00 0.  1.
         21   -1    0    0  501  503 -0.00000000000E+00 -0.00000000000E+00 -0.18171780420E+03  0.18171780420E+03  0.00000000000E+00 0.  1.
          6    2    1    2  501    0 -0.73212115142E+02  0.21487453618E+02 -0.61849884017E+02  0.19629736364E+03  0.16995741335E+03 0.  0.
         24    2    3    3    0    0  0.23842824552E+01 -0.36985761913E+02 -0.44649383340E+02  0.99076586602E+02  0.80305486693E+02 0.  0.
         -6    2    1    2    0  502  0.73212115142E+02 -0.21487453618E+02  0.11561517367E+03  0.22090353441E+03  0.17207492167E+03 0.  0.
        -24    2    5    5    0    0  0.66512916662E+02  0.46450241929E+02  0.42295096960E+02  0.12061229160E+03  0.78592980602E+02 0.  0.
          5    1    3    3  501    0 -0.75596397597E+02  0.58473215531E+02 -0.17200500677E+02  0.97220777038E+02  0.47000000000E+01 0. -1.
        -13    1    4    4    0    0  0.13735283718E+02  0.22782656121E+02 -0.69123753613E+01  0.27486148727E+02  0.00000000000E+00 0.  1.
         14    1    4    4    0    0 -0.11351001263E+02 -0.59768418034E+02 -0.37737007979E+02  0.71590437875E+02  0.00000000000E+00 0. -1.
         -5    1    5    5    0  502  0.66991984796E+01 -0.67937695547E+02  0.73320076706E+02  0.10029124281E+03  0.47000000000E+01 0.  1.
         11    1    6    6    0    0  0.47042694544E+02 -0.91279270102E+00 -0.92519016620E+01  0.47952538878E+02  0.00000000000E+00 0. -1.
        -12    1    6    6    0    0  0.19470222119E+02  0.47363034630E+02  0.51546998622E+02  0.72659752722E+02  0.00000000000E+00 0.  1.
</event>
<event>
12    1  0.1030140E-001  0.1812611E+03  0.7818608E-02  0.1166770E+00
         21   -1    0    0  503  502  0.00000000000E+00  0.00000000000E+00  0.23321710732E+03  0.23321710732E+03  0.00000000000E+00 0. -1.
         21   -1    0    0  501  503 -0.00000000000E+00 -0.00000000000E+00 -0.20994903672E+03  0.20994903672E+03  0.00000000000E+00 0. -1.
          6    2    1    2  501    0 -0.48390233518E+02 -0.23812021215E+02 -0.11601370578E+03  0.21457260357E+03  0.17226025432E+03 0.  0.
         24    2    3    3    0    0 -0.96337933595E+02 -0.12547427913E+02 -0.10446673625E+03  0.16376615210E+03  0.80421503318E+02 0.  0.
         -6    2    1    2    0  502  0.48390233518E+02  0.23812021215E+02  0.13928177638E+03  0.22859354047E+03  0.17305191839E+03 0.  0.
        -24    2    5    5    0    0  0.23225747726E+02 -0.42858044209E+02  0.29725229208E+02  0.97815575973E+02  0.79423235521E+02 0.  0.
          5    1    3    3  501    0  0.47947700076E+02 -0.11264593302E+02 -0.11546969537E+02  0.50806451464E+02  0.47000000000E+01 0. -1.
        -11    1    4    4    0    0 -0.69448051421E+02 -0.38843248924E+02 -0.96929603697E+02  0.12540804562E+03  0.00000000000E+00 0.  1.
         12    1    4    4    0    0 -0.26889882173E+02  0.26295821011E+02 -0.75371325500E+01  0.38358106484E+02  0.00000000000E+00 0. -1.
         -5    1    5    5    0  502  0.25164485792E+02  0.66670065424E+02  0.10955654718E+03  0.13077796450E+03  0.47000000000E+01 0.  1.
         11    1    6    6    0    0  0.15200796052E+02 -0.59546450812E+02  0.43022219982E+02  0.75018367198E+02  0.00000000000E+00 0. -1.
        -12    1    6    6    0    0  0.80249516737E+01  0.16688406603E+02 -0.13296990774E+02  0.22797208775E+02  0.00000000000E+00 0.  1.
</event>
<event>
12    1  0.1030140E-001  0.3301117E+03  0.7818608E-02  0.1071219E+00
         21   -1    0    0  501  502  0.00000000000E+00  0.00000000000E+00  0.40880537282E+03  0.40880537282E+03  0.00000000000E+00 0. -1.
         21   -1    0    0  502  503 -0.00000000000E+00 -0.00000000000E+00 -0.32734531056E+03  0.32734531056E+03  0.00000000000E+00 0.  1.
         -6    2    1    2    0  503 -0.10860318412E+03  0.26010847372E+03 -0.11906210206E+03  0.35092662541E+03  0.17182154281E+03 0.  0.
        -24    2    3    3    0    0 -0.57915719405E+02  0.23216006208E+03 -0.14364344016E+03  0.28786582162E+03  0.70574559007E+02 0.  0.
          6    2    1    2  501    0  0.10860318412E+03 -0.26010847372E+03  0.20052216431E+03  0.38522405797E+03  0.16952099208E+03 0.  0.
         24    2    5    5    0    0  0.31971073928E+02 -0.10460265037E+03  0.15583880513E+03  0.20613404151E+03  0.79004087569E+02 0.  0.
          5    1    5    5  501    0  0.76632110187E+02 -0.15550582335E+03  0.44683359186E+02  0.17909001646E+03  0.47000000000E+01 0. -1.
        -13    1    6    6    0    0 -0.20134340238E+02 -0.49626643764E+02  0.36586238193E+02  0.64859449992E+02  0.00000000000E+00 0.  1.
         14    1    6    6    0    0  0.52105414167E+02 -0.54976006609E+02  0.11925256694E+03  0.14127459152E+03  0.00000000000E+00 0. -1.
         -5    1    3    3    0  503 -0.50687464710E+02  0.27948411640E+02  0.24581338096E+02  0.63060803789E+02  0.47000000000E+01 0.  1.
         13    1    4    4    0    0 -0.11468653964E+02  0.13105017142E+02  0.61380450163E+01  0.18464752765E+02  0.00000000000E+00 0. -1.
        -14    1    4    4    0    0 -0.46447065441E+02  0.21905504494E+03 -0.14978148518E+03  0.26940106886E+03  0.00000000000E+00 0.  1.
</event>
<event>
12    1  0.1030140E-001  0.3788212E+03  0.7818608E-02  0.1051537E+00
         21   -1    0    0  503  502  0.00000000000E+00  0.00000000000E+00  0.67774313891E+03  0.67774313891E+03  0.00000000000E+00 0. -1.
         21   -1    0    0  501  503 -0.00000000000E+00 -0.00000000000E+00 -0.31445696435E+03  0.31445696435E+03  0.00000000000E+00 0.  1.
          6    2    1    2  501    0  0.22726405771E+03  0.24657752139E+03 -0.10298527843E+03  0.39257033736E+03  0.17622734242E+03 0.  0.
         24    2    3    3    0    0  0.23890649538E+03  0.25682632664E+03 -0.11019181352E+03  0.37483313036E+03  0.72949052506E+02 0.  0.
         -6    2    1    2    0  502 -0.22726405771E+03 -0.24657752139E+03  0.46627145299E+03  0.59962976590E+03  0.17232922650E+03 0.  0.
        -24    2    5    5    0    0 -0.20105625900E+03 -0.26307652922E+03  0.45156798987E+03  0.56502705214E+03  0.75558193891E+02 0.  0.
          5    1    3    3  501    0 -0.11642437670E+02 -0.10248805251E+02  0.72065350824E+01  0.17737206992E+02  0.47000000000E+01 0. -1.
        -11    1    4    4    0    0  0.47034261239E+02  0.14924999721E+02 -0.11270989343E+02  0.50616326889E+02  0.00000000000E+00 0.  1.
         12    1    4    4    0    0  0.19187223414E+03  0.24190132692E+03 -0.98920824174E+02  0.32421680348E+03  0.00000000000E+00 0. -1.
         -5    1    5    5    0  502 -0.26207798708E+02  0.16499007825E+02  0.14703463117E+02  0.34602713766E+02  0.47000000000E+01 0.  1.
         11    1    6    6    0    0 -0.50733320009E+02 -0.73243221201E+02  0.18222111625E+03  0.20283731022E+03  0.00000000000E+00 0. -1.
        -12    1    6    6    0    0 -0.15032293899E+03 -0.18983330802E+03  0.26934687362E+03  0.36218974191E+03  0.00000000000E+00 0.  1.
</event>
<event>
12    1  0.1030140E-001  0.1825196E+03  0.7818608E-02  0.1165571E+00
         21   -1    0    0  503  502  0.00000000000E+00  0.00000000000E+00  0.93539635248E+02  0.93539635248E+02  0.00000000000E+00 0. -1.
         21   -1    0    0  501  503 -0.00000000000E+00 -0.00000000000E+00 -0.60694050094E+03  0.60694050094E+03  0.00000000000E+00 0. -1.
          6    2    1    2  501    0 -0.45434930907E+02 -0.38971869927E+02 -0.48219987560E+03  0.51531293311E+03  0.17160291200E+03 0.  0.
         24    2    3    3    0    0 -0.63170992239E+02 -0.83487061654E+02 -0.35823834797E+03  0.38232902243E+03  0.82946390606E+02 0.  0.
         -6    2    1    2    0  502  0.45434930907E+02  0.38971869927E+02 -0.31200990087E+02  0.18516720308E+03  0.17242462620E+03 0.  0.
        -24    2    5    5    0    0  0.84884990172E+02  0.67256884627E+02 -0.15414419700E+02  0.13390654528E+03  0.77229582733E+02 0.  0.
          5    1    3    3  501    0  0.17736061332E+02  0.44515191728E+02 -0.12396152764E+03  0.13298391068E+03  0.47000000000E+01 0. -1.
        -11    1    4    4    0    0 -0.66451205208E+01  0.62140910560E+01 -0.39249950215E+00  0.91064049025E+01  0.00000000000E+00 0.  1.
         12    1    4    4    0    0 -0.56525871718E+02 -0.89701152711E+02 -0.35784584847E+03  0.37322261753E+03  0.00000000000E+00 0. -1.
         -5    1    5    5    0  502 -0.39450059265E+02 -0.28285014700E+02 -0.15786570387E+02  0.51260657791E+02  0.47000000000E+01 0.  1.
         13    1    6    6    0    0  0.14909797203E+02  0.12219727081E+02  0.28681800270E+02  0.34558203792E+02  0.00000000000E+00 0. -1.
        -14    1    6    6    0    0  0.69975192968E+02  0.55037157545E+02 -0.44096219970E+02  0.99348341492E+02  0.00000000000E+00 0.  1.
</event>
<event>
12    1  0.1030140E-001  0.1953723E+03  0.7818608E-02  0.1154434E+00
         21   -1    0    0  503  502  0.00000000000E+00  0.00000000000E+00  0.43293084964E+02  0.43293084964E+02  0.00000000000E+00 0.  1.
         21   -1    0    0  501  503 -0.00000000000E+00 -0.00000000000E+00 -0.10961901427E+04  0.10961901427E+04  0.00000000000E+00 0.  1.
          6    2    1    2  501    0 -0.91932619397E+02 -0.47786758151E+01 -0.78354580207E+03  0.80673644489E+03  0.16853849805E+03 0.  0.
         24    2    3    3    0    0 -0.74654656708E+02 -0.51493098692E+02 -0.38362880022E+03  0.40370237230E+03  0.87061426958E+02 0.  0.
         -6    2    1    2    0  502  0.91932619397E+02  0.47786758151E+01 -0.26935125566E+03  0.33274678277E+03  0.17232492641E+03 0.  0.
        -24    2    5    5    0    0  0.19461235653E+02 -0.12496229448E+02 -0.37472026598E+02  0.89147540804E+02  0.77512810622E+02 0.  0.
          5    1    3    3  501    0 -0.17277962689E+02  0.46714422877E+02 -0.39991700185E+03  0.40303407259E+03  0.47000000000E+01 0. -1.
        -11    1    4    4    0    0 -0.67717354764E+02  0.45124751044E+01 -0.23913839811E+03  0.24858233248E+03  0.00000000000E+00 0.  1.
         12    1    4    4    0    0 -0.69373019432E+01 -0.56005573796E+02 -0.14449040211E+03  0.15512003982E+03  0.00000000000E+00 0. -1.
         -5    1    5    5    0  502  0.72471383744E+02  0.17274905263E+02 -0.23187922907E+03  0.24359924197E+03  0.47000000000E+01 0.  1.
         13    1    6    6    0    0 -0.88306161790E+00  0.31361495372E+02 -0.22244469381E+02  0.38459584083E+02  0.00000000000E+00 0. -1.
        -14    1    6    6    0    0  0.20344297271E+02 -0.43857724820E+02 -0.15227557217E+02  0.50687956721E+02  0.00000000000E+00 0.  1.
</event>
<event>
12    1  0.1030140E-001  0.1843033E+03  0.7818608E-02  0.1163818E+00
         21   -1    0    0  503  502  0.00000000000E+00  0.00000000000E+00  0.97628914887E+03  0.97628914887E+03  0.00000000000E+00 0.  1.
         21   -1    0    0  501  503 -0.00000000000E+00 -0.00000000000E+00 -0.47333773144E+02  0.47333773144E+02  0.00000000000E+00 0.  1.
          6    2    1    2  501    0 -0.10550899443E+02 -0.63845367025E+02  0.19959594491E+03  0.27133780410E+03  0.17204101355E+03 0.  0.
         24    2    3    3    0    0  0.39071455522E+02 -0.70626139891E+02  0.70474245519E+02  0.13276341886E+03  0.78389258403E+02 0.  0.
         -6    2    1    2    0  502  0.10550899443E+02  0.63845367025E+02  0.72935943082E+03  0.75228511791E+03  0.17256931053E+03 0.  0.
        -24    2    5    5    0    0 -0.90938338532E+00 -0.18448969289E+02  0.20075987888E+03  0.21717459458E+03  0.80740845404E+02 0.  0.
          5    1    3    3  501    0 -0.49622354965E+02  0.67807728652E+01  0.12912169939E+03  0.13857438524E+03  0.47000000000E+01 0. -1.
        -11    1    4    4    0    0 -0.63409133501E+01 -0.14622114714E+02 -0.14342639662E+02  0.21441192441E+02  0.00000000000E+00 0.  1.
         12    1    4    4    0    0  0.45412368872E+02 -0.56004025177E+02  0.84816885181E+02  0.11132222642E+03  0.00000000000E+00 0. -1.
         -5    1    5    5    0  502  0.11460282829E+02  0.82294336315E+02  0.52859955194E+03  0.53511052334E+03  0.47000000000E+01 0.  1.
         11    1    6    6    0    0 -0.34076413184E+02  0.10553293966E+02  0.11985113659E+03  0.12504746655E+03  0.00000000000E+00 0. -1.
        -12    1    6    6    0    0  0.33167029799E+02 -0.29002263255E+02  0.80908742292E+02  0.92127128029E+02  0.00000000000E+00 0.  1.
</event>
<event>
12    1  0.1030140E-001  0.2103025E+03  0.7818608E-02  0.1141660E+00
         21   -1    0    0  501  502  0.00000000000E+00  0.00000000000E+00  0.93116002417E+03  0.93116002417E+03  0.00000000000E+00 0.  1.
         21   -1    0    0  502  503 -0.00000000000E+00 -0.00000000000E+00 -0.90527816897E+02  0.90527816897E+02  0.00000000000E+00 0. -1.
         -6    2    1    2    0  503 -0.11771855860E+03 -0.20054671241E+02  0.67450253687E+02  0.22085441607E+03  0.17311062214E+03 0.  0.
        -24    2    3    3    0    0 -0.66528871572E+02  0.38707042072E+02 -0.10662129859E+02  0.11041457963E+03  0.78443435180E+02 0.  0.
          6    2    1    2  501    0  0.11771855860E+03  0.20054671241E+02  0.77318195358E+03  0.80083342500E+03  0.17106721594E+03 0.  0.
         24    2    5    5    0    0  0.95555080175E+02  0.77616921494E+02  0.54203667357E+03  0.56155354097E+03  0.79896583322E+02 0.  0.
          5    1    5    5  501    0  0.22163478423E+02 -0.57562250253E+02  0.23114528001E+03  0.23927988403E+03  0.47000000000E+01 0. -1.
        -11    1    6    6    0    0  0.15185866981E+02  0.11280226934E+02  0.26321413982E+03  0.26389304174E+03  0.00000000000E+00 0.  1.
         12    1    6    6    0    0  0.80369213194E+02  0.66336694560E+02  0.27882253375E+03  0.29766049923E+03  0.00000000000E+00 0. -1.
         -5    1    3    3    0  503 -0.51189687026E+02 -0.58761713313E+02  0.78112383545E+02  0.11043983644E+03  0.47000000000E+01 0.  1.
         13    1    4    4    0    0 -0.85666949339E+01 -0.10509072147E+02 -0.29160488105E+02  0.32158403660E+02  0.00000000000E+00 0. -1.
        -14    1    4    4    0    0 -0.57962176638E+02  0.49216114218E+02  0.18498358246E+02  0.78256175968E+02  0.00000000000E+00 0.  1.
</event>
<event>
12    1  0.1030140E-001  0.1925941E+03  0.7818608E-02  0.1156186E+00
         21   -1    0    0  501  502  0.00000000000E+00  0.00000000000E+00  0.89627950636E+02  0.89627950636E+02  0.00000000000E+00 0.  1.
         21   -1    0    0  502  503 -0.00000000000E+00 -0.00000000000E+00 -0.55161245516E+03  0.55161245516E+03  0.00000000000E+00 0. -1.
         -6    2    1    2    0  503 -0.13847322739E+02  0.84556418464E+02 -0.39138012018E+03  0.43611245688E+03  0.17226183652E+03 0.  0.
        -24    2    3    3    0    0 -0.33976958623E+01 -0.13857679717E+02 -0.25592220202E+03  0.26828675260E+03  0.79234011075E+02 0.  0.
          6    2    1    2  501    0  0.13847322739E+02 -0.84556418464E+02 -0.70604384345E+02  0.20512794892E+03  0.17248466624E+03 0.  0.
         24    2    5    5    0    0  0.32046064886E+02 -0.10480243666E+03 -0.47224213339E+01  0.13368833443E+03  0.76418377990E+02 0.  0.
          5    1    5    5  501    0 -0.18198742146E+02  0.20246018197E+02 -0.65881963011E+02  0.71439614491E+02  0.47000000000E+01 0. -1.
        -13    1    6    6    0    0 -0.90302386570E+01 -0.89131887959E+02 -0.14012670108E+01  0.89599119475E+02  0.00000000000E+00 0.  1.
         14    1    6    6    0    0  0.41076303543E+02 -0.15670548702E+02 -0.33211543230E+01  0.44089214955E+02  0.00000000000E+00 0. -1.
         -5    1    3    3    0  503 -0.10449626877E+02  0.98414098182E+02 -0.13545791817E+03  0.16782570428E+03  0.47000000000E+01 0.  1.
         13    1    4    4    0    0  0.10479804482E+02  0.31380545457E+02 -0.11211592911E+03  0.11689545114E+03  0.00000000000E+00 0. -1.
        -14    1    4    4    0    0 -0.13877500344E+02 -0.45238225174E+02 -0.14380627290E+03  0.15139130146E+03  0.00000000000E+00 0.  1.
</event>
<event>
12    1  0.1030140E-001  0.1805970E+03  0.7818608E-02  0.1167529E+00
         21   -1    0    0  501  502  0.00000000000E+00  0.00000000000E+00  0.88291095760E+03  0.88291095760E+03  0.00000000000E+00 0.  1.
         21   -1    0    0  502  503 -0.00000000000E+00 -0.00000000000E+00 -0.71977642935E+02  0.71977642935E+02  0.00000000000E+00 0.  1.
         -6    2    1    2    0  503  0.53187521604E+02  0.66187535933E+01  0.71864742718E+02  0.19437033397E+03  0.17246032914E+03 0.  0.
        -24    2    3    3    0    0  0.13448903663E+02 -0.32948836627E+02  0.10062416354E+03  0.13117265808E+03  0.76253164497E+02 0.  0.
          6    2    1    2  501    0 -0.53187521604E+02 -0.66187535933E+01  0.73906857195E+03  0.76051826657E+03  0.17115186061E+03 0.  0.
         24    2    5    5    0    0 -0.25825042328E+02  0.27773844719E+02  0.18293128927E+03  0.20262730655E+03  0.78457947350E+02 0.  0.
          5    1    5    5  501    0 -0.27362479276E+02 -0.34392598312E+02  0.55613728268E+03  0.55789096002E+03  0.47000000000E+01 0. -1.
        -11    1    6    6    0    0 -0.30007851698E+02 -0.21398958962E+02  0.93154548182E+02  0.10018061916E+03  0.00000000000E+00 0.  1.
         12    1    6    6    0    0  0.41828093706E+01  0.49172803681E+02  0.89776741092E+02  0.10244668739E+03  0.00000000000E+00 0. -1.
         -5    1    3    3    0  503  0.39738617941E+02  0.39567590220E+02 -0.28759420819E+02  0.63197675887E+02  0.47000000000E+01 0.  1.
         13    1    4    4    0    0 -0.15416287107E+02  0.87803370655E+01  0.69317621044E+02  0.71552000771E+02  0.00000000000E+00 0. -1.
        -14    1    4    4    0    0  0.28865190770E+02 -0.41729173692E+02  0.31306542493E+02  0.59620657310E+02  0.00000000000E+00 0.  1.
</event>
<event>
12    1  0.1030140E-001  0.1997671E+03  0.7818608E-02  0.1150125E+00
         21   -1    0    0  501  502  0.00000000000E+00  0.00000000000E+00  0.16145460731E+03  0.16145460731E+03  0.00000000000E+00 0. -1.
         21   -1    0    0  502  503 -0.00000000000E+00 -0.00000000000E+00 -0.49044833507E+03  0.49044833507E+03  0.00000000000E+00 0. -1.
         -6    2    1    2    0  503  0.74312296101E+02 -0.66760297910E+02 -0.39439763050E+03  0.44170168640E+03  0.17196404886E+03 0.  0.
        -24    2    3    3    0    0 -0.15794871472E+01 -0.71776141176E+02 -0.30137483484E+03  0.32145173023E+03  0.85732809180E+02 0.  0.
          6    2    1    2  501    0 -0.74312296101E+02  0.66760297910E+02  0.65403902740E+02  0.21020125598E+03  0.17299607739E+03 0.  0.
         24    2    5    5    0    0 -0.11645957757E+03  0.40955451727E+02  0.33398662344E+02  0.15113596300E+03  0.80538353797E+02 0.  0.
          5    1    5    5  501    0  0.42147281468E+02  0.25804846183E+02  0.32005240396E+02  0.59065292977E+02  0.47000000000E+01 0. -1.
        -13    1    6    6    0    0 -0.40663794949E+02 -0.18074511666E+02  0.32425803188E+02  0.55060556699E+02  0.00000000000E+00 0.  1.
         14    1    6    6    0    0 -0.75795782620E+02  0.59029963393E+02  0.97285915604E+00  0.96075406302E+02  0.00000000000E+00 0. -1.
         -5    1    3    3    0  503  0.75891783248E+02  0.50158432665E+01 -0.93022795655E+02  0.12024995617E+03  0.47000000000E+01 0.  1.
         11    1    4    4    0    0  0.28222851749E+02 -0.66681110079E+02 -0.14378417021E+03  0.16098691687E+03  0.00000000000E+00 0. -1.
        -12    1    4    4    0    0 -0.29802338896E+02 -0.50950310976E+01 -0.15759066464E+03  0.16046481336E+03  0.00000000000E+00 0.  1.
</event>
<event>
12    1  0.1030140E-001  0.2069316E+03  0.7818608E-02  0.1144175E+00
         21   -1    0    0  503  502  0.00000000000E+00  0.00000000000E+00  0.31368729794E+03  0.31368729794E+03  0.00000000000E+00 0. -1.
         21   -1    0    0  501  503 -0.00000000000E+00 -0.00000000000E+00 -0.18161687313E+03  0.18161687313E+03  0.00000000000E+00 0.  1.
          6    2    1    2  501    0 -0.73642837707E+02  0.86960989810E+02 -0.57989371005E+02  0.21490334843E+03  0.17272869108E+03 0.  0.
         24    2    3    3    0    0 -0.25083843777E+02  0.44984284811E+02 -0.10063048571E+03  0.13769988790E+03  0.78625564379E+02 0.  0.
         -6    2    1    2    0  502  0.73642837707E+02 -0.86960989810E+02  0.19005979581E+03  0.28040082264E+03  0.17180341689E+03 0.  0.
        -24    2    5    5    0    0  0.21206741105E+02 -0.14752703906E+02  0.18481847576E+02  0.86946272155E+02  0.80936440563E+02 0.  0.
          5    1    3    3  501    0 -0.48558993930E+02  0.41976704999E+02  0.42641114708E+02  0.77203460529E+02  0.47000000000E+01 0. -1.
        -13    1    4    4    0    0 -0.44887128962E+02  0.45838273631E+02 -0.44249333490E+02  0.77935904372E+02  0.00000000000E+00 0.  1.
         14    1    4    4    0    0  0.19803285185E+02 -0.85398882030E+00 -0.56381152223E+02  0.59763983527E+02  0.00000000000E+00 0. -1.
         -5    1    5    5    0  502  0.52436096602E+02 -0.72208285904E+02  0.17157794824E+03  0.19345455048E+03  0.47000000000E+01 0.  1.
         11    1    6    6    0    0 -0.22802462149E+02 -0.11484442018E+02  0.31864583997E+02  0.40831316435E+02  0.00000000000E+00 0. -1.
        -12    1    6    6    0    0  0.44009203254E+02 -0.32682618884E+01 -0.13382736421E+02  0.46114955719E+02  0.00000000000E+00 0.  1.
</event>
<event>
12    1  0.1030140E-001  0.2405581E+03  0.7818608E-02  0.1120304E+00
         21   -1    0    0  503  502  0.00000000000E+00  0.00000000000E+00  0.32589198284E+02  0.32589198284E+02  0.00000000000E+00 0.  1.
         21   -1    0    0  501  503 -0.00000000000E+00 -0.00000000000E+00 -0.17784082311E+04  0.17784082311E+04  0.00000000000E+00 0.  1.
          6    2    1    2  501    0 -0.71039234606E+02  0.14835490496E+03 -0.10202486387E+04  0.10482249155E+04  0.17553472023E+03 0.  0.
         24    2    3    3    0    0  0.19856050051E+02  0.92769537007E+02 -0.40957019627E+03  0.42830400445E+03  0.81829852932E+02 0.  0.
         -6    2    1    2    0  502  0.71039234606E+02 -0.14835490496E+03 -0.72557039411E+03  0.76277251389E+03  0.16826693214E+03 0.  0.
        -24    2    5    5    0    0 -0.14533515745E+01 -0.81446650818E+02 -0.53383739768E+03  0.54709794087E+03  0.87738934269E+02 0.  0.
          5    1    3    3  501    0 -0.90895284657E+02  0.55585367958E+02 -0.61067844244E+03  0.61992091106E+03  0.47000000000E+01 0. -1.
        -13    1    4    4    0    0  0.33713262969E+02  0.79454206909E+02 -0.39464008888E+03  0.40396825970E+03  0.00000000000E+00 0.  1.
         14    1    4    4    0    0 -0.13857212919E+02  0.13315330098E+02 -0.14930107389E+02  0.24335744742E+02  0.00000000000E+00 0. -1.
         -5    1    5    5    0  502  0.72492586181E+02 -0.66908254146E+02 -0.19173299643E+03  0.21567457302E+03  0.47000000000E+01 0.  1.
         13    1    6    6    0    0 -0.33706639438E+02 -0.20278187862E+02 -0.31874341064E+03  0.32116149251E+03  0.00000000000E+00 0. -1.
        -14    1    6    6    0    0  0.32253287864E+02 -0.61168462956E+02 -0.21509398704E+03  0.22593644836E+03  0.00000000000E+00 0.  1.
</event>
<event>
12    1  0.1030140E-001  0.1881910E+03  0.7818608E-02  0.1160646E+00
         21   -1    0    0  503  502  0.00000000000E+00  0.00000000000E+00  0.11271645199E+04  0.11271645199E+04  0.00000000000E+00 0.  1.
         21   -1    0    0  501  503 -0.00000000000E+00 -0.00000000000E+00 -0.87495641044E+02  0.87495641044E+02  0.00000000000E+00 0. -1.
          6    2    1    2  501    0  0.12869999331E+02 -0.66863957936E+02  0.30770446027E+02  0.18836006184E+03  0.17290536947E+03 0.  0.
         24    2    3    3    0    0 -0.47672338112E+02 -0.59978777532E+01  0.37787324638E+02  0.10209662274E+03  0.81775375952E+02 0.  0.
         -6    2    1    2    0  502 -0.12869999331E+02  0.66863957936E+02  0.10088984328E+04  0.10263000991E+04  0.17544064498E+03 0.  0.
        -24    2    5    5    0    0 -0.66635148832E+02  0.76802482469E+02  0.79115554561E+03  0.80174827768E+03  0.80835258681E+02 0.  0.
          5    1    3    3  501    0  0.60542337443E+02 -0.60866080183E+02 -0.70168786113E+01  0.86263439100E+02  0.47000000000E+01 0. -1.
        -11    1    4    4    0    0 -0.22295470493E+02 -0.43013675038E+02  0.10501720665E+02  0.49573686384E+02  0.00000000000E+00 0.  1.
         12    1    4    4    0    0 -0.25376867619E+02  0.37015797285E+02  0.27285603973E+02  0.52522936351E+02  0.00000000000E+00 0. -1.
         -5    1    5    5    0  502  0.53765149501E+02 -0.99385245331E+01  0.21774288723E+03  0.22455182143E+03  0.47000000000E+01 0.  1.
         13    1    6    6    0    0  0.12699987122E+02 -0.53409839084E+01  0.13783090579E+03  0.13851777638E+03  0.00000000000E+00 0. -1.
        -14    1    6    6    0    0 -0.79335135954E+02  0.82143466377E+02  0.65332463982E+03  0.66323050130E+03  0.00000000000E+00 0.  1.
</event>
<event>
12    1  0.1030140E-001  0.1868999E+03  0.7818608E-02  0.1162007E+00
         21   -1    0    0  503  502  0.00000000000E+00  0.00000000000E+00  0.16097942120E+04  0.16097942120E+04  0.00000000000E+00 0.  1.
         21   -1    0    0  501  503 -0.00000000000E+00 -0.00000000000E+00 -0.14744560707E+03  0.14744560707E+03  0.00000000000E+00 0.  1.
          6    2    1    2  501    0  0.28840041236E+02  0.55172788099E+02 -0.82253306059E+02  0.20137136987E+03  0.17294229592E+03 0.  0.
         24    2    3    3    0    0  0.40709210219E+02  0.98799270237E+02 -0.80090932234E+02  0.15586408499E+03  0.80377359799E+02 0.  0.
         -6    2    1    2    0  502 -0.28840041236E+02 -0.55172788099E+02  0.15446019110E+04  0.15558684492E+04  0.17622651123E+03 0.  0.
        -24    2    5    5    0    0  0.16765624967E+02 -0.10033266530E+01  0.12555957896E+04  0.12582767229E+04  0.80358146869E+02 0.  0.
          5    1    3    3  501    0 -0.11869168983E+02 -0.43626482138E+02 -0.21623738253E+01  0.45507284874E+02  0.47000000000E+01 0. -1.
        -13    1    4    4    0    0 -0.75810452024E+01  0.82328290554E+02 -0.48428497544E+02  0.95816173198E+02  0.00000000000E+00 0.  1.
         14    1    4    4    0    0  0.48290255421E+02  0.16470979683E+02 -0.31662434690E+02  0.60047911794E+02  0.00000000000E+00 0. -1.
         -5    1    5    5    0  502 -0.45605666203E+02 -0.54169461446E+02  0.28900612145E+03  0.29759172633E+03  0.47000000000E+01 0.  1.
         11    1    6    6    0    0  0.24986851046E+02  0.19102566120E+02  0.20004676356E+03  0.20250421815E+03  0.00000000000E+00 0. -1.
        -12    1    6    6    0    0 -0.82212260788E+01 -0.20105892773E+02  0.10555490260E+04  0.10557725047E+04  0.00000000000E+00 0.  1.
</event>
<event>
12    1  0.1030140E-001  0.1853074E+03  0.7818608E-02  0.1162912E+00
         21   -1    0    0  503  502  0.00000000000E+00  0.00000000000E+00  0.19520430875E+02  0.19520430875E+02  0.00000000000E+00 0.  1.
         21   -1    0    0  501  503 -0.00000000000E+00 -0.00000000000E+00 -0.18380910923E+04  0.18380910923E+04  0.00000000000E+00 0.  1.
          6    2    1    2  501    0  0.67183620218E+02 -0.11851581205E+02 -0.70802626698E+03  0.73171291371E+03  0.17160563671E+03 0.  0.
         24    2    3    3    0    0  0.10177230505E+03  0.35121940475E+01 -0.64613423309E+03  0.65901396896E+03  0.80249775899E+02 0.  0.
         -6    2    1    2    0  502 -0.67183620218E+02  0.11851581205E+02 -0.11105443945E+04  0.11258986095E+04  0.17229256502E+03 0.  0.
        -24    2    5    5    0    0 -0.17681940815E+02  0.49597580818E+02 -0.93019403022E+03  0.93504913835E+03  0.79267813231E+02 0.  0.
          5    1    3    3  501    0 -0.34588684833E+02 -0.15363775252E+02 -0.61892033888E+02  0.72698944746E+02  0.47000000000E+01 0. -1.
        -13    1    4    4    0    0  0.33233475251E+02 -0.11305509190E+02 -0.66899142989E+02  0.75549809715E+02  0.00000000000E+00 0.  1.
         14    1    4    4    0    0  0.68538829800E+02  0.14817703238E+02 -0.57923509010E+03  0.58346415925E+03  0.00000000000E+00 0. -1.
         -5    1    5    5    0  502 -0.49501679403E+02 -0.37745999613E+02 -0.18035036427E+03  0.19084947116E+03  0.47000000000E+01 0.  1.
         13    1    6    6    0    0 -0.40214553707E+02  0.57759396030E+02 -0.74337634035E+03  0.74670057021E+03  0.00000000000E+00 0. -1.
        -14    1    6    6    0    0  0.22532612892E+02 -0.81618152120E+01 -0.18681768987E+03  0.18834856813E+03  0.00000000000E+00 0.  1.
</event>
<event>
12    1  0.1030140E-001  0.1787575E+03  0.7818608E-02  0.1169245E+00
         21   -1    0    0  501  502  0.00000000000E+00  0.00000000000E+00  0.23072441160E+03  0.23072441160E+03  0.00000000000E+00 0. -1.
         21   -1    0    0  502  503 -0.00000000000E+00 -0.00000000000E+00 -0.16801185520E+03  0.16801185520E+03  0.00000000000E+00 0. -1.
         -6    2    1    2    0  503  0.37068187280E+02  0.29146196082E+02 -0.53178020853E+02  0.18649975936E+03  0.17242594667E+03 0.  0.
        -24    2    3    3    0    0  0.58045050420E+02 -0.37715123819E+02 -0.13886993598E+02  0.10602405055E+03  0.79098623632E+02 0.  0.
          6    2    1    2  501    0 -0.37068187280E+02 -0.29146196082E+02  0.11589057725E+03  0.21223650745E+03  0.17143557957E+03 0.  0.
         24    2    5    5    0    0 -0.31763271896E+02 -0.73008784702E+02  0.12330785338E+03  0.16719014474E+03  0.80053292923E+02 0.  0.
          5    1    5    5  501    0 -0.53049153840E+01  0.43862588620E+02 -0.74172761301E+01  0.45046362704E+02  0.47000000000E+01 0. -1.
        -13    1    6    6    0    0 -0.32011206636E+01 -0.44712870779E+02  0.86058640945E+01  0.45645907633E+02  0.00000000000E+00 0.  1.
         14    1    6    6    0    0 -0.28562151232E+02 -0.28295913923E+02  0.11470198929E+03  0.12154423711E+03  0.00000000000E+00 0. -1.
         -5    1    3    3    0  503 -0.20976863140E+02  0.66861319901E+02 -0.39291027256E+02  0.80475708813E+02  0.47000000000E+01 0.  1.
         11    1    4    4    0    0 -0.27283254797E+01  0.69680732861E+01 -0.28260794406E+02  0.29234744837E+02  0.00000000000E+00 0. -1.
        -12    1    4    4    0    0  0.60773375899E+02 -0.44683197105E+02  0.14373800809E+02  0.76789305710E+02  0.00000000000E+00 0.  1.
</event>
<event>
12    1  0.1030140E-001  0.2570665E+03  0.7818608E-02  0.1109110E+00
         21   -1    0    0  501  502  0.00000000000E+00  0.00000000000E+00  0.95218383863E+02  0.95218383863E+02  0.00000000000E+00 0. -1.
         21   -1    0    0  502  503 -0.00000000000E+00 -0.00000000000E+00 -0.73737126914E+03  0.73737126914E+03  0.00000000000E+00 0. -1.
         -6    2    1    2    0  503  0.15098157262E+03  0.11474519959E+03 -0.42514038795E+03  0.49617088298E+03  0.17169536846E+03 0.  0.
        -24    2    3    3    0    0  0.15306615564E+03  0.36602695322E+02 -0.30559097096E+03  0.35325569988E+03  0.81453929640E+02 0.  0.
          6    2    1    2  501    0 -0.15098157262E+03 -0.11474519959E+03 -0.21701249733E+03  0.33641877002E+03  0.17355480035E+03 0.  0.
         24    2    5    5    0    0 -0.56820934515E+01 -0.28150845555E+02 -0.57013849876E+02  0.10354073760E+03  0.81519009890E+02 0.  0.
          5    1    5    5  501    0 -0.14529947917E+03 -0.86594354039E+02 -0.15999864745E+03  0.23287803242E+03  0.47000000000E+01 0. -1.
        -11    1    6    6    0    0 -0.41559675083E+02 -0.12611112059E+02 -0.14513984883E+02  0.45791947956E+02  0.00000000000E+00 0.  1.
         12    1    6    6    0    0  0.35877581632E+02 -0.15539733496E+02 -0.42499864993E+02  0.57748789644E+02  0.00000000000E+00 0. -1.
         -5    1    3    3    0  503 -0.20845830184E+01  0.78142504272E+02 -0.11954941699E+03  0.14291518311E+03  0.47000000000E+01 0.  1.
         11    1    4    4    0    0  0.98148279211E+02  0.34834979908E+02 -0.11613728588E+03  0.15599496693E+03  0.00000000000E+00 0. -1.
        -12    1    4    4    0    0  0.54917876428E+02  0.17677154142E+01 -0.18945368508E+03  0.19726073294E+03  0.00000000000E+00 0.  1.
</event>
<event>
12    1  0.1030140E-001  0.1796086E+03  0.7818608E-02  0.1169791E+00
         21   -1    0    0  503  502  0.00000000000E+00  0.00000000000E+00  0.81283336812E+02  0.81283336812E+02  0.00000000000E+00 0.  1.
         21   -1    0    0  501  503 -0.00000000000E+00 -0.00000000000E+00 -0.51539010193E+03  0.51539010193E+03  0.00000000000E+00 0.  1.
          6    2    1    2  501    0  0.58249728533E+01 -0.20671765463E+02 -0.68632566954E+02  0.19227498663E+03  0.17831990646E+03 0.  0.
         24    2    3    3    0    0 -0.54371410053E+02 -0.33845435053E+02 -0.27480928289E+01  0.10194224608E+03  0.79264782948E+02 0.  0.
         -6    2    1    2    0  502 -0.58249728533E+01  0.20671765463E+02 -0.36547419816E+03  0.40439845211E+03  0.17177155280E+03 0.  0.
        -24    2    5    5    0    0  0.18934815356E+02  0.52596021668E+02 -0.10538989029E+03  0.14115304864E+03  0.75447236114E+02 0.  0.
          5    1    3    3  501    0  0.60196382907E+02  0.13173669590E+02 -0.65884474125E+02  0.90332740556E+02  0.47000000000E+01 0. -1.
        -11    1    4    4    0    0 -0.27357442483E+01 -0.88970470884E+01  0.33052328674E+02  0.34337998984E+02  0.00000000000E+00 0.  1.
         12    1    4    4    0    0 -0.51635665805E+02 -0.24948387964E+02 -0.35800421503E+02  0.67604247092E+02  0.00000000000E+00 0. -1.
         -5    1    5    5    0  502 -0.24759788209E+02 -0.31924256205E+02 -0.26008430787E+03  0.26324540347E+03  0.47000000000E+01 0.  1.
         11    1    6    6    0    0 -0.28373006149E+02  0.27973021571E+02 -0.36528058127E+02  0.54053829137E+02  0.00000000000E+00 0. -1.
        -12    1    6    6    0    0  0.47307821505E+02  0.24623000097E+02 -0.68861832166E+02  0.87099219506E+02  0.00000000000E+00 0.  1.
</event>
<event>
12    1  0.1030140E-001  0.2091813E+03  0.7818608E-02  0.1142923E+00
         21   -1    0    0  503  502  0.00000000000E+00  0.00000000000E+00  0.20715890222E+03  0.20715890222E+03  0.00000000000E+00 0. -1.
         21   -1    0    0  501  503 -0.00000000000E+00 -0.00000000000E+00 -0.20920236825E+03  0.20920236825E+03  0.00000000000E+00 0.  1.
          6    2    1    2  501    0 -0.29559839989E+02 -0.11043391239E+03 -0.18758786553E+02  0.21002074234E+03  0.17517815787E+03 0.  0.
         24    2    3    3    0    0  0.32015431340E+02 -0.84950593288E+02 -0.55018380914E+02  0.13400915260E+03  0.81791439640E+02 0.  0.
         -6    2    1    2    0  502  0.29559839989E+02  0.11043391239E+03  0.16715320530E+02  0.20634052813E+03  0.17096075123E+03 0.  0.
        -24    2    5    5    0    0  0.73770614732E+02  0.96656672216E+02  0.44419146344E+02  0.15217414635E+03  0.79995589709E+02 0.  0.
          5    1    3    3  501    0 -0.61575271329E+02 -0.25483319104E+02  0.36259594361E+02  0.76011589742E+02  0.47000000000E+01 0. -1.
        -11    1    4    4    0    0 -0.27871016175E+02 -0.28118309692E+02 -0.19494195469E+02  0.44129995916E+02  0.00000000000E+00 0.  1.
         12    1    4    4    0    0  0.59886447515E+02 -0.56832283596E+02 -0.35524185444E+02  0.89879156684E+02  0.00000000000E+00 0. -1.
         -5    1    5    5    0  502 -0.44210774742E+02  0.13777240176E+02 -0.27703825814E+02  0.54166381778E+02  0.47000000000E+01 0.  1.
         13    1    6    6    0    0  0.18820024829E+02  0.44347305318E+02  0.57684742988E+02  0.75155880655E+02  0.00000000000E+00 0. -1.
        -14    1    6    6    0    0  0.54950589903E+02  0.52309366898E+02 -0.13265596643E+02  0.77018265692E+02  0.00000000000E+00 0.  1.
</event>
<event>
12    1  0.1030140E-001  0.3848583E+03  0.7818608E-02  0.1049431E+00
         21   -1    0    0  503  502  0.00000000000E+00  0.00000000000E+00  0.10428745695E+03  0.10428745695E+03  0.00000000000E+00 0.  1.
         21   -1    0    0  501  503 -0.00000000000E+00 -0.00000000000E+00 -0.14847610394E+04  0.14847610394E+04  0.00000000000E+00 0. -1.
          6    2    1    2  501    0  0.33513808390E+03 -0.63170203847E+02 -0.50819748450E+03  0.63564329121E+03  0.17166741239E+03 0.  0.
         24    2    3    3    0    0  0.30265563391E+03 -0.69052405693E+02 -0.35216825516E+03  0.47609104189E+03  0.79193009505E+02 0.  0.
         -6    2    1    2    0  502 -0.33513808390E+03  0.63170203847E+02 -0.87227609799E+03  0.95340520518E+03  0.17834764984E+03 0.  0.
        -24    2    5    5    0    0 -0.15116606180E+03  0.97240609963E+02 -0.41048534549E+03  0.45512888969E+03  0.79606362164E+02 0.  0.
          5    1    3    3  501    0  0.32482449994E+02  0.58822018456E+01 -0.15602922934E+03  0.15955224933E+03  0.47000000000E+01 0. -1.
        -13    1    4    4    0    0  0.11552495181E+03  0.10264468891E+01 -0.17099091547E+03  0.20636123972E+03  0.00000000000E+00 0.  1.
         14    1    4    4    0    0  0.18713068210E+03 -0.70078852582E+02 -0.18117733968E+03  0.26972980217E+03  0.00000000000E+00 0. -1.
         -5    1    5    5    0  502 -0.18397202210E+03 -0.34070406115E+02 -0.46179075250E+03  0.49827631549E+03  0.47000000000E+01 0.  1.
         13    1    6    6    0    0 -0.43708848211E+02  0.19254598047E+02 -0.20492216501E+03  0.21041458283E+03  0.00000000000E+00 0. -1.
        -14    1    6    6    0    0 -0.10745721359E+03  0.77986011916E+02 -0.20556318049E+03  0.24471430685E+03  0.00000000000E+00 0.  1.
</event>
<event>
12    1  0.1030140E-001  0.2005727E+03  0.7818608E-02  0.1149998E+00
         21   -1    0    0  503  502  0.00000000000E+00  0.00000000000E+00  0.54756128873E+03  0.54756128873E+03  0.00000000000E+00 0. -1.
         21   -1    0    0  501  503 -0.00000000000E+00 -0.00000000000E+00 -0.80545560140E+02  0.80545560140E+02  0.00000000000E+00 0. -1.
          6    2    1    2  501    0 -0.95773939101E+02 -0.37906039526E+02  0.13423024892E+03  0.24134453711E+03  0.17210435970E+03 0.  0.
         24    2    3    3    0    0  0.12195333504E+02 -0.17772438560E+02  0.23537666978E+02  0.85339205760E+02  0.79146525769E+02 0.  0.
         -6    2    1    2    0  502  0.95773939101E+02  0.37906039526E+02  0.33278547968E+03  0.38676231176E+03  0.16801605599E+03 0.  0.
        -24    2    5    5    0    0  0.88754116101E+02  0.63568397140E+02  0.33336835348E+03  0.35973890977E+03  0.79745782702E+02 0.  0.
          5    1    3    3  501    0 -0.10796927260E+03 -0.20133600966E+02  0.11069258194E+03  0.15600533135E+03  0.47000000000E+01 0. -1.
        -11    1    4    4    0    0 -0.56630111704E+01 -0.35444793382E+02  0.41188659164E+02  0.54634318127E+02  0.00000000000E+00 0.  1.
         12    1    4    4    0    0  0.17858344675E+02  0.17672354822E+02 -0.17650992186E+02  0.30704887634E+02  0.00000000000E+00 0. -1.
         -5    1    5    5    0  502  0.70198229996E+01 -0.25662357613E+02 -0.58287380605E+00  0.27023401990E+02  0.47000000000E+01 0.  1.
         13    1    6    6    0    0  0.21067933564E+02 -0.96325043263E+00  0.10421984074E+02  0.23524528222E+02  0.00000000000E+00 0. -1.
        -14    1    6    6    0    0  0.67686182537E+02  0.64531647572E+02  0.32294636941E+03  0.33621438155E+03  0.00000000000E+00 0.  1.
</event>
<event>
12    1  0.1030140E-001  0.3058697E+03  0.7818608E-02  0.1082558E+00
         21   -1    0    0  503  502  0.00000000000E+00  0.00000000000E+00  0.64831375993E+02  0.64831375993E+02  0.00000000000E+00 0.  1.
         21   -1    0    0  501  503 -0.00000000000E+00 -0.00000000000E+00 -0.14962531004E+04  0.14962531004E+04  0.00000000000E+00 0. -1.
          6    2    1    2  501    0  0.25110976175E+03 -0.24003723634E+01 -0.87588993704E+03  0.92776046260E+03  0.17462651552E+03 0.  0.
         24    2    3    3    0    0  0.15493237539E+03  0.21946013134E+02 -0.33892042795E+03  0.38168246467E+03  0.79553622912E+02 0.  0.
         -6    2    1    2    0  502 -0.25110976175E+03  0.24003723634E+01 -0.55553178733E+03  0.63332401375E+03  0.17152803102E+03 0.  0.
        -24    2    5    5    0    0 -0.23038214893E+03  0.41652875665E+02 -0.39045580029E+03  0.46231943941E+03  0.80452690938E+02 0.  0.
          5    1    3    3  501    0  0.96177386368E+02 -0.24346385498E+02 -0.53696950908E+03  0.54607799793E+03  0.47000000000E+01 0. -1.
        -11    1    4    4    0    0  0.30365073011E+02  0.31787192880E+02 -0.14029735642E+03  0.14702316657E+03  0.00000000000E+00 0.  1.
         12    1    4    4    0    0  0.12456730237E+03 -0.98411797462E+01 -0.19862307154E+03  0.23465929810E+03  0.00000000000E+00 0. -1.
         -5    1    5    5    0  502 -0.20727612823E+02 -0.39252503301E+02 -0.16507598703E+03  0.17100457434E+03  0.47000000000E+01 0.  1.
         11    1    6    6    0    0 -0.16558876672E+01  0.17418260801E+02 -0.25248323863E+02  0.30718327285E+02  0.00000000000E+00 0. -1.
        -12    1    6    6    0    0 -0.22872626126E+03  0.24234614863E+02 -0.36520747643E+03  0.43160111213E+03  0.00000000000E+00 0.  1.
</event>
<event>
12    1  0.1030140E-001  0.2790340E+03  0.7818608E-02  0.1096281E+00
         21   -1    0    0  501  502  0.00000000000E+00  0.00000000000E+00  0.50406413009E+03  0.50406413009E+03  0.00000000000E+00 0.  1.
         21   -1    0    0  502  503 -0.00000000000E+00 -0.00000000000E+00 -0.20030698033E+03  0.20030698033E+03  0.00000000000E+00 0.  1.
         -6    2    1    2    0  503  0.11820542290E+03  0.18523253451E+03 -0.17171308796E+02  0.27910052422E+03  0.17122685224E+03 0.  0.
        -24    2    3    3    0    0  0.62890523947E+02  0.12149128087E+03 -0.76405968697E+02  0.17588463205E+03  0.79888562452E+02 0.  0.
          6    2    1    2  501    0 -0.11820542290E+03 -0.18523253451E+03  0.32092845856E+03  0.42527058621E+03  0.17197785362E+03 0.  0.
         24    2    5    5    0    0 -0.15226649697E+03 -0.14364229617E+03  0.25326115591E+03  0.33872084017E+03  0.82294587438E+02 0.  0.
          5    1    5    5  501    0  0.34061074069E+02 -0.41590238345E+02  0.67667302645E+02  0.86549746040E+02  0.47000000000E+01 0. -1.
        -13    1    6    6    0    0 -0.10092043379E+03 -0.57433029312E+02  0.89270698929E+02  0.14646755443E+03  0.00000000000E+00 0.  1.
         14    1    6    6    0    0 -0.51346063176E+02 -0.86209266856E+02  0.16399045698E+03  0.19225328574E+03  0.00000000000E+00 0. -1.
         -5    1    3    3    0  503  0.55314898955E+02  0.63741253646E+02  0.59234659901E+02  0.10321589217E+03  0.47000000000E+01 0.  1.
         11    1    4    4    0    0 -0.10820326820E+02  0.39834575604E+02 -0.45894412819E+02  0.61726574618E+02  0.00000000000E+00 0. -1.
        -12    1    4    4    0    0  0.73710850767E+02  0.81656705263E+02 -0.30511555878E+02  0.11415805743E+03  0.00000000000E+00 0.  1.
</event>
<event>
12    1  0.1030140E-001  0.2408609E+03  0.7818608E-02  0.1119273E+00
         21   -1    0    0  501  502  0.00000000000E+00  0.00000000000E+00  0.22903139901E+03  0.22903139901E+03  0.00000000000E+00 0. -1.
         21   -1    0    0  502  503 -0.00000000000E+00 -0.00000000000E+00 -0.32568953623E+03  0.32568953623E+03  0.00000000000E+00 0.  1.
         -6    2    1    2    0  503  0.16243598061E+03  0.43898502476E+02  0.82706927969E+02  0.25466530267E+03  0.17234109822E+03 0.  0.
        -24    2    3    3    0    0  0.18685357220E+03  0.38405329446E+02  0.49394002927E+02  0.21273399333E+03  0.80167060686E+02 0.  0.
          6    2    1    2  501    0 -0.16243598061E+03 -0.43898502476E+02 -0.17936506519E+03  0.30005563257E+03  0.17189831211E+03 0.  0.
         24    2    5    5    0    0 -0.36524246600E+02 -0.69604958099E+02 -0.84719796090E+02  0.14038596235E+03  0.79698831825E+02 0.  0.
          5    1    5    5  501    0 -0.12591173401E+03  0.25706455623E+02 -0.94645269105E+02  0.15966967021E+03  0.47000000000E+01 0. -1.
        -13    1    6    6    0    0 -0.41240388906E+02 -0.63318466798E+02 -0.98726072670E+02  0.12432552167E+03  0.00000000000E+00 0.  1.
         14    1    6    6    0    0  0.47161423059E+01 -0.62864913008E+01  0.14006276580E+02  0.16060440677E+02  0.00000000000E+00 0. -1.
         -5    1    3    3    0  503 -0.24417591584E+02  0.54931730308E+01  0.33312925042E+02  0.41931309347E+02  0.47000000000E+01 0.  1.
         11    1    4    4    0    0  0.90786480234E+02  0.14521801293E+02  0.64894856279E+02  0.11253626117E+03  0.00000000000E+00 0. -1.
        -12    1    4    4    0    0  0.96067091961E+02  0.23883528153E+02 -0.15500853352E+02  0.10019773216E+03  0.00000000000E+00 0.  1.
</event>
<event>
12    1  0.1030140E-001  0.2062121E+03  0.7818608E-02  0.1144658E+00
         21   -1    0    0  503  502  0.00000000000E+00  0.00000000000E+00  0.69359399416E+02  0.69359399416E+02  0.00000000000E+00 0. -1.
         21   -1    0    0  501  503 -0.00000000000E+00 -0.00000000000E+00 -0.61617115413E+03  0.61617115413E+03  0.00000000000E+00 0. -1.
          6    2    1    2  501    0 -0.76820780494E+02  0.83704726096E+02 -0.24627401952E+03  0.32120757982E+03  0.17209155457E+03 0.  0.
         24    2    3    3    0    0 -0.55871304863E+02  0.12589039794E+03 -0.19288283934E+03  0.24985479740E+03  0.79079928362E+02 0.  0.
         -6    2    1    2    0  502  0.76820780494E+02 -0.83704726096E+02 -0.30053773520E+03  0.36432297373E+03  0.17175676239E+03 0.  0.
        -24    2    5    5    0    0  0.38030538060E+02 -0.81952111892E+02 -0.30125501722E+03  0.32520316982E+03  0.82704569346E+02 0.  0.
          5    1    3    3  501    0 -0.20949475631E+02 -0.42185671844E+02 -0.53391180176E+02  0.71352782418E+02  0.47000000000E+01 0. -1.
        -11    1    4    4    0    0 -0.13742814020E+02  0.20968692037E+02  0.13541066746E+01  0.25107460800E+02  0.00000000000E+00 0.  1.
         12    1    4    4    0    0 -0.42128490843E+02  0.10492170590E+03 -0.19423694602E+03  0.22474733660E+03  0.00000000000E+00 0. -1.
         -5    1    5    5    0  502  0.38790242434E+02 -0.17526142047E+01  0.71728202499E+00  0.39119803912E+02  0.47000000000E+01 0.  1.
         13    1    6    6    0    0  0.29006625755E+02 -0.34437628048E+01 -0.16603081468E+03  0.16858076777E+03  0.00000000000E+00 0. -1.
        -14    1    6    6    0    0  0.90239123049E+01 -0.78508349087E+02 -0.13522420255E+03  0.15662240205E+03  0.00000000000E+00 0.  1.
</event>
<event>
12    1  0.1030140E-001  0.2566141E+03  0.7818608E-02  0.1110368E+00
         21   -1    0    0  503  502  0.00000000000E+00  0.00000000000E+00  0.11211203828E+04  0.11211203828E+04  0.00000000000E+00 0. -1.
         21   -1    0    0  501  503 -0.00000000000E+00 -0.00000000000E+00 -0.88456949625E+02  0.88456949625E+02  0.00000000000E+00 0. -1.
          6    2    1    2  501    0  0.13356415978E+03  0.12029703155E+03  0.15083980856E+03  0.29117453369E+03  0.17239257713E+03 0.  0.
         24    2    3    3    0    0  0.13817789918E+03  0.37365040490E+02  0.11322852399E+03  0.19987447642E+03  0.81485149590E+02 0.  0.
         -6    2    1    2    0  502 -0.13356415978E+03 -0.12029703155E+03  0.88182362459E+03  0.91840279871E+03  0.18313938739E+03 0.  0.
        -24    2    5    5    0    0 -0.75463703868E+02 -0.32872303307E+02  0.26132481295E+03  0.28907012727E+03  0.92171154349E+02 0.  0.
          5    1    3    3  501    0 -0.46137394048E+01  0.82931991056E+02  0.37611284571E+02  0.91300057278E+02  0.47000000000E+01 0. -1.
        -13    1    4    4    0    0  0.56879510821E+02  0.44503216711E+02  0.89256919465E+02  0.11481555958E+03  0.00000000000E+00 0.  1.
         14    1    4    4    0    0  0.81298388362E+02 -0.71381762208E+01  0.23971604526E+02  0.85058916838E+02  0.00000000000E+00 0. -1.
         -5    1    5    5    0  502 -0.58100455910E+02 -0.87424728239E+02  0.62049881164E+03  0.62933267143E+03  0.47000000000E+01 0.  1.
         11    1    6    6    0    0 -0.86576415487E+02 -0.14413585377E+02  0.24951221432E+03  0.26449871882E+03  0.00000000000E+00 0. -1.
        -12    1    6    6    0    0  0.11112711619E+02 -0.18458717929E+02  0.11812598627E+02  0.24571408455E+02  0.00000000000E+00 0.  1.
</event>
<event>
12    1  0.1030140E-001  0.1957959E+03  0.7818608E-02  0.1153480E+00
         21   -1    0    0  501  502  0.00000000000E+00  0.00000000000E+00  0.10331020708E+03  0.10331020708E+03  0.00000000000E+00 0. -1.
         21   -1    0    0  502  503 -0.00000000000E+00 -0.00000000000E+00 -0.38207261030E+03  0.38207261030E+03  0.00000000000E+00 0. -1.
         -6    2    1    2    0  503  0.53933252666E+02 -0.75198218632E+02 -0.96148397744E+02  0.21812969078E+03  0.17254703644E+03 0.  0.
        -24    2    3    3    0    0  0.37833879893E+02 -0.34697804014E+02 -0.13146193586E+03  0.16183928874E+03  0.79210950813E+02 0.  0.
          6    2    1    2  501    0 -0.53933252666E+02  0.75198218632E+02 -0.18261400547E+03  0.26725312660E+03  0.17179287195E+03 0.  0.
         24    2    5    5    0    0  0.10096060028E+02  0.21431510751E+02 -0.21902502979E+02  0.86032573697E+02  0.79753645804E+02 0.  0.
          5    1    5    5  501    0 -0.64029312693E+02  0.53766707880E+02 -0.16071150249E+03  0.18122055290E+03  0.47000000000E+01 0. -1.
        -13    1    6    6    0    0 -0.99547274267E+01 -0.27769029430E+02 -0.30462334222E+01  0.29656283173E+02  0.00000000000E+00 0.  1.
         14    1    6    6    0    0  0.20050787454E+02  0.49200540181E+02 -0.18856269557E+02  0.56376290524E+02  0.00000000000E+00 0. -1.
         -5    1    3    3    0  503  0.16099372773E+02 -0.40500414617E+02  0.35313538115E+02  0.56290402042E+02  0.47000000000E+01 0.  1.
         13    1    4    4    0    0 -0.38316359860E+01  0.44558510526E+01 -0.92417686953E+02  0.92604346035E+02  0.00000000000E+00 0. -1.
        -14    1    4    4    0    0  0.41665515879E+02 -0.39153655067E+02 -0.39044248906E+02  0.69234942704E+02  0.00000000000E+00 0.  1.
</event>
<event>
12    1  0.1030140E-001  0.1798384E+03  0.7818608E-02  0.1169496E+00
         21   -1    0    0  501  502  0.00000000000E+00  0.00000000000E+00  0.10753944303E+04  0.10753944303E+04  0.00000000000E+00 0. -1.
         21   -1    0    0  502  503 -0.00000000000E+00 -0.00000000000E+00 -0.29134868809E+02  0.29134868809E+02  0.00000000000E+00 0. -1.
         -6    2    1    2    0  503  0.10092734991E+02  0.53557236530E+02  0.50120200402E+03  0.53248970929E+03  0.17138144817E+03 0.  0.
        -24    2    3    3    0    0  0.22329964457E+02 -0.23912175957E+02  0.15003915252E+03  0.17264432869E+03  0.78891681888E+02 0.  0.
          6    2    1    2  501    0 -0.10092734991E+02 -0.53557236530E+02  0.54505755747E+03  0.57203958982E+03  0.16483722421E+03 0.  0.
         24    2    5    5    0    0  0.26997094243E+02 -0.95277354353E+00  0.14843390649E+03  0.17019970196E+03  0.78775396396E+02 0.  0.
          5    1    5    5  501    0 -0.37089829234E+02 -0.52604462987E+02  0.39662365098E+03  0.40183988786E+03  0.47000000000E+01 0. -1.
        -11    1    6    6    0    0 -0.14676721689E+02  0.19170343358E+01  0.11697121049E+03  0.11790396627E+03  0.00000000000E+00 0.  1.
         12    1    6    6    0    0  0.41673815932E+02 -0.28698078794E+01  0.31462696005E+02  0.52295735691E+02  0.00000000000E+00 0. -1.
         -5    1    3    3    0  503 -0.12237229466E+02  0.77469412487E+02  0.35116285151E+03  0.35984538059E+03  0.47000000000E+01 0.  1.
         13    1    4    4    0    0  0.49408966259E+02 -0.29509975272E+02  0.10681204194E+03  0.12132970325E+03  0.00000000000E+00 0. -1.
        -14    1    4    4    0    0 -0.27079001802E+02  0.55977993155E+01  0.43227110575E+02  0.51314625444E+02  0.00000000000E+00 0.  1.
</event>
<event>
12    1  0.1030140E-001  0.3045854E+03  0.7818608E-02  0.1083001E+00
         21   -1    0    0  501  502  0.00000000000E+00  0.00000000000E+00  0.28070676826E+02  0.28070676826E+02  0.00000000000E+00 0.  1.
         21   -1    0    0  502  503 -0.00000000000E+00 -0.00000000000E+00 -0.36533414091E+04  0.36533414091E+04  0.00000000000E+00 0.  1.
         -6    2    1    2    0  503 -0.23200532779E+03 -0.97488929804E+02 -0.23838834674E+04  0.24032629143E+04  0.17158579645E+03 0.  0.
        -24    2    3    3    0    0 -0.54124679180E+02  0.51061620279E+01 -0.82521776333E+03  0.83112165313E+03  0.82603217874E+02 0.  0.
          6    2    1    2  501    0  0.23200532779E+03  0.97488929804E+02 -0.12413872649E+04  0.12781491717E+04  0.17115022636E+03 0.  0.
         24    2    5    5    0    0  0.17456112424E+03  0.13580535339E+03 -0.95640469999E+03  0.98488284706E+03  0.79809724752E+02 0.  0.
          5    1    5    5  501    0  0.57444203552E+02 -0.38316423583E+02 -0.28498256493E+03  0.29326632461E+03  0.47000000000E+01 0. -1.
        -11    1    6    6    0    0  0.60872543178E+02  0.24047640835E+02 -0.42728096125E+03  0.43226470523E+03  0.00000000000E+00 0.  1.
         12    1    6    6    0    0  0.11368858106E+03  0.11175771255E+03 -0.52912373873E+03  0.55261814182E+03  0.00000000000E+00 0. -1.
         -5    1    3    3    0  503 -0.17788064861E+03 -0.10259509183E+03 -0.15586657040E+04  0.15721412611E+04  0.47000000000E+01 0.  1.
         11    1    4    4    0    0  0.53011689203E+01 -0.20025286036E+02 -0.66174253842E+02  0.69340798555E+02  0.00000000000E+00 0. -1.
        -12    1    4    4    0    0 -0.59425848100E+02  0.25131448064E+02 -0.75904350949E+03  0.76178085458E+03  0.00000000000E+00 0.  1.
</event>
<event>
12    1  0.1030140E-001  0.2258596E+03  0.7818608E-02  0.1129772E+00
         21   -1    0    0  501  502  0.00000000000E+00  0.00000000000E+00  0.40405860809E+03  0.40405860809E+03  0.00000000000E+00 0. -1.
         21   -1    0    0  502  503 -0.00000000000E+00 -0.00000000000E+00 -0.24658111993E+03  0.24658111993E+03  0.00000000000E+00 0.  1.
         -6    2    1    2    0  503 -0.14715914555E+03 -0.35049557010E+02 -0.14914560821E+03  0.26981132686E+03  0.16634137816E+03 0.  0.
        -24    2    3    3    0    0 -0.57307963075E+02 -0.50256830593E+02 -0.21946997633E+02  0.11326717113E+03  0.80856846938E+02 0.  0.
          6    2    1    2  501    0  0.14715914555E+03  0.35049557010E+02  0.30662309637E+03  0.38082840115E+03  0.16771482443E+03 0.  0.
         24    2    5    5    0    0  0.12060997047E+03  0.78759489480E+02  0.17307266426E+03  0.23774372409E+03  0.76276530277E+02 0.  0.
          5    1    5    5  501    0  0.26549175086E+02 -0.43709932469E+02  0.13355043211E+03  0.14308467706E+03  0.47000000000E+01 0. -1.
        -13    1    6    6    0    0  0.34048041308E+02  0.49038341401E+02  0.27354974662E+02  0.65668277601E+02  0.00000000000E+00 0.  1.
         14    1    6    6    0    0  0.86561929160E+02  0.29721148078E+02  0.14571768960E+03  0.17207544649E+03  0.00000000000E+00 0. -1.
         -5    1    3    3    0  503 -0.89851182479E+02  0.15207273583E+02 -0.12719861058E+03  0.15654415574E+03  0.47000000000E+01 0.  1.
         11    1    4    4    0    0 -0.27980787143E+02 -0.69376190746E+02 -0.67767196686E+01  0.75112610267E+02  0.00000000000E+00 0. -1.
        -12    1    4    4    0    0 -0.29327175932E+02  0.19119360153E+02 -0.15170277964E+02  0.38154560859E+02  0.00000000000E+00 0.  1.
</event>
<event>
12    1  0.1030140E-001  0.1808032E+03  0.7818608E-02  0.1167078E+00
         21   -1    0    0  501  502  0.00000000000E+00  0.00000000000E+00  0.12183380721E+04  0.12183380721E+04  0.00000000000E+00 0. -1.
         21   -1    0    0  502  503 -0.00000000000E+00 -0.00000000000E+00 -0.38322456039E+02  0.38322456039E+02  0.00000000000E+00 0. -1.
         -6    2    1    2    0  503  0.17922697787E+01  0.54653850802E+02  0.24524865788E+03  0.30456858411E+03  0.17211874561E+03 0.  0.
        -24    2    3    3    0    0  0.30342052576E+02  0.92566476835E+02  0.12993636824E+03  0.17978288199E+03  0.77131265230E+02 0.  0.
          6    2    1    2  501    0 -0.17922697787E+01 -0.54653850802E+02  0.93476695820E+03  0.95209194406E+03  0.17233556847E+03 0.  0.
         24    2    5    5    0    0  0.17808553458E+01 -0.67052931788E+02  0.93246393290E+03  0.93816720499E+03  0.78545854477E+02 0.  0.
          5    1    5    5  501    0 -0.35731251245E+01  0.12399080987E+02  0.23030252981E+01  0.13924739064E+02  0.47000000000E+01 0. -1.
        -13    1    6    6    0    0  0.26370480944E+02 -0.17459878192E+02  0.12982588921E+03  0.13362264449E+03  0.00000000000E+00 0.  1.
         14    1    6    6    0    0 -0.24589625598E+02 -0.49593053597E+02  0.80263804370E+03  0.80454456051E+03  0.00000000000E+00 0. -1.
         -5    1    3    3    0  503 -0.28549782797E+02 -0.37912626033E+02  0.11531228964E+03  0.12478570212E+03  0.47000000000E+01 0.  1.
         11    1    4    4    0    0  0.40734301505E+02  0.11441135183E+02  0.48575137270E+02  0.64418373576E+02  0.00000000000E+00 0. -1.
        -12    1    4    4    0    0 -0.10392248929E+02  0.81125341652E+02  0.81361230974E+02  0.11536450841E+03  0.00000000000E+00 0.  1.
</event>
<event>
12    1  0.1030140E-001  0.1803289E+03  0.7818608E-02  0.1167610E+00
         21   -1    0    0  501  502  0.00000000000E+00  0.00000000000E+00  0.76570142574E+03  0.76570142574E+03  0.00000000000E+00 0.  1.
         21   -1    0    0  502  503 -0.00000000000E+00 -0.00000000000E+00 -0.52912072649E+02  0.52912072649E+02  0.00000000000E+00 0.  1.
         -6    2    1    2    0  503 -0.35453982138E+01 -0.54545268288E+02  0.17309372127E+03  0.24958812340E+03  0.17130393708E+03 0.  0.
        -24    2    3    3    0    0 -0.17299034390E+02  0.35632250076E+02  0.91882863811E+02  0.12736520945E+03  0.78806865685E+02 0.  0.
          6    2    1    2  501    0  0.35453982138E+01  0.54545268288E+02  0.53969563183E+03  0.56902537499E+03  0.17184512280E+03 0.  0.
         24    2    5    5    0    0  0.33673252274E+02  0.35093326290E+02  0.52001444373E+03  0.52784886709E+03  0.76445898100E+02 0.  0.
          5    1    5    5  501    0 -0.30127854060E+02  0.19451941998E+02  0.19681188097E+02  0.41176507898E+02  0.47000000000E+01 0. -1.
        -13    1    6    6    0    0  0.12316464939E+02  0.12942066148E+02  0.46053800728E+03  0.46088441993E+03  0.00000000000E+00 0.  1.
         14    1    6    6    0    0  0.21356787335E+02  0.22151260142E+02  0.59476436444E+02  0.66964447159E+02  0.00000000000E+00 0. -1.
         -5    1    3    3    0  503  0.13753636176E+02 -0.90177518364E+02  0.81210857455E+02  0.12222291395E+03  0.47000000000E+01 0.  1.
         11    1    4    4    0    0  0.30594908907E+02  0.19785406554E+02  0.27920798354E+02  0.45902960082E+02  0.00000000000E+00 0. -1.
        -12    1    4    4    0    0 -0.47893943297E+02  0.15846843522E+02  0.63962065457E+02  0.81462249366E+02  0.00000000000E+00 0.  1.
</event>
<event>
12    1  0.1030140E-001  0.1802645E+03  0.7818608E-02  0.1167833E+00
         21   -1    0    0  503  502  0.00000000000E+00  0.00000000000E+00  0.81328986795E+02  0.81328986795E+02  0.00000000000E+00 0. -1.
         21   -1    0    0  501  503 -0.00000000000E+00 -0.00000000000E+00 -0.44179104425E+03  0.44179104425E+03  0.00000000000E+00 0.  1.
          6    2    1    2  501    0 -0.21358677869E+02 -0.50146047255E+02 -0.26409698970E+03  0.31975383573E+03  0.17182687892E+03 0.  0.
         24    2    3    3    0    0 -0.44564357683E+02 -0.35838340476E+02 -0.27225390682E+03  0.29091221050E+03  0.85072650229E+02 0.  0.
         -6    2    1    2    0  502  0.21358677869E+02  0.50146047255E+02 -0.96365067759E+02  0.20336619532E+03  0.17058946022E+03 0.  0.
        -24    2    5    5    0    0  0.73514538598E+02  0.83184298189E+01 -0.35652199627E+02  0.11293431075E+03  0.77520936188E+02 0.  0.
          5    1    3    3  501    0  0.23205679814E+02 -0.14307706779E+02  0.81569171201E+01  0.28841625229E+02  0.47000000000E+01 0. -1.
        -13    1    4    4    0    0  0.11709969661E+01 -0.49601470818E+02 -0.18389935086E+03  0.19047479725E+03  0.00000000000E+00 0.  1.
         14    1    4    4    0    0 -0.45735354649E+02  0.13763130342E+02 -0.88354555959E+02  0.10043741325E+03  0.00000000000E+00 0. -1.
         -5    1    5    5    0  502 -0.52155860729E+02  0.41827617436E+02 -0.60712868132E+02  0.90431884563E+02  0.47000000000E+01 0.  1.
         11    1    6    6    0    0 -0.10594224014E+01 -0.21822503719E+02  0.55765892241E+01  0.22548667183E+02  0.00000000000E+00 0. -1.
        -12    1    6    6    0    0  0.74573961000E+02  0.30140933538E+02 -0.41228788851E+02  0.90385643571E+02  0.00000000000E+00 0.  1.
</event>
<event>
12    1  0.1030140E-001  0.1775572E+03  0.7818608E-02  0.1170459E+00
         21   -1    0    0  501  502  0.00000000000E+00  0.00000000000E+00  0.11962964970E+03  0.11962964970E+03  0.00000000000E+00 0.  1.
         21   -1    0    0  502  503 -0.00000000000E+00 -0.00000000000E+00 -0.26669919726E+03  0.26669919726E+03  0.00000000000E+00 0.  1.
         -6    2    1    2    0  503  0.18778770850E+02 -0.35948923611E+02 -0.99639107613E+02  0.20360384533E+03  0.17286297094E+03 0.  0.
        -24    2    3    3    0    0  0.73073383004E+02 -0.40463125513E+02 -0.34093805315E+02  0.11824249821E+03  0.76432434169E+02 0.  0.
          6    2    1    2  501    0 -0.18778770850E+02  0.35948923611E+02 -0.47430439944E+02  0.18272500163E+03  0.17173762617E+03 0.  0.
         24    2    5    5    0    0 -0.32643995731E+02 -0.43156104813E+02 -0.24596291391E+02  0.99098819584E+02  0.79293875254E+02 0.  0.
          5    1    5    5  501    0  0.13865224881E+02  0.79105028424E+02 -0.22834148552E+02  0.83626182043E+02  0.47000000000E+01 0. -1.
        -11    1    6    6    0    0 -0.33347519732E+02  0.35349484707E+01  0.16061855017E+02  0.37182470595E+02  0.00000000000E+00 0.  1.
         12    1    6    6    0    0  0.70352400043E+00 -0.46691053284E+02 -0.40658146408E+02  0.61916348989E+02  0.00000000000E+00 0. -1.
         -5    1    3    3    0  503 -0.54294612154E+02  0.45142019016E+01 -0.65545302299E+02  0.85361347114E+02  0.47000000000E+01 0.  1.
         13    1    4    4    0    0  0.31534053237E+02 -0.57720906367E+02 -0.80462032218E+01  0.66263420766E+02  0.00000000000E+00 0. -1.
        -14    1    4    4    0    0  0.41539329767E+02  0.17257780854E+02 -0.26047602093E+02  0.51979077448E+02  0.00000000000E+00 0.  1.
</event>
<event>
12    1  0.1030140E-001  0.1786773E+03  0.7818608E-02  0.1169542E+00
         21   -1    0    0  501  502  0.00000000000E+00  0.00000000000E+00  0.21105703571E+03  0.21105703571E+03  0.00000000000E+00 0. -1.
         21   -1    0    0  502  503 -0.00000000000E+00 -0.00000000000E+00 -0.15523645809E+03  0.15523645809E+03  0.00000000000E+00 0. -1.
         -6    2    1    2    0  503 -0.42308752831E+02 -0.11399310877E+02 -0.65060115192E+01  0.17879567503E+03  0.17322121801E+03 0.  0.
        -24    2    3    3    0    0 -0.50512112726E+02 -0.59908369171E+02 -0.39514491848E+02  0.11936442379E+03  0.80907257849E+02 0.  0.
          6    2    1    2  501    0  0.42308752831E+02  0.11399310877E+02  0.62326589141E+02  0.18749781876E+03  0.17132090787E+03 0.  0.
         24    2    5    5    0    0 -0.68653417066E+01 -0.42164755939E+02  0.69301994139E+02  0.11429981946E+03  0.80228939766E+02 0.  0.
          5    1    5    5  501    0  0.49174094538E+02  0.53564066815E+02 -0.69754049979E+01  0.73197999305E+02  0.47000000000E+01 0. -1.
        -13    1    6    6    0    0 -0.11359760377E+02 -0.18305831510E+02 -0.15208317829E+02  0.26371206918E+02  0.00000000000E+00 0.  1.
         14    1    6    6    0    0  0.44944186703E+01 -0.23858924429E+02  0.84510311968E+02  0.87928612539E+02  0.00000000000E+00 0. -1.
         -5    1    3    3    0  503  0.82033598942E+01  0.48509058295E+02  0.33008480329E+02  0.59431251239E+02  0.47000000000E+01 0.  1.
         13    1    4    4    0    0 -0.41645557958E+02 -0.52877547957E+01 -0.47571077854E+02  0.63445411943E+02  0.00000000000E+00 0. -1.
        -14    1    4    4    0    0 -0.88665547679E+01 -0.54620614376E+02  0.80565860065E+01  0.55919011850E+02  0.00000000000E+00 0.  1.
</event>
<event>
12    1  0.1030140E-001  0.1934321E+03  0.7818608E-02  0.1155764E+00
         21   -1    0    0  501  502  0.00000000000E+00  0.00000000000E+00  0.87351803904E+02  0.87351803904E+02  0.00000000000E+00 0.  1.
         21   -1    0    0  502  503 -0.00000000000E+00 -0.00000000000E+00 -0.73454392605E+03  0.73454392605E+03  0.00000000000E+00 0. -1.
         -6    2    1    2    0  503 -0.38586916384E+01 -0.89388757281E+02 -0.59128326894E+03  0.62211886985E+03  0.17149561123E+03 0.  0.
        -24    2    3    3    0    0  0.61311127747E+02 -0.72771914485E+02 -0.42749982928E+03  0.44500215711E+03  0.78841676049E+02 0.  0.
          6    2    1    2  501    0  0.38586916384E+01  0.89388757281E+02 -0.55908853205E+02  0.19977686010E+03  0.16964596823E+03 0.  0.
         24    2    5    5    0    0  0.45867609205E+02  0.34019720326E+02 -0.78380148336E+02  0.12658172014E+03  0.81352967222E+02 0.  0.
          5    1    5    5  501    0 -0.42008917567E+02  0.55369036955E+02  0.22471295131E+02  0.73195139957E+02  0.47000000000E+01 0. -1.
        -13    1    6    6    0    0 -0.13595529773E+02 -0.15587880877E+02 -0.88102670924E+01  0.22482020957E+02  0.00000000000E+00 0.  1.
         14    1    6    6    0    0  0.59463138978E+02  0.49607601204E+02 -0.69569881244E+02  0.10409969919E+03  0.00000000000E+00 0. -1.
         -5    1    3    3    0  503 -0.65169819386E+02 -0.16616842796E+02 -0.16378343966E+03  0.17711671274E+03  0.47000000000E+01 0.  1.
         11    1    4    4    0    0  0.24915624830E+02 -0.59043511054E+02 -0.12965826779E+03  0.14463122403E+03  0.00000000000E+00 0. -1.
        -12    1    4    4    0    0  0.36395502918E+02 -0.13728403430E+02 -0.29784156148E+03  0.30037093308E+03  0.00000000000E+00 0.  1.
</event>
<event>
12    1  0.1030140E-001  0.1740015E+03  0.7818608E-02  0.1173860E+00
         21   -1    0    0  501  502  0.00000000000E+00  0.00000000000E+00  0.18621104458E+04  0.18621104458E+04  0.00000000000E+00 0. -1.
         21   -1    0    0  502  503 -0.00000000000E+00 -0.00000000000E+00 -0.26302344949E+02  0.26302344949E+02  0.00000000000E+00 0. -1.
         -6    2    1    2    0  503  0.19594674702E+02 -0.13158806005E+02  0.33393229182E+03  0.37654652737E+03  0.17239317361E+03 0.  0.
        -24    2    3    3    0    0  0.54817560148E+02  0.44312512838E+02  0.19970165057E+03  0.22626825483E+03  0.79674401223E+02 0.  0.
          6    2    1    2  501    0 -0.19594674702E+02  0.13158806005E+02  0.15018758091E+04  0.15118662634E+04  0.17190563432E+03 0.  0.
         24    2    5    5    0    0  0.44542001793E+02  0.30249784649E+02  0.79177777343E+03  0.79865737042E+03  0.89680061485E+02 0.  0.
          5    1    5    5  501    0 -0.64136676495E+02 -0.17090978644E+02  0.71009803562E+03  0.71320889297E+03  0.47000000000E+01 0. -1.
        -11    1    6    6    0    0  0.13992820324E+02 -0.12912646324E+02  0.33460221349E+02  0.38498335918E+02  0.00000000000E+00 0.  1.
         12    1    6    6    0    0  0.30549181469E+02  0.43162430973E+02  0.75831755208E+03  0.76015903450E+03  0.00000000000E+00 0. -1.
         -5    1    3    3    0  503 -0.35222885446E+02 -0.57471318843E+02  0.13423064125E+03  0.15027827254E+03  0.47000000000E+01 0.  1.
         13    1    4    4    0    0  0.60675535786E+02  0.13930023794E+00  0.13116923900E+03  0.14452304075E+03  0.00000000000E+00 0. -1.
        -14    1    4    4    0    0 -0.58579756383E+01  0.44173212600E+02  0.68532411564E+02  0.81745214079E+02  0.00000000000E+00 0.  1.
</event>
<event>
12    1  0.1030140E-001  0.1798700E+03  0.7818608E-02  0.1168106E+00
         21   -1    0    0  503  502  0.00000000000E+00  0.00000000000E+00  0.54200442903E+03  0.54200442903E+03  0.00000000000E+00 0.  1.
         21   -1    0    0  501  503 -0.00000000000E+00 -0.00000000000E+00 -0.12055740813E+03  0.12055740813E+03  0.00000000000E+00 0.  1.
          6    2    1    2  501    0 -0.22881929904E+01  0.53412063689E+02 -0.24920263717E+02  0.18158814311E+03  0.17174152031E+03 0.  0.
         24    2    3    3    0    0 -0.32788070455E+02  0.65359419452E+02  0.35979364559E+02  0.11227842835E+03  0.77233538857E+02 0.  0.
         -6    2    1    2    0  502  0.22881929904E+01 -0.53412063689E+02  0.44636728462E+03  0.48097369405E+03  0.17097911339E+03 0.  0.
        -24    2    5    5    0    0 -0.10718845575E+01 -0.22446470808E+02  0.85334112778E+02  0.11856894900E+03  0.79194014139E+02 0.  0.
          5    1    3    3  501    0  0.30499877465E+02 -0.11947355763E+02 -0.60899628276E+02  0.69309714754E+02  0.47000000000E+01 0. -1.
        -11    1    4    4    0    0 -0.40257113546E+02  0.42469686051E+02 -0.10949633387E+02  0.59533216742E+02  0.00000000000E+00 0.  1.
         12    1    4    4    0    0  0.74690430903E+01  0.22889733400E+02  0.46928997946E+02  0.52745211612E+02  0.00000000000E+00 0. -1.
         -5    1    5    5    0  502  0.33600775478E+01 -0.30965592880E+02  0.36103317184E+03  0.36240474505E+03  0.47000000000E+01 0.  1.
         13    1    6    6    0    0 -0.26735347841E+02  0.26828896093E+01  0.77198766720E+02  0.81741215455E+02  0.00000000000E+00 0. -1.
        -14    1    6    6    0    0  0.25663463284E+02 -0.25129360418E+02  0.81353460574E+01  0.36827733547E+02  0.00000000000E+00 0.  1.
</event>
<event>
12    1  0.1030140E-001  0.2108118E+03  0.7818608E-02  0.1141286E+00
         21   -1    0    0  501  502  0.00000000000E+00  0.00000000000E+00  0.58589454581E+02  0.58589454581E+02  0.00000000000E+00 0.  1.
         21   -1    0    0  502  503 -0.00000000000E+00 -0.00000000000E+00 -0.22433994737E+04  0.22433994737E+04  0.00000000000E+00 0. -1.
         -6    2    1    2    0  503  0.24593542064E+02 -0.11973485722E+03 -0.20324626813E+04  0.20433663844E+04  0.17175666397E+03 0.  0.
        -24    2    3    3    0    0  0.46559455918E+02 -0.14544098013E+03 -0.18268828500E+04  0.18349714153E+04  0.79361738232E+02 0.  0.
          6    2    1    2  501    0 -0.24593542064E+02  0.11973485722E+03 -0.15234733788E+03  0.25862254395E+03  0.16951292145E+03 0.  0.
         24    2    5    5    0    0  0.17604057666E+02  0.86781707051E+02 -0.22423326633E+02  0.11802067260E+03  0.74733567155E+02 0.  0.
          5    1    5    5  501    0 -0.42197599729E+02  0.32953150165E+02 -0.12992401125E+03  0.14060187135E+03  0.47000000000E+01 0. -1.
        -13    1    6    6    0    0 -0.19519282540E+02  0.49186873530E-01  0.42551298847E+01  0.19977761150E+02  0.00000000000E+00 0.  1.
         14    1    6    6    0    0  0.37123340206E+02  0.86732520177E+02 -0.26678456518E+02  0.98042911454E+02  0.00000000000E+00 0. -1.
         -5    1    3    3    0  503 -0.21965913854E+02  0.25706122919E+02 -0.20557983125E+03  0.20839496910E+03  0.47000000000E+01 0.  1.
         13    1    4    4    0    0  0.35409313080E+02 -0.51258849496E+02 -0.11231708666E+04  0.11248973663E+04  0.00000000000E+00 0. -1.
        -14    1    4    4    0    0  0.11150142837E+02 -0.94182130638E+02 -0.70371198342E+03  0.71007404897E+03  0.00000000000E+00 0.  1.
</event>
<event>
12    1  0.1030140E-001  0.2572369E+03  0.7818608E-02  0.1110849E+00
         21   -1    0    0  501  502  0.00000000000E+00  0.00000000000E+00  0.61176549314E+02  0.61176549314E+02  0.00000000000E+00 0.  1.
         21   -1    0    0  502  503 -0.00000000000E+00 -0.00000000000E+00 -0.10718527165E+04  0.10718527165E+04  0.00000000000E+00 0.  1.
         -6    2    1    2    0  503  0.34897272017E+02  0.16905390478E+03 -0.63283095188E+03  0.68311480512E+03  0.19071911544E+03 0.  0.
        -24    2    3    3    0    0 -0.28413560506E+02  0.12126731077E+03 -0.54501119856E+03  0.56468246513E+03  0.79473195401E+02 0.  0.
          6    2    1    2  501    0 -0.34897272017E+02 -0.16905390478E+03 -0.37784521534E+03  0.44991446073E+03  0.17279749103E+03 0.  0.
         24    2    5    5    0    0  0.14039476427E+02 -0.30483239286E+02 -0.20827647172E+03  0.22547675557E+03  0.79588591246E+02 0.  0.
          5    1    5    5  501    0 -0.48936748443E+02 -0.13857066550E+03 -0.16956874362E+03  0.22443770516E+03  0.47000000000E+01 0. -1.
        -11    1    6    6    0    0 -0.98242442661E+01 -0.52797679068E+02 -0.12960237187E+03  0.14028857931E+03  0.00000000000E+00 0.  1.
         12    1    6    6    0    0  0.23863720693E+02  0.22314439782E+02 -0.78674099845E+02  0.85188176261E+02  0.00000000000E+00 0. -1.
         -5    1    3    3    0  503  0.63310832522E+02  0.47786594007E+02 -0.87819753328E+02  0.11843233999E+03  0.47000000000E+01 0.  1.
         13    1    4    4    0    0 -0.29027503551E+02  0.34607896031E+01 -0.87860089455E+02  0.92595725312E+02  0.00000000000E+00 0. -1.
        -14    1    4    4    0    0  0.61394304508E+00  0.11780652117E+03 -0.45715110910E+03  0.47208673981E+03  0.00000000000E+00 0.  1.
</event>
<event>
12    1  0.1030140E-001  0.2346266E+03  0.7818608E-02  0.1125946E+00
         21   -1    0    0  501  502  0.00000000000E+00  0.00000000000E+00  0.25070984591E+04  0.25070984591E+04  0.00000000000E+00 0.  1.
         21   -1    0    0  502  503 -0.00000000000E+00 -0.00000000000E+00 -0.21979646556E+02  0.21979646556E+02  0.00000000000E+00 0. -1.
         -6    2    1    2    0  503 -0.12165753656E+02  0.13522597049E+03  0.89490149498E+03  0.92164513376E+03  0.17362890949E+03 0.  0.
        -24    2    3    3    0    0 -0.30720441255E+02  0.14122141593E+03  0.50411484247E+03  0.53034407374E+03  0.79030553058E+02 0.  0.
          6    2    1    2  501    0  0.12165753656E+02 -0.13522597049E+03  0.15902173176E+04  0.16074329719E+04  0.19135196210E+03 0.  0.
         24    2    5    5    0    0 -0.18689306729E+02 -0.29263323584E+02  0.11598764050E+04  0.11631408289E+04  0.79860382618E+02 0.  0.
          5    1    5    5  501    0  0.30855060385E+02 -0.10596264690E+03  0.43034091253E+03  0.44429214295E+03  0.47000000000E+01 0. -1.
        -11    1    6    6    0    0 -0.14417986113E+02 -0.54526760825E+02  0.95574270536E+03  0.95740543387E+03  0.00000000000E+00 0.  1.
         12    1    6    6    0    0 -0.42713206156E+01  0.25263437241E+02  0.20413369967E+03  0.20573539506E+03  0.00000000000E+00 0. -1.
         -5    1    3    3    0  503  0.18554687599E+02 -0.59954454448E+01  0.39078665251E+03  0.39130106002E+03  0.47000000000E+01 0.  1.
         13    1    4    4    0    0 -0.39087899763E+02  0.64761819607E+02  0.35024947414E+03  0.35832478469E+03  0.00000000000E+00 0. -1.
        -14    1    4    4    0    0  0.83674585080E+01  0.76459596325E+02  0.15386536833E+03  0.17201928904E+03  0.00000000000E+00 0.  1.
</event>
<event>
12    1  0.1030140E-001  0.1972745E+03  0.7818608E-02  0.1152727E+00
         21   -1    0    0  503  502  0.00000000000E+00  0.00000000000E+00  0.68498513835E+02  0.68498513835E+02  0.00000000000E+00 0.  1.
         21   -1    0    0  501  503 -0.00000000000E+00 -0.00000000000E+00 -0.59210435416E+03  0.59210435416E+03  0.00000000000E+00 0.  1.
          6    2    1    2  501    0  0.48662965621E+01 -0.95238437958E+02 -0.33759827297E+03  0.38946441087E+03  0.16916232594E+03 0.  0.
         24    2    3    3    0    0  0.43344489862E+02 -0.10492933494E+03 -0.18483719637E+03  0.23156405823E+03  0.81044517186E+02 0.  0.
         -6    2    1    2    0  502 -0.48662965621E+01  0.95238437958E+02 -0.18600756735E+03  0.27113845712E+03  0.17269396894E+03 0.  0.
        -24    2    5    5    0    0 -0.47265032365E+02  0.92732703605E+02 -0.72025807434E+02  0.14940981178E+03  0.79386631850E+02 0.  0.
          5    1    3    3  501    0 -0.38478193300E+02  0.96908969812E+01 -0.15276107660E+03  0.15790035265E+03  0.47000000000E+01 0. -1.
        -13    1    4    4    0    0  0.40839011898E+02 -0.77297441431E+02 -0.18410723296E+03  0.20380920630E+03  0.00000000000E+00 0.  1.
         14    1    4    4    0    0  0.25054779638E+01 -0.27631893508E+02 -0.72996341206E+00  0.27754851923E+02  0.00000000000E+00 0. -1.
         -5    1    5    5    0  502  0.42398735803E+02  0.25057343532E+01 -0.11398175992E+03  0.12172864534E+03  0.47000000000E+01 0.  1.
         11    1    6    6    0    0 -0.40372707010E+02  0.25530635311E+01 -0.22971328342E+02  0.46520485063E+02  0.00000000000E+00 0. -1.
        -12    1    6    6    0    0 -0.68923253544E+01  0.90179640074E+02 -0.49054479092E+02  0.10288932671E+03  0.00000000000E+00 0.  1.
</event>
<event>
12    1  0.1030140E-001  0.1989667E+03  0.7818608E-02  0.1151084E+00
         21   -1    0    0  501  502  0.00000000000E+00  0.00000000000E+00  0.83192088802E+02  0.83192088802E+02  0.00000000000E+00 0.  1.
         21   -1    0    0  502  503 -0.00000000000E+00 -0.00000000000E+00 -0.48774067255E+03  0.48774067255E+03  0.00000000000E+00 0.  1.
         -6    2    1    2    0  503  0.51014952099E+02  0.84176342331E+02 -0.25685603966E+03  0.32490426518E+03  0.17291493422E+03 0.  0.
        -24    2    3    3    0    0 -0.35311114788E+02  0.43157348660E+02 -0.17179642766E+03  0.19687311561E+03  0.78329940143E+02 0.  0.
          6    2    1    2  501    0 -0.51014952099E+02 -0.84176342331E+02 -0.14769254409E+03  0.24602849617E+03  0.17037825977E+03 0.  0.
         24    2    5    5    0    0 -0.88359274943E+02 -0.49867893215E+02 -0.55247638149E+02  0.14048315633E+03  0.79931517239E+02 0.  0.
          5    1    5    5  501    0  0.37344322844E+02 -0.34308449116E+02 -0.92444905937E+02  0.10554533985E+03  0.47000000000E+01 0. -1.
        -11    1    6    6    0    0 -0.15346447545E+02 -0.52864450590E+02 -0.32617829217E+02  0.63985048029E+02  0.00000000000E+00 0.  1.
         12    1    6    6    0    0 -0.73012827398E+02  0.29965573754E+01 -0.22629808932E+02  0.76498108297E+02  0.00000000000E+00 0. -1.
         -5    1    3    3    0  503  0.86326066886E+02  0.41018993671E+02 -0.85059611999E+02  0.12803114957E+03  0.47000000000E+01 0.  1.
         13    1    4    4    0    0  0.79861747882E+01 -0.18233303671E+02 -0.24867423619E+02  0.31853117712E+02  0.00000000000E+00 0. -1.
        -14    1    4    4    0    0 -0.43297289576E+02  0.61390652331E+02 -0.14692900404E+03  0.16501999790E+03  0.00000000000E+00 0.  1.
</event>
<event>
12    1  0.1030140E-001  0.1806319E+03  0.7818608E-02  0.1167257E+00
         21   -1    0    0  501  502  0.00000000000E+00  0.00000000000E+00  0.12696744187E+04  0.12696744187E+04  0.00000000000E+00 0. -1.
         21   -1    0    0  502  503 -0.00000000000E+00 -0.00000000000E+00 -0.25659741021E+02  0.25659741021E+02  0.00000000000E+00 0. -1.
         -6    2    1    2    0  503  0.10734342624E+02  0.53614968507E+02  0.62272071346E+03  0.64838951171E+03  0.17215714035E+03 0.  0.
        -24    2    3    3    0    0  0.32313923840E+02  0.53467506766E+02  0.61729907465E+03  0.62564782669E+03  0.80461739522E+02 0.  0.
          6    2    1    2  501    0 -0.10734342624E+02 -0.53614968507E+02  0.62129396424E+03  0.64694464803E+03  0.17187610843E+03 0.  0.
         24    2    5    5    0    0  0.41631634611E+02 -0.47473743905E+02  0.21979559344E+03  0.24197188108E+03  0.79078056233E+02 0.  0.
          5    1    5    5  501    0 -0.52365977236E+02 -0.61412246023E+01  0.40149837080E+03  0.40497276695E+03  0.47000000000E+01 0. -1.
        -13    1    6    6    0    0  0.79177697567E+01  0.88081651218E+01 -0.75721511072E+00  0.11867949505E+02  0.00000000000E+00 0.  1.
         14    1    6    6    0    0  0.33713864854E+02 -0.56281909027E+02  0.22055280855E+03  0.23010393157E+03  0.00000000000E+00 0. -1.
         -5    1    3    3    0  503 -0.21579581215E+02  0.14746174158E+00  0.54216388111E+01  0.22741685026E+02  0.47000000000E+01 0.  1.
         11    1    4    4    0    0  0.16661948963E+01  0.67440004773E+02  0.37512495751E+03  0.38114257725E+03  0.00000000000E+00 0. -1.
        -12    1    4    4    0    0  0.30647728944E+02 -0.13972498007E+02  0.24217411714E+03  0.24450524944E+03  0.00000000000E+00 0.  1.
</event>
<event>
12    1  0.1030140E-001  0.2128110E+03  0.7818608E-02  0.1139849E+00
         21   -1    0    0  501  502  0.00000000000E+00  0.00000000000E+00  0.29592571726E+03  0.29592571726E+03  0.00000000000E+00 0. -1.
         21   -1    0    0  502  503 -0.00000000000E+00 -0.00000000000E+00 -0.17076160891E+03  0.17076160891E+03  0.00000000000E+00 0. -1.
         -6    2    1    2    0  503  0.45335145893E+02 -0.11200367470E+03 -0.16630631569E+02  0.21096433270E+03  0.17213155772E+03 0.  0.
        -24    2    3    3    0    0  0.66825580364E+02 -0.76695810058E+02 -0.67373996684E+02  0.14534830430E+03  0.78987142385E+02 0.  0.
          6    2    1    2  501    0 -0.45335145893E+02  0.11200367470E+03  0.14179473992E+03  0.25572299347E+03  0.17518105640E+03 0.  0.
         24    2    5    5    0    0  0.33026812105E+02  0.10219783428E+03  0.91179675893E+02  0.16180427503E+03  0.79572121204E+02 0.  0.
          5    1    5    5  501    0 -0.78361957998E+02  0.98058404229E+01  0.50615064030E+02  0.93918718446E+02  0.47000000000E+01 0. -1.
        -11    1    6    6    0    0  0.15462627636E+02  0.48645924991E+01 -0.11005583806E+02  0.19592855548E+02  0.00000000000E+00 0.  1.
         12    1    6    6    0    0  0.17564184469E+02  0.97333241777E+02  0.10218525970E+03  0.14221141948E+03  0.00000000000E+00 0. -1.
         -5    1    3    3    0  503 -0.21490434471E+02 -0.35307864641E+02  0.50743365116E+02  0.65616028397E+02  0.47000000000E+01 0.  1.
         11    1    4    4    0    0  0.73225826426E+02 -0.38381259566E+02 -0.21869904154E+02  0.85518626329E+02  0.00000000000E+00 0. -1.
        -12    1    4    4    0    0 -0.64002460614E+01 -0.38314550492E+02 -0.45504092530E+02  0.59829677970E+02  0.00000000000E+00 0.  1.
</event>
<event>
12    1  0.1030140E-001  0.1873772E+03  0.7818608E-02  0.1162037E+00
         21   -1    0    0  503  502  0.00000000000E+00  0.00000000000E+00  0.21201615938E+03  0.21201615938E+03  0.00000000000E+00 0. -1.
         21   -1    0    0  501  503 -0.00000000000E+00 -0.00000000000E+00 -0.20088587797E+03  0.20088587797E+03  0.00000000000E+00 0. -1.
          6    2    1    2  501    0  0.23531305780E+02  0.66947626592E+02  0.97347363329E+02  0.20664104989E+03  0.16789373810E+03 0.  0.
         24    2    3    3    0    0  0.34170634200E+02  0.38823213968E+02  0.12978108517E+03  0.16216392985E+03  0.82335508077E+02 0.  0.
         -6    2    1    2    0  502 -0.23531305780E+02 -0.66947626592E+02 -0.86217081915E+02  0.20626098746E+03  0.17342001809E+03 0.  0.
        -24    2    5    5    0    0  0.26285092154E+02 -0.41262731369E+02 -0.11077823576E+03  0.14488731538E+03  0.79542426225E+02 0.  0.
          5    1    3    3  501    0 -0.10639328420E+02  0.28124412624E+02 -0.32433721843E+02  0.44477120042E+02  0.47000000000E+01 0. -1.
        -13    1    4    4    0    0  0.42925376952E+02 -0.75240856030E+01  0.33560478340E+02  0.55004595781E+02  0.00000000000E+00 0.  1.
         14    1    4    4    0    0 -0.87547427519E+01  0.46347299571E+02  0.96220606832E+02  0.10715933406E+03  0.00000000000E+00 0. -1.
         -5    1    5    5    0  502 -0.49816397934E+02 -0.25684895222E+02  0.24561153848E+02  0.61373672076E+02  0.47000000000E+01 0.  1.
         13    1    6    6    0    0 -0.96360964897E+01 -0.53883994295E+02 -0.73083035939E+02  0.91309743942E+02  0.00000000000E+00 0. -1.
        -14    1    6    6    0    0  0.35921188644E+02  0.12621262926E+02 -0.37695199824E+02  0.53577571438E+02  0.00000000000E+00 0.  1.
</event>
<event>
12    1  0.1030140E-001  0.1731054E+03  0.7818608E-02  0.1174800E+00
         21   -1    0    0  501  502  0.00000000000E+00  0.00000000000E+00  0.18512237367E+03  0.18512237367E+03  0.00000000000E+00 0.  1.
         21   -1    0    0  502  503 -0.00000000000E+00 -0.00000000000E+00 -0.36983454406E+03  0.36983454406E+03  0.00000000000E+00 0.  1.
         -6    2    1    2    0  503  0.49130782135E+01 -0.16793182233E+02 -0.30064116968E+03  0.34661822754E+03  0.17161856965E+03 0.  0.
        -24    2    3    3    0    0 -0.21060624076E+02 -0.73095054259E+02 -0.20157755431E+03  0.22965573828E+03  0.79509816235E+02 0.  0.
          6    2    1    2  501    0 -0.49130782135E+01  0.16793182233E+02  0.11592899929E+03  0.20833869019E+03  0.17221883651E+03 0.  0.
         24    2    5    5    0    0  0.42801962892E+01  0.49190857109E+02  0.71240783599E+01  0.94344276069E+02  0.80075148649E+02 0.  0.
          5    1    5    5  501    0 -0.91932745028E+01 -0.32397674875E+02  0.10880492093E+03  0.11399441413E+03  0.47000000000E+01 0. -1.
        -13    1    6    6    0    0 -0.34604004114E+02  0.51415227983E+01 -0.11805637674E+01  0.35003801054E+02  0.00000000000E+00 0.  1.
         14    1    6    6    0    0  0.38884200403E+02  0.44049334310E+02  0.83046421273E+01  0.59340475015E+02  0.00000000000E+00 0. -1.
         -5    1    3    3    0  503  0.25973702289E+02  0.56301872026E+02 -0.99063615372E+02  0.11696248926E+03  0.47000000000E+01 0.  1.
         13    1    4    4    0    0 -0.43869056918E+02 -0.40199697544E+02 -0.68729210211E+02  0.90907723400E+02  0.00000000000E+00 0. -1.
        -14    1    4    4    0    0  0.22808432842E+02 -0.32895356716E+02 -0.13284834410E+03  0.13874801488E+03  0.00000000000E+00 0.  1.
</event>
<event>
12    1  0.1030140E-001  0.1841293E+03  0.7818608E-02  0.1164383E+00
         21   -1    0    0  503  502  0.00000000000E+00  0.00000000000E+00  0.12786438708E+03  0.12786438708E+03  0.00000000000E+00 0. -1.
         21   -1    0    0  501  503 -0.00000000000E+00 -0.00000000000E+00 -0.29062160332E+03  0.29062160332E+03  0.00000000000E+00 0. -1.
          6    2    1    2  501    0 -0.43027022455E+02 -0.44494234576E+02 -0.14747240628E+03  0.23590612567E+03  0.17341432450E+03 0.  0.
         24    2    3    3    0    0  0.36478026285E+02 -0.30671652176E+02 -0.42920843270E+02  0.10375002143E+03  0.81550423124E+02 0.  0.
         -6    2    1    2    0  502  0.43027022455E+02  0.44494234576E+02 -0.15284809960E+02  0.18257986472E+03  0.17108687856E+03 0.  0.
        -24    2    5    5    0    0  0.43597502921E+02 -0.27967795061E+00  0.48301007950E+02  0.10466789562E+03  0.81985123790E+02 0.  0.
          5    1    3    3  501    0 -0.79505048740E+02 -0.13822582399E+02 -0.10455156301E+03  0.13215610424E+03  0.47000000000E+01 0. -1.
        -13    1    4    4    0    0  0.24707923686E+02 -0.51364029251E+02 -0.27609188177E+01  0.57064592056E+02  0.00000000000E+00 0.  1.
         14    1    4    4    0    0  0.11770102598E+02  0.20692377075E+02 -0.40159924452E+02  0.46685429378E+02  0.00000000000E+00 0. -1.
         -5    1    5    5    0  502 -0.57048046570E+00  0.44773912527E+02 -0.63585817911E+02  0.77911969108E+02  0.47000000000E+01 0.  1.
         11    1    6    6    0    0 -0.21155818067E+02  0.15017654782E+02  0.17872839897E+02  0.31504555214E+02  0.00000000000E+00 0. -1.
        -12    1    6    6    0    0  0.64753320988E+02 -0.15297332732E+02  0.30428168054E+02  0.73163340402E+02  0.00000000000E+00 0.  1.
</event>
<event>
12    1  0.1030140E-001  0.1936396E+03  0.7818608E-02  0.1155999E+00
         21   -1    0    0  501  502  0.00000000000E+00  0.00000000000E+00  0.14867715405E+03  0.14867715405E+03  0.00000000000E+00 0.  1.
         21   -1    0    0  502  503 -0.00000000000E+00 -0.00000000000E+00 -0.29030271339E+03  0.29030271339E+03  0.00000000000E+00 0. -1.
         -6    2    1    2    0  503 -0.81959907535E+02 -0.27741523404E+02 -0.15439221833E+03  0.24491985038E+03  0.16929783656E+03 0.  0.
        -24    2    3    3    0    0 -0.11645402415E+03  0.41531386404E+01 -0.13265609884E+03  0.19294233179E+03  0.77783767818E+02 0.  0.
          6    2    1    2  501    0  0.81959907535E+02  0.27741523404E+02  0.12766658997E+02  0.19406001705E+03  0.17323187949E+03 0.  0.
         24    2    5    5    0    0 -0.19368245556E+02  0.36963868044E+02  0.23952263756E+02  0.91592197696E+02  0.77935635387E+02 0.  0.
          5    1    5    5  501    0  0.10132815309E+03 -0.92223446395E+01 -0.11185604759E+02  0.10246781935E+03  0.47000000000E+01 0. -1.
        -11    1    6    6    0    0 -0.32971717891E+01  0.51339951042E+01  0.48127334067E+02  0.48512570865E+02  0.00000000000E+00 0.  1.
         12    1    6    6    0    0 -0.16071073767E+02  0.31829872940E+02 -0.24175070311E+02  0.43079626831E+02  0.00000000000E+00 0. -1.
         -5    1    3    3    0  503  0.34494116617E+02 -0.31894662045E+02 -0.21736119492E+02  0.51977518589E+02  0.47000000000E+01 0.  1.
         13    1    4    4    0    0 -0.59298857743E+02 -0.33995158782E+02 -0.46188673531E+02  0.82494962954E+02  0.00000000000E+00 0. -1.
        -14    1    4    4    0    0 -0.57155166408E+02  0.38148297423E+02 -0.86467425312E+02  0.11044736884E+03  0.00000000000E+00 0.  1.
</event>
<event>
12    1  0.1030140E-001  0.2219801E+03  0.7818608E-02  0.1132627E+00
         21   -1    0    0  503  502  0.00000000000E+00  0.00000000000E+00  0.57275448455E+02  0.57275448455E+02  0.00000000000E+00 0.  1.
         21   -1    0    0  501  503 -0.00000000000E+00 -0.00000000000E+00 -0.10451659238E+04  0.10451659238E+04  0.00000000000E+00 0. -1.
          6    2    1    2  501    0 -0.89775574429E+02  0.10563568898E+03 -0.72956648974E+03  0.76258928127E+03  0.17336838352E+03 0.  0.
         24    2    3    3    0    0 -0.10326480782E+03  0.71295661300E+02 -0.69650591945E+03  0.71282696393E+03  0.85176832684E+02 0.  0.
         -6    2    1    2    0  502  0.89775574429E+02 -0.10563568898E+03 -0.25832398562E+03  0.33985209100E+03  0.17189999901E+03 0.  0.
        -24    2    5    5    0    0  0.11911069979E+03 -0.55800911177E+02 -0.22662245105E+03  0.27373755438E+03  0.79204879040E+02 0.  0.
          5    1    3    3  501    0  0.13489233394E+02  0.34340027684E+02 -0.33060570296E+02  0.49762317342E+02  0.47000000000E+01 0. -1.
        -11    1    4    4    0    0 -0.94769596027E+01  0.72336141441E+01 -0.65855477711E+01  0.13620109263E+02  0.00000000000E+00 0.  1.
         12    1    4    4    0    0 -0.93787848221E+02  0.64062047156E+02 -0.68992037168E+03  0.69920685467E+03  0.00000000000E+00 0. -1.
         -5    1    5    5    0  502 -0.29335125357E+02 -0.49834777807E+02 -0.31701534562E+02  0.66114536619E+02  0.47000000000E+01 0.  1.
         11    1    6    6    0    0  0.45744374655E+02  0.11957634381E+02 -0.11282642277E+03  0.12233288400E+03  0.00000000000E+00 0. -1.
        -12    1    6    6    0    0  0.73366325131E+02 -0.67758545559E+02 -0.11379602829E+03  0.15140467038E+03  0.00000000000E+00 0.  1.
</event>
<event>
12    1  0.1030140E-001  0.2069225E+03  0.7818608E-02  0.1144518E+00
         21   -1    0    0  501  502  0.00000000000E+00  0.00000000000E+00  0.52563543063E+03  0.52563543063E+03  0.00000000000E+00 0. -1.
         21   -1    0    0  502  503 -0.00000000000E+00 -0.00000000000E+00 -0.26893786810E+03  0.26893786810E+03  0.00000000000E+00 0. -1.
         -6    2    1    2    0  503  0.11378412076E+03 -0.41111467397E+01 -0.20397139947E+03  0.29055338428E+03  0.17278081389E+03 0.  0.
        -24    2    3    3    0    0  0.13188148459E+03 -0.38843464360E+02 -0.12033406352E+03  0.19808099689E+03  0.76513095506E+02 0.  0.
          6    2    1    2  501    0 -0.11378412076E+03  0.41111467397E+01  0.46066896200E+03  0.50401991445E+03  0.16987187511E+03 0.  0.
         24    2    5    5    0    0 -0.53883562355E+02  0.43449134174E+02  0.13768337338E+03  0.17314632136E+03  0.78940938318E+02 0.  0.
          5    1    5    5  501    0 -0.59900558407E+02 -0.39337987434E+02  0.32298558862E+03  0.33087359310E+03  0.47000000000E+01 0. -1.
        -11    1    6    6    0    0 -0.37325648316E+02 -0.17600058449E+02  0.62475957660E+02  0.74874637663E+02  0.00000000000E+00 0.  1.
         12    1    6    6    0    0 -0.16557914039E+02  0.61049192623E+02  0.75207415719E+02  0.98271683695E+02  0.00000000000E+00 0. -1.
         -5    1    3    3    0  503 -0.18097363829E+02  0.34732317620E+02 -0.83637335949E+02  0.92472387389E+02  0.47000000000E+01 0.  1.
         11    1    4    4    0    0  0.83606574109E+02 -0.32556854823E+02 -0.11944654767E+03  0.14939038048E+03  0.00000000000E+00 0. -1.
        -12    1    4    4    0    0  0.48274910482E+02 -0.62866095371E+01 -0.88751584731E+00  0.48690616405E+02  0.00000000000E+00 0.  1.
</event>
<event>
12    1  0.1030140E-001  0.2102406E+03  0.7818608E-02  0.1141433E+00
         21   -1    0    0  503  502  0.00000000000E+00  0.00000000000E+00  0.20758549357E+03  0.20758549357E+03  0.00000000000E+00 0.  1.
         21   -1    0    0  501  503 -0.00000000000E+00 -0.00000000000E+00 -0.21285535737E+03  0.21285535737E+03  0.00000000000E+00 0.  1.
          6    2    1    2  501    0 -0.77334510526E+02  0.93021087205E+02 -0.93494561772E+01  0.21016070815E+03  0.17160000506E+03 0.  0.
         24    2    3    3    0    0 -0.76584343729E+02  0.74526325342E+02  0.54723296983E+02  0.14330245014E+03  0.78240770135E+02 0.  0.
         -6    2    1    2    0  502  0.77334510526E+02 -0.93021087205E+02  0.40795923821E+01  0.21028014279E+03  0.17195216252E+03 0.  0.
        -24    2    5    5    0    0  0.98528597387E+02 -0.40753996566E+02 -0.39527108126E+02  0.13883315257E+03  0.79645961842E+02 0.  0.
          5    1    3    3  501    0 -0.75016679729E+00  0.18494761863E+02 -0.64072753160E+02  0.66858258009E+02  0.47000000000E+01 0. -1.
        -13    1    4    4    0    0 -0.73303364254E+02  0.43674128301E+02  0.59988087719E+01  0.85538286167E+02  0.00000000000E+00 0.  1.
         14    1    4    4    0    0 -0.32809794752E+01  0.30852197042E+02  0.48724488211E+02  0.57764163977E+02  0.00000000000E+00 0. -1.
         -5    1    5    5    0  502 -0.21194086860E+02 -0.52267090639E+02  0.43606700508E+02  0.71446990216E+02  0.47000000000E+01 0.  1.
         11    1    6    6    0    0 -0.68812379184E+01  0.48631492309E+01  0.10577091151E+02  0.13523184276E+02  0.00000000000E+00 0. -1.
        -12    1    6    6    0    0  0.10540983531E+03 -0.45617145797E+02 -0.50104199277E+02  0.12530996830E+03  0.00000000000E+00 0.  1.
</event>
<event>
12    1  0.1030140E-001  0.2762275E+03  0.7818608E-02  0.1098138E+00
         21   -1    0    0  501  502  0.00000000000E+00  0.00000000000E+00  0.55188776940E+02  0.55188776940E+02  0.00000000000E+00 0.  1.
         21   -1    0    0  502  503 -0.00000000000E+00 -0.00000000000E+00 -0.15316059986E+04  0.15316059986E+04  0.00000000000E+00 0.  1.
         -6    2    1    2    0  503 -0.17218952708E+03 -0.12710360104E+03 -0.99964744030E+03  0.10371097484E+04  0.17463409399E+03 0.  0.
        -24    2    3    3    0    0 -0.15394264401E+03 -0.14051537828E+03 -0.98460841553E+03  0.10095219472E+04  0.78980508893E+02 0.  0.
          6    2    1    2  501    0  0.17218952708E+03  0.12710360104E+03 -0.47676978141E+03  0.54968502714E+03  0.17041022847E+03 0.  0.
         24    2    5    5    0    0  0.70196690755E+02  0.13228193104E+03 -0.27242093779E+03  0.32119018332E+03  0.80770550605E+02 0.  0.
          5    1    5    5  501    0  0.10199283633E+03 -0.51783300019E+01 -0.20434884362E+03  0.22849484382E+03  0.47000000000E+01 0. -1.
        -13    1    6    6    0    0  0.53815249446E+02  0.25613716033E+02 -0.71165969704E+02  0.92826390461E+02  0.00000000000E+00 0.  1.
         14    1    6    6    0    0  0.16381441309E+02  0.10666821501E+03 -0.20125496808E+03  0.22836379286E+03  0.00000000000E+00 0. -1.
         -5    1    3    3    0  503 -0.18246883077E+02  0.13411777247E+02 -0.15039024769E+02  0.27587801234E+02  0.47000000000E+01 0.  1.
         13    1    4    4    0    0 -0.68785186501E+02 -0.19562881124E+02 -0.40932557682E+03  0.41552561418E+03  0.00000000000E+00 0. -1.
        -14    1    4    4    0    0 -0.85157457506E+02 -0.12095249716E+03 -0.57528283871E+03  0.59399633303E+03  0.00000000000E+00 0.  1.
</event>
<event>
12    1  0.1030140E-001  0.2227705E+03  0.7818608E-02  0.1134864E+00
         21   -1    0    0  501  502  0.00000000000E+00  0.00000000000E+00  0.29707510199E+03  0.29707510199E+03  0.00000000000E+00 0.  1.
         21   -1    0    0  502  503 -0.00000000000E+00 -0.00000000000E+00 -0.16339749689E+03  0.16339749689E+03  0.00000000000E+00 0.  1.
         -6    2    1    2    0  503  0.50819966684E+02 -0.10276523365E+03  0.12023260994E+03  0.25314540089E+03  0.19100615497E+03 0.  0.
        -24    2    3    3    0    0  0.14314714830E+02  0.28046488145E+02  0.35021745873E+02  0.92748015226E+02  0.79900907920E+02 0.  0.
          6    2    1    2  501    0 -0.50819966684E+02  0.10276523365E+03  0.13444995165E+02  0.20732719799E+03  0.17222205686E+03 0.  0.
         24    2    5    5    0    0 -0.45561764468E+02  0.78244539250E+02 -0.55809142838E+02  0.13352246389E+03  0.80718682075E+02 0.  0.
          5    1    5    5  501    0 -0.52582022165E+01  0.24520694403E+02  0.69254138003E+02  0.73804734097E+02  0.47000000000E+01 0. -1.
        -11    1    6    6    0    0  0.17768546987E+02  0.46828500028E+02 -0.29263364872E+02  0.58008397672E+02  0.00000000000E+00 0.  1.
         12    1    6    6    0    0 -0.63330311455E+02  0.31416039222E+02 -0.26545777966E+02  0.75514066221E+02  0.00000000000E+00 0. -1.
         -5    1    3    3    0  503  0.36505251854E+02 -0.13081172180E+03  0.85210864068E+02  0.16039738566E+03  0.47000000000E+01 0.  1.
         13    1    4    4    0    0  0.45823641329E+01 -0.19189688371E+02 -0.13835287675E+02  0.24096833524E+02  0.00000000000E+00 0. -1.
        -14    1    4    4    0    0  0.97323506971E+01  0.47236176516E+02  0.48857033548E+02  0.68651181702E+02  0.00000000000E+00 0.  1.
</event>
<event>
12    1  0.1030140E-001  0.2650946E+03  0.7818608E-02  0.1104142E+00
         21   -1    0    0  501  502  0.00000000000E+00  0.00000000000E+00  0.12150422808E+04  0.12150422808E+04  0.00000000000E+00 0.  1.
         21   -1    0    0  502  503 -0.00000000000E+00 -0.00000000000E+00 -0.66508807797E+02  0.66508807797E+02  0.00000000000E+00 0. -1.
         -6    2    1    2    0  503  0.79405728631E+02  0.18505457474E+03  0.34260213335E+03  0.43318742681E+03  0.17240840932E+03 0.  0.
        -24    2    3    3    0    0  0.39379720017E+02  0.19644375616E+03  0.24168190296E+03  0.32392271283E+03  0.79842782947E+02 0.  0.
          6    2    1    2  501    0 -0.79405728631E+02 -0.18505457474E+03  0.80593133970E+03  0.84836366183E+03  0.17217756250E+03 0.  0.
         24    2    5    5    0    0 -0.57106239877E+02 -0.73119966966E+02  0.21839892690E+03  0.24982957783E+03  0.78160568612E+02 0.  0.
          5    1    5    5  501    0 -0.22299488754E+02 -0.11193460778E+03  0.58753241280E+03  0.59853408400E+03  0.47000000000E+01 0. -1.
        -13    1    6    6    0    0 -0.51731287954E+02 -0.26800122406E+02  0.18071830521E+03  0.18987753567E+03  0.00000000000E+00 0.  1.
         14    1    6    6    0    0 -0.53749519235E+01 -0.46319844560E+02  0.37680621693E+02  0.59952042162E+02  0.00000000000E+00 0. -1.
         -5    1    3    3    0  503  0.40026008613E+02 -0.11389181422E+02  0.10092023039E+03  0.10926471398E+03  0.47000000000E+01 0.  1.
         13    1    4    4    0    0  0.57545322572E+02  0.11619527247E+03  0.17619787141E+03  0.21876584602E+03  0.00000000000E+00 0. -1.
        -14    1    4    4    0    0 -0.18165602555E+02  0.80248483692E+02  0.65484031551E+02  0.10515686682E+03  0.00000000000E+00 0.  1.
</event>
<event>
12    1  0.1030140E-001  0.1933899E+03  0.7818608E-02  0.1157156E+00
         21   -1    0    0  501  502  0.00000000000E+00  0.00000000000E+00  0.18860719303E+03  0.18860719303E+03  0.00000000000E+00 0. -1.
         21   -1    0    0  502  503 -0.00000000000E+00 -0.00000000000E+00 -0.19562521808E+03  0.19562521808E+03  0.00000000000E+00 0.  1.
         -6    2    1    2    0  503 -0.58822357965E+02 -0.40621957438E+02 -0.34378733631E+02  0.18891659969E+03  0.17145661576E+03 0.  0.
        -24    2    3    3    0    0 -0.41543773439E+02  0.41453404589E+02 -0.38699629957E+01  0.99542164747E+02  0.80308132125E+02 0.  0.
          6    2    1    2  501    0  0.58822357965E+02  0.40621957438E+02  0.27360708587E+02  0.19531581142E+03  0.17969263923E+03 0.  0.
         24    2    5    5    0    0  0.73454284089E+02  0.17655027752E+02 -0.43931453696E+02  0.11885513182E+03  0.80556426692E+02 0.  0.
          5    1    5    5  501    0 -0.14631926124E+02  0.22966929686E+02  0.71292162282E+02  0.76460679595E+02  0.47000000000E+01 0. -1.
        -13    1    6    6    0    0 -0.75072557020E+01  0.74103305254E+00  0.15344172831E+02  0.17098294010E+02  0.00000000000E+00 0.  1.
         14    1    6    6    0    0  0.80961539791E+02  0.16913994699E+02 -0.59275626527E+02  0.10175683782E+03  0.00000000000E+00 0. -1.
         -5    1    3    3    0  503 -0.17278584526E+02 -0.82075362027E+02 -0.30508770636E+02  0.89374434940E+02  0.47000000000E+01 0.  1.
         11    1    4    4    0    0 -0.56161965384E+02  0.54216733445E+02 -0.11071719436E+02  0.78842904009E+02  0.00000000000E+00 0. -1.
        -12    1    4    4    0    0  0.14618191946E+02 -0.12763328857E+02  0.72017564401E+01  0.20699260738E+02  0.00000000000E+00 0.  1.
</event>
<event>
12    1  0.1030140E-001  0.2282901E+03  0.7818608E-02  0.1128062E+00
         21   -1    0    0  501  502  0.00000000000E+00  0.00000000000E+00  0.37519279350E+03  0.37519279350E+03  0.00000000000E+00 0.  1.
         21   -1    0    0  502  503 -0.00000000000E+00 -0.00000000000E+00 -0.14974981600E+03  0.14974981600E+03  0.00000000000E+00 0. -1.
         -6    2    1    2    0  503 -0.14743621812E+03 -0.21030092191E+02  0.39487490977E+02  0.23050105716E+03  0.17144028761E+03 0.  0.
        -24    2    3    3    0    0 -0.14017782734E+03 -0.68099383900E+02  0.13046867272E+02  0.17582566012E+03  0.80356036784E+02 0.  0.
          6    2    1    2  501    0  0.14743621812E+03  0.21030092191E+02  0.18595548653E+03  0.29444155235E+03  0.17302219970E+03 0.  0.
         24    2    5    5    0    0  0.89981442070E+02  0.81618405847E+02  0.12174576040E+03  0.18900449068E+03  0.78373740714E+02 0.  0.
          5    1    5    5  501    0  0.57454776054E+02 -0.60588313656E+02  0.64209726125E+02  0.10543706166E+03  0.47000000000E+01 0. -1.
        -13    1    6    6    0    0  0.17487923553E-01  0.19730324362E+01 -0.10292535214E+02  0.10479954387E+02  0.00000000000E+00 0.  1.
         14    1    6    6    0    0  0.89963954146E+02  0.79645373411E+02  0.13203829561E+03  0.17852453630E+03  0.00000000000E+00 0. -1.
         -5    1    3    3    0  503 -0.72583907871E+01  0.47069291709E+02  0.26440623705E+02  0.54675397033E+02  0.47000000000E+01 0.  1.
         11    1    4    4    0    0 -0.11656795709E+03 -0.86061219858E+02  0.45480558125E+01  0.14496657199E+03  0.00000000000E+00 0. -1.
        -12    1    4    4    0    0 -0.23609870247E+02  0.17961835958E+02  0.84988114594E+01  0.30859088131E+02  0.00000000000E+00 0.  1.
</event>
<event>
12    1  0.1030140E-001  0.1794206E+03  0.7818608E-02  0.1168491E+00
         21   -1    0    0  501  502  0.00000000000E+00  0.00000000000E+00  0.74007073798E+03  0.74007073798E+03  0.00000000000E+00 0. -1.
         21   -1    0    0  502  503 -0.00000000000E+00 -0.00000000000E+00 -0.58709604727E+02  0.58709604727E+02  0.00000000000E+00 0. -1.
         -6    2    1    2    0  503 -0.50832725782E+02  0.95159508055E+01  0.13618568725E+03  0.22483955746E+03  0.17126519161E+03 0.  0.
        -24    2    3    3    0    0 -0.95664938251E+02  0.11263691020E+02  0.66039825036E+02  0.14143983410E+03  0.79782936981E+02 0.  0.
          6    2    1    2  501    0  0.50832725782E+02 -0.95159508055E+01  0.54517544600E+03  0.57394078524E+03  0.17180581689E+03 0.  0.
         24    2    5    5    0    0  0.93795403355E+01  0.51966213718E+02  0.39142157089E+03  0.40317554508E+03  0.80939550560E+02 0.  0.
          5    1    5    5  501    0  0.41453185447E+02 -0.61482164524E+02  0.15375387511E+03  0.17076524016E+03  0.47000000000E+01 0. -1.
        -11    1    6    6    0    0 -0.32059099547E+02  0.35092557995E+01  0.11055758704E+03  0.11516544965E+03  0.00000000000E+00 0.  1.
         12    1    6    6    0    0  0.41438639882E+02  0.48456957919E+02  0.28086398385E+03  0.28801009543E+03  0.00000000000E+00 0. -1.
         -5    1    3    3    0  503  0.44832212469E+02 -0.17477402141E+01  0.70145862215E+02  0.83399723361E+02  0.47000000000E+01 0.  1.
         13    1    4    4    0    0 -0.17390648197E+02 -0.29512467606E+02  0.31900211279E+02  0.46808587551E+02  0.00000000000E+00 0. -1.
        -14    1    4    4    0    0 -0.78274290054E+02  0.40776158626E+02  0.34139613756E+02  0.94631246548E+02  0.00000000000E+00 0.  1.
</event>
<event>
12    1  0.1030140E-001  0.2534928E+03  0.7818608E-02  0.1111334E+00
         21   -1    0    0  503  502  0.00000000000E+00  0.00000000000E+00  0.58931618599E+02  0.58931618599E+02  0.00000000000E+00 0. -1.
         21   -1    0    0  501  503 -0.00000000000E+00 -0.00000000000E+00 -0.12616413183E+04  0.12616413183E+04  0.00000000000E+00 0. -1.
          6    2    1    2  501    0 -0.10313023925E+03  0.15401468356E+03 -0.84741077497E+03  0.88411454748E+03  0.17087171365E+03 0.  0.
         24    2    3    3    0    0 -0.11586810023E+03  0.13212222464E+03 -0.49728376731E+03  0.53304113015E+03  0.77201051209E+02 0.  0.
         -6    2    1    2    0  502  0.10313023925E+03 -0.15401468356E+03 -0.35529892475E+03  0.43645838944E+03  0.17292261502E+03 0.  0.
        -24    2    5    5    0    0  0.16620087062E+01 -0.95186626739E+02 -0.24459741177E+03  0.27510952190E+03  0.82426324770E+02 0.  0.
          5    1    3    3  501    0  0.12737860981E+02  0.21892458918E+02 -0.35012700766E+03  0.35107341732E+03  0.47000000000E+01 0. -1.
        -13    1    4    4    0    0 -0.57696233030E+02  0.13674752565E+02 -0.13400797516E+03  0.14654006814E+03  0.00000000000E+00 0.  1.
         14    1    4    4    0    0 -0.58171867201E+02  0.11844747207E+03 -0.36327579215E+03  0.38650106201E+03  0.00000000000E+00 0. -1.
         -5    1    5    5    0  502  0.10146823054E+03 -0.58828056819E+02 -0.11070151298E+03  0.16134886753E+03  0.47000000000E+01 0.  1.
         13    1    6    6    0    0  0.18485089746E+02 -0.54477487804E+02 -0.52024594674E+02  0.77563223704E+02  0.00000000000E+00 0. -1.
        -14    1    6    6    0    0 -0.16823081040E+02 -0.40709138935E+02 -0.19257281709E+03  0.19754629820E+03  0.00000000000E+00 0.  1.
</event>
<event>
12    1  0.1030140E-001  0.2332313E+03  0.7818608E-02  0.1124788E+00
         21   -1    0    0  501  502  0.00000000000E+00  0.00000000000E+00  0.25557356614E+03  0.25557356614E+03  0.00000000000E+00 0.  1.
         21   -1    0    0  502  503 -0.00000000000E+00 -0.00000000000E+00 -0.22305695685E+03  0.22305695685E+03  0.00000000000E+00 0. -1.
         -6    2    1    2    0  503 -0.14984233855E+03 -0.35258209490E+02  0.72424112595E+02  0.24200958995E+03  0.17212647032E+03 0.  0.
        -24    2    3    3    0    0 -0.89821112674E+02 -0.30582407615E+02 -0.24409471984E+02  0.12789016224E+03  0.82200701568E+02 0.  0.
          6    2    1    2  501    0  0.14984233855E+03  0.35258209490E+02 -0.39907503299E+02  0.23662093304E+03  0.17521697799E+03 0.  0.
         24    2    5    5    0    0  0.14999323455E+02  0.47220671224E+02 -0.36926569311E+02  0.10113397729E+03  0.80060841534E+02 0.  0.
          5    1    5    5  501    0  0.13484301509E+03 -0.11962461734E+02 -0.29809339881E+01  0.13548695575E+03  0.47000000000E+01 0. -1.
        -11    1    6    6    0    0  0.30063722883E+01  0.18348034939E+02  0.25357509555E+02  0.31443472316E+02  0.00000000000E+00 0.  1.
         12    1    6    6    0    0  0.11992951166E+02  0.28872636285E+02 -0.62284078866E+02  0.69690504977E+02  0.00000000000E+00 0. -1.
         -5    1    3    3    0  503 -0.60021225873E+02 -0.46758018751E+01  0.96833584579E+02  0.11411942771E+03  0.47000000000E+01 0.  1.
         13    1    4    4    0    0 -0.10367617985E+03 -0.15342024382E+02 -0.22597727609E+02  0.10721373641E+03  0.00000000000E+00 0. -1.
        -14    1    4    4    0    0  0.13855067180E+02 -0.15240383233E+02 -0.18117443752E+01  0.20676425836E+02  0.00000000000E+00 0.  1.
</event>
<event>
12    1  0.1030140E-001  0.2261134E+03  0.7818608E-02  0.1129577E+00
         21   -1    0    0  501  502  0.00000000000E+00  0.00000000000E+00  0.13936940535E+03  0.13936940535E+03  0.00000000000E+00 0.  1.
         21   -1    0    0  502  503 -0.00000000000E+00 -0.00000000000E+00 -0.67050271613E+03  0.67050271613E+03  0.00000000000E+00 0. -1.
         -6    2    1    2    0  503 -0.14127240296E+03 -0.35618674923E+02 -0.53845786058E+03  0.58364008310E+03  0.17167497529E+03 0.  0.
        -24    2    3    3    0    0 -0.17213481555E+03 -0.43599974522E+02 -0.46538906848E+03  0.50378190861E+03  0.75351668049E+02 0.  0.
          6    2    1    2  501    0  0.14127240296E+03  0.35618674923E+02  0.73245497987E+01  0.22623203838E+03  0.17291820123E+03 0.  0.
         24    2    5    5    0    0  0.16264556027E+03  0.58822869294E+02  0.21085418877E+02  0.19149447935E+03  0.79447042148E+02 0.  0.
          5    1    5    5  501    0 -0.21373157304E+02 -0.23204194370E+02 -0.13760869079E+02  0.34737559030E+02  0.47000000000E+01 0. -1.
        -13    1    6    6    0    0  0.11842825398E+03  0.16083992928E+02  0.41782899894E+02  0.12660867621E+03  0.00000000000E+00 0.  1.
         14    1    6    6    0    0  0.44217306288E+02  0.42738876366E+02 -0.20697481016E+02  0.64885803138E+02  0.00000000000E+00 0. -1.
         -5    1    3    3    0  503  0.30862412591E+02  0.79812995987E+01 -0.73068792094E+02  0.79858174486E+02  0.47000000000E+01 0.  1.
         13    1    4    4    0    0 -0.13455489933E+03 -0.51053619109E+02 -0.42217327071E+03  0.44602888187E+03  0.00000000000E+00 0. -1.
        -14    1    4    4    0    0 -0.37579916226E+02  0.74536445865E+01 -0.43215797773E+02  0.57753026746E+02  0.00000000000E+00 0.  1.
</event>
<event>
12    1  0.1030140E-001  0.1875538E+03  0.7818608E-02  0.1160806E+00
         21   -1    0    0  503  502  0.00000000000E+00  0.00000000000E+00  0.63588678645E+03  0.63588678645E+03  0.00000000000E+00 0.  1.
         21   -1    0    0  501  503 -0.00000000000E+00 -0.00000000000E+00 -0.83652808797E+02  0.83652808797E+02  0.00000000000E+00 0.  1.
          6    2    1    2  501    0  0.16025093004E+02  0.75180019418E+02  0.66422858170E+02  0.19896842899E+03  0.17107776221E+03 0.  0.
         24    2    3    3    0    0  0.11750738212E+02  0.98114838529E+02 -0.38262030039E+01  0.12479770274E+03  0.76126377765E+02 0.  0.
         -6    2    1    2    0  502 -0.16025093004E+02 -0.75180019418E+02  0.48581111948E+03  0.52057116625E+03  0.17050822972E+03 0.  0.
        -24    2    5    5    0    0 -0.33618294778E+02 -0.10244114320E+03  0.26351293349E+03  0.29586855587E+03  0.80465885150E+02 0.  0.
          5    1    3    3  501    0  0.42743547926E+01 -0.22934819111E+02  0.70249061174E+02  0.74170726249E+02  0.47000000000E+01 0. -1.
        -11    1    4    4    0    0 -0.17548104126E+02  0.93425830261E+02 -0.35093336206E+01  0.95124324654E+02  0.00000000000E+00 0.  1.
         12    1    4    4    0    0  0.29298842337E+02  0.46890082677E+01 -0.31686938334E+00  0.29673378086E+02  0.00000000000E+00 0. -1.
         -5    1    5    5    0  502  0.17593201774E+02  0.27261123784E+02  0.22229818599E+03  0.22470261038E+03  0.47000000000E+01 0.  1.
         13    1    6    6    0    0 -0.28255977445E+02 -0.21117657043E+02  0.23476196800E+02  0.42373193372E+02  0.00000000000E+00 0. -1.
        -14    1    6    6    0    0 -0.53623173330E+01 -0.81323486159E+02  0.24003673669E+03  0.25349536250E+03  0.00000000000E+00 0.  1.
</event>
<event>
12    1  0.1030140E-001  0.2084025E+03  0.7818608E-02  0.1142955E+00
         21   -1    0    0  501  502  0.00000000000E+00  0.00000000000E+00  0.13899102006E+03  0.13899102006E+03  0.00000000000E+00 0. -1.
         21   -1    0    0  502  503 -0.00000000000E+00 -0.00000000000E+00 -0.34963665345E+03  0.34963665345E+03  0.00000000000E+00 0. -1.
         -6    2    1    2    0  503 -0.98250119693E+02 -0.62536162857E+02 -0.18604242020E+03  0.27936243551E+03  0.17282283002E+03 0.  0.
        -24    2    3    3    0    0 -0.61973445173E+02 -0.10809195799E+03 -0.11346310927E+03  0.18618961780E+03  0.79171442600E+02 0.  0.
          6    2    1    2  501    0  0.98250119693E+02  0.62536162857E+02 -0.24603213187E+02  0.20926523800E+03  0.17211264931E+03 0.  0.
         24    2    5    5    0    0  0.81472621709E+02  0.49841966471E+02 -0.80734427679E+02  0.14913678965E+03  0.81250996952E+02 0.  0.
          5    1    5    5  501    0  0.16777497984E+02  0.12694196386E+02  0.56131214492E+02  0.60128448349E+02  0.47000000000E+01 0. -1.
        -13    1    6    6    0    0  0.39898010790E+02  0.51224188073E+02 -0.85398573887E+02  0.10727853994E+03  0.00000000000E+00 0.  1.
         14    1    6    6    0    0  0.41574610919E+02 -0.13822216025E+01  0.46641462082E+01  0.41858249718E+02  0.00000000000E+00 0. -1.
         -5    1    3    3    0  503 -0.36276674520E+02  0.45555795132E+02 -0.72579310932E+02  0.93172817708E+02  0.47000000000E+01 0.  1.
         11    1    4    4    0    0 -0.39888420492E+02 -0.72083765655E+02 -0.21735790747E+02  0.85203286085E+02  0.00000000000E+00 0. -1.
        -12    1    4    4    0    0 -0.22085024681E+02 -0.36008192335E+02 -0.91727318520E+02  0.10098633171E+03  0.00000000000E+00 0.  1.
</event>
<event>
12    1  0.1030140E-001  0.1940848E+03  0.7818608E-02  0.1155335E+00
         21   -1    0    0  501  502  0.00000000000E+00  0.00000000000E+00  0.10271095069E+03  0.10271095069E+03  0.00000000000E+00 0.  1.
         21   -1    0    0  502  503 -0.00000000000E+00 -0.00000000000E+00 -0.46099111823E+03  0.46099111823E+03  0.00000000000E+00 0.  1.
         -6    2    1    2    0  503 -0.40886624047E+02  0.77866030703E+02 -0.47967217176E+02  0.19769243587E+03  0.17043066189E+03 0.  0.
        -24    2    3    3    0    0 -0.35531817261E+01  0.38954166338E+02 -0.94056054084E+02  0.12659960928E+03  0.75172252762E+02 0.  0.
          6    2    1    2  501    0  0.40886624047E+02 -0.77866030703E+02 -0.31031295036E+03  0.36600963305E+03  0.17301470909E+03 0.  0.
         24    2    5    5    0    0  0.19425382334E+01 -0.27649282344E+01 -0.70623398684E+02  0.11178534508E+03  0.86584528928E+02 0.  0.
          5    1    5    5  501    0  0.38944085813E+02 -0.75101102469E+02 -0.23968955168E+03  0.25422428797E+03  0.47000000000E+01 0. -1.
        -11    1    6    6    0    0  0.10366594076E+02 -0.32309574917E+02 -0.73474367042E+02  0.80931190009E+02  0.00000000000E+00 0.  1.
         12    1    6    6    0    0 -0.84240558431E+01  0.29544646682E+02  0.28509683587E+01  0.30854155069E+02  0.00000000000E+00 0. -1.
         -5    1    3    3    0  503 -0.37333442321E+02  0.38911864365E+02  0.46088836908E+02  0.71092826582E+02  0.47000000000E+01 0.  1.
         13    1    4    4    0    0 -0.23874805094E+02 -0.12095378996E+02 -0.47770152565E+02  0.54756661580E+02  0.00000000000E+00 0. -1.
        -14    1    4    4    0    0  0.20321623368E+02  0.51049545335E+02 -0.46285901520E+02  0.71842947703E+02  0.00000000000E+00 0.  1.
</event>
<event>
12    1  0.1030140E-001  0.1844267E+03  0.7818608E-02  0.1163652E+00
         21   -1    0    0  501  502  0.00000000000E+00  0.00000000000E+00  0.37504429474E+03  0.37504429474E+03  0.00000000000E+00 0.  1.
         21   -1    0    0  502  503 -0.00000000000E+00 -0.00000000000E+00 -0.91584747044E+02  0.91584747044E+02  0.00000000000E+00 0.  1.
         -6    2    1    2    0  503 -0.21372376827E+02  0.61957382897E+02  0.11685461719E+03  0.21809247670E+03  0.17208669631E+03 0.  0.
        -24    2    3    3    0    0 -0.41117197694E+01 -0.33224664009E+02  0.44393619159E+02  0.97136953590E+02  0.79649292481E+02 0.  0.
          6    2    1    2  501    0  0.21372376827E+02 -0.61957382897E+02  0.16660493051E+03  0.24853656509E+03  0.17238829870E+03 0.  0.
         24    2    5    5    0    0  0.87052357663E+01 -0.14063047003E+01  0.16634809343E+03  0.18649588893E+03  0.83852665878E+02 0.  0.
          5    1    5    5  501    0  0.12667141061E+02 -0.60551078196E+02  0.25683707856E+00  0.62040676162E+02  0.47000000000E+01 0. -1.
        -13    1    6    6    0    0  0.33576182864E+01 -0.10537887546E+02 -0.68273416922E+01  0.12997433173E+02  0.00000000000E+00 0.  1.
         14    1    6    6    0    0  0.53476174799E+01  0.91315828460E+01  0.17317543513E+03  0.17349845575E+03  0.00000000000E+00 0. -1.
         -5    1    3    3    0  503 -0.17260657058E+02  0.95182046906E+02  0.72460998029E+02  0.12095552311E+03  0.47000000000E+01 0.  1.
         13    1    4    4    0    0 -0.37179948681E+02  0.30164768518E+01  0.20575228616E+02  0.42600325693E+02  0.00000000000E+00 0. -1.
        -14    1    4    4    0    0  0.33068228912E+02 -0.36241140861E+02  0.23818390543E+02  0.54536627897E+02  0.00000000000E+00 0.  1.
</event>
<event>
12    1  0.1030140E-001  0.1939610E+03  0.7818608E-02  0.1159110E+00
         21   -1    0    0  503  502  0.00000000000E+00  0.00000000000E+00  0.15198143074E+03  0.15198143074E+03  0.00000000000E+00 0. -1.
         21   -1    0    0  501  503 -0.00000000000E+00 -0.00000000000E+00 -0.35336208200E+03  0.35336208200E+03  0.00000000000E+00 0. -1.
          6    2    1    2  501    0  0.35566793199E+02  0.83151224753E+02 -0.24970971150E+03  0.30545209798E+03  0.15088711407E+03 0.  0.
         24    2    3    3    0    0  0.62217046268E+02  0.94559013980E+02 -0.16983403120E+03  0.22034870236E+03  0.83051697802E+02 0.  0.
         -6    2    1    2    0  502 -0.35566793199E+02 -0.83151224753E+02  0.48329060234E+02  0.19989141476E+03  0.17158600373E+03 0.  0.
        -24    2    5    5    0    0 -0.31518932376E+02  0.20164784090E+02  0.31020789577E+02  0.94952150928E+02  0.81569356773E+02 0.  0.
          5    1    3    3  501    0 -0.26650253069E+02 -0.11407789227E+02 -0.79875680298E+02  0.85103395624E+02  0.47000000000E+01 0. -1.
        -11    1    4    4    0    0 -0.14372211425E+02  0.86434531923E+00 -0.37961087316E+01  0.14890197970E+02  0.00000000000E+00 0.  1.
         12    1    4    4    0    0  0.76589257693E+02  0.93694668661E+02 -0.16603792247E+03  0.20545850439E+03  0.00000000000E+00 0. -1.
         -5    1    5    5    0  502 -0.40478608233E+01 -0.10331600884E+03  0.17308270657E+02  0.10493926383E+03  0.47000000000E+01 0.  1.
         13    1    6    6    0    0  0.77351774413E+01  0.34326468475E+01  0.48211158037E+02  0.48948256288E+02  0.00000000000E+00 0. -1.
        -14    1    6    6    0    0 -0.39254109817E+02  0.16732137243E+02 -0.17190368460E+02  0.46003894640E+02  0.00000000000E+00 0.  1.
</event>
<event>
12    1  0.1030140E-001  0.2385593E+03  0.7818608E-02  0.1121025E+00
         21   -1    0    0  501  502  0.00000000000E+00  0.00000000000E+00  0.58566768148E+03  0.58566768148E+03  0.00000000000E+00 0.  1.
         21   -1    0    0  502  503 -0.00000000000E+00 -0.00000000000E+00 -0.98967149255E+02  0.98967149255E+02  0.00000000000E+00 0.  1.
         -6    2    1    2    0  503  0.12276133686E+03 -0.10625086114E+03  0.19035739041E+03  0.30519908173E+03  0.17478830649E+03 0.  0.
        -24    2    3    3    0    0  0.86614188901E+00 -0.67761818124E+02  0.11422112798E+03  0.15634121179E+03  0.82484509016E+02 0.  0.
          6    2    1    2  501    0 -0.12276133686E+03  0.10625086114E+03  0.29634314181E+03  0.37943574900E+03  0.17260544198E+03 0.  0.
         24    2    5    5    0    0 -0.13970849595E+03  0.10459393485E+03  0.30393057629E+03  0.36021048521E+03  0.83183191830E+02 0.  0.
          5    1    5    5  501    0  0.16947159088E+02  0.16569262852E+01 -0.75874344792E+01  0.19225263791E+02  0.47000000000E+01 0. -1.
        -11    1    6    6    0    0 -0.82150194497E+02  0.40046289433E+02  0.22606136075E+03  0.24383621261E+03  0.00000000000E+00 0.  1.
         12    1    6    6    0    0 -0.57558301449E+02  0.64547645422E+02  0.77869215535E+02  0.11637427260E+03  0.00000000000E+00 0. -1.
         -5    1    3    3    0  503  0.12189519497E+03 -0.38489043015E+02  0.76136262432E+02  0.14885786995E+03  0.47000000000E+01 0.  1.
         11    1    4    4    0    0  0.37608196141E+02 -0.53385508936E+02  0.85277235332E+02  0.10740854643E+03  0.00000000000E+00 0. -1.
        -12    1    4    4    0    0 -0.36742054252E+02 -0.14376309188E+02  0.28943892650E+02  0.48932665350E+02  0.00000000000E+00 0.  1.
</event>
<event>
12    1  0.1030140E-001  0.1813056E+03  0.7818608E-02  0.1166560E+00
         21   -1    0    0  503  502  0.00000000000E+00  0.00000000000E+00  0.15491184888E+03  0.15491184888E+03  0.00000000000E+00 0.  1.
         21   -1    0    0  501  503 -0.00000000000E+00 -0.00000000000E+00 -0.72388936430E+03  0.72388936430E+03  0.00000000000E+00 0.  1.
          6    2    1    2  501    0  0.49794657703E+02 -0.30101809073E+02 -0.65395478983E+03  0.67862257875E+03  0.17171520140E+03 0.  0.
         24    2    3    3    0    0  0.17978095989E+02 -0.80571532002E+02 -0.50902946795E+03  0.52182677059E+03  0.79857345063E+02 0.  0.
         -6    2    1    2    0  502 -0.49794657703E+02  0.30101809073E+02  0.84977274408E+02  0.20017863443E+03  0.17165291047E+03 0.  0.
        -24    2    5    5    0    0 -0.64378829966E+02 -0.36369994254E+02  0.24993077445E+02  0.10934145810E+03  0.76573430836E+02 0.  0.
          5    1    3    3  501    0  0.31816561714E+02  0.50469722928E+02 -0.14492532189E+03  0.15679580816E+03  0.47000000000E+01 0. -1.
        -13    1    4    4    0    0 -0.31708745862E+02 -0.31318574383E+02 -0.21761057193E+03  0.22212757299E+03  0.00000000000E+00 0.  1.
         14    1    4    4    0    0  0.49686841852E+02 -0.49252957619E+02 -0.29141889602E+03  0.29969919760E+03  0.00000000000E+00 0. -1.
         -5    1    5    5    0  502  0.14584172263E+02  0.66471803327E+02  0.59984196963E+02  0.90837176329E+02  0.47000000000E+01 0.  1.
         13    1    6    6    0    0 -0.39840851570E+02 -0.38542931086E+02 -0.19268381352E+02  0.58686638261E+02  0.00000000000E+00 0. -1.
        -14    1    6    6    0    0 -0.24537978397E+02  0.21729368324E+01  0.44261458797E+02  0.50654819841E+02  0.00000000000E+00 0.  1.
</event>
<event>
12    1  0.1030140E-001  0.2012586E+03  0.7818608E-02  0.1150874E+00
         21   -1    0    0  501  502  0.00000000000E+00  0.00000000000E+00  0.64405410652E+03  0.64405410652E+03  0.00000000000E+00 0. -1.
         21   -1    0    0  502  503 -0.00000000000E+00 -0.00000000000E+00 -0.10627683916E+03  0.10627683916E+03  0.00000000000E+00 0. -1.
         -6    2    1    2    0  503 -0.44352203403E+02 -0.70534183568E+02  0.16766380281E+02  0.19179950274E+03  0.17194111999E+03 0.  0.
        -24    2    3    3    0    0 -0.69408522776E+02 -0.85896794284E+02 -0.39895291646E+02  0.12779587773E+03  0.50441548023E+02 0.  0.
          6    2    1    2  501    0  0.44352203403E+02  0.70534183568E+02  0.52101088708E+03  0.55853144295E+03  0.18320163566E+03 0.  0.
         24    2    5    5    0    0 -0.81099428714E+01  0.10606011487E+03  0.29466091464E+03  0.32343408310E+03  0.80436511316E+02 0.  0.
          5    1    5    5  501    0  0.52462146275E+02 -0.35525931301E+02  0.22634997244E+03  0.23509735986E+03  0.47000000000E+01 0. -1.
        -13    1    6    6    0    0 -0.55457479602E+01 -0.10300620212E+02  0.64129659428E+02  0.65187969102E+02  0.00000000000E+00 0.  1.
         14    1    6    6    0    0 -0.25641949111E+01  0.11636073508E+03  0.23053125521E+03  0.25824611399E+03  0.00000000000E+00 0. -1.
         -5    1    3    3    0  503  0.25056319373E+02  0.15362610716E+02  0.56661671927E+02  0.64003625007E+02  0.47000000000E+01 0.  1.
         11    1    4    4    0    0 -0.21826875243E+02 -0.64604420724E+02 -0.14100758730E+02  0.69634582333E+02  0.00000000000E+00 0. -1.
        -12    1    4    4    0    0 -0.47581647534E+02 -0.21292373560E+02 -0.25794532916E+02  0.58161295397E+02  0.00000000000E+00 0.  1.
</event>
<event>
12    1  0.1030140E-001  0.2187317E+03  0.7818608E-02  0.1135743E+00
         21   -1    0    0  501  502  0.00000000000E+00  0.00000000000E+00  0.51527495013E+03  0.51527495013E+03  0.00000000000E+00 0. -1.
         21   -1    0    0  502  503 -0.00000000000E+00 -0.00000000000E+00 -0.92525529336E+02  0.92525529336E+02  0.00000000000E+00 0. -1.
         -6    2    1    2    0  503  0.12347255495E+03 -0.59509739248E+01  0.25025849083E+03  0.32923864276E+03  0.17460780549E+03 0.  0.
        -24    2    3    3    0    0  0.82712821667E+02 -0.61311583660E+02  0.10033813635E+03  0.16424059533E+03  0.79414799566E+02 0.  0.
          6    2    1    2  501    0 -0.12347255495E+03  0.59509739248E+01  0.17249092997E+03  0.27856183671E+03  0.18045135088E+03 0.  0.
         24    2    5    5    0    0 -0.21930760122E+02  0.13499200368E+02  0.15460680934E+03  0.17507442883E+03  0.78003868402E+02 0.  0.
          5    1    5    5  501    0 -0.10154179483E+03 -0.75482264432E+01  0.17884120627E+02  0.10348740788E+03  0.47000000000E+01 0. -1.
        -11    1    6    6    0    0  0.29466610984E+02  0.24308273671E+01  0.56317435034E+02  0.63606945952E+02  0.00000000000E+00 0.  1.
         12    1    6    6    0    0 -0.51397371106E+02  0.11068373001E+02  0.98289374309E+02  0.11146748288E+03  0.00000000000E+00 0. -1.
         -5    1    3    3    0  503  0.40759733281E+02  0.55360609735E+02  0.14992035448E+03  0.16499804743E+03  0.47000000000E+01 0.  1.
         11    1    4    4    0    0  0.29410945915E+02 -0.14575379084E+02 -0.89061719360E+01  0.34011252750E+02  0.00000000000E+00 0. -1.
        -12    1    4    4    0    0  0.53301875751E+02 -0.46736204576E+02  0.10924430828E+03  0.13022934258E+03  0.00000000000E+00 0.  1.
</event>
<event>
12    1  0.1030140E-001  0.1957739E+03  0.7818608E-02  0.1156170E+00
         21   -1    0    0  501  502  0.00000000000E+00  0.00000000000E+00  0.12107385218E+03  0.12107385218E+03  0.00000000000E+00 0. -1.
         21   -1    0    0  502  503 -0.00000000000E+00 -0.00000000000E+00 -0.58495979334E+03  0.58495979334E+03  0.00000000000E+00 0. -1.
         -6    2    1    2    0  503  0.80724379628E+02  0.48109576436E+02 -0.47583123714E+03  0.50989562922E+03  0.15731252221E+03 0.  0.
        -24    2    3    3    0    0  0.50340297209E+02  0.44065058996E+02 -0.15169304593E+03  0.18427743626E+03  0.80445748068E+02 0.  0.
          6    2    1    2  501    0 -0.80724379628E+02 -0.48109576436E+02  0.11945295991E+02  0.19613801630E+03  0.17174537703E+03 0.  0.
         24    2    5    5    0    0 -0.63083627557E+02 -0.40192844120E+02 -0.57478930038E+02  0.12391832408E+03  0.80354930534E+02 0.  0.
          5    1    5    5  501    0 -0.17640752070E+02 -0.79167323164E+01  0.69424226029E+02  0.72219692217E+02  0.47000000000E+01 0. -1.
        -13    1    6    6    0    0  0.24264811763E+01  0.18423315118E+02  0.54307199777E+00  0.18590354435E+02  0.00000000000E+00 0.  1.
         14    1    6    6    0    0 -0.65510108734E+02 -0.58616159237E+02 -0.58022002036E+02  0.10532796965E+03  0.00000000000E+00 0. -1.
         -5    1    3    3    0  503  0.30384082418E+02  0.40445174399E+01 -0.32413819121E+03  0.32561819296E+03  0.47000000000E+01 0.  1.
         13    1    4    4    0    0  0.83949292954E+00  0.51283207713E+02 -0.53725988257E+02  0.74277546782E+02  0.00000000000E+00 0. -1.
        -14    1    4    4    0    0  0.49500804280E+02 -0.72181487170E+01 -0.97967057674E+02  0.10999988948E+03  0.00000000000E+00 0.  1.
</event>
<event>
12    1  0.1030140E-001  0.2124372E+03  0.7818608E-02  0.1141190E+00
         21   -1    0    0  503  502  0.00000000000E+00  0.00000000000E+00  0.69855407595E+02  0.69855407595E+02  0.00000000000E+00 0. -1.
         21   -1    0    0  501  503 -0.00000000000E+00 -0.00000000000E+00 -0.10630780607E+04  0.10630780607E+04  0.00000000000E+00 0.  1.
          6    2    1    2  501    0  0.99209452175E+02 -0.75126401589E+02 -0.85575814034E+03  0.87989977721E+03  0.16252732559E+03 0.  0.
         24    2    3    3    0    0  0.47648119840E+02 -0.85368246816E+02 -0.76253946350E+03  0.77277705275E+03  0.78484768986E+02 0.  0.
         -6    2    1    2    0  502 -0.99209452175E+02  0.75126401589E+02 -0.13746451273E+03  0.25303369105E+03  0.17217161476E+03 0.  0.
        -24    2    5    5    0    0 -0.91786012702E+02  0.11657455874E+03 -0.12181199354E+03  0.20786568753E+03  0.79722533881E+02 0.  0.
          5    1    3    3  501    0  0.51561332335E+02  0.10241845226E+02 -0.93218676837E+02  0.10712272447E+03  0.47000000000E+01 0. -1.
        -13    1    4    4    0    0  0.62525353940E+02 -0.32611603798E+02 -0.43844925081E+03  0.44408409352E+03  0.00000000000E+00 0.  1.
         14    1    4    4    0    0 -0.14877234100E+02 -0.52756643018E+02 -0.32409021270E+03  0.32869295922E+03  0.00000000000E+00 0. -1.
         -5    1    5    5    0  502 -0.74234394733E+01 -0.41448157154E+02 -0.15652519198E+02  0.45168003524E+02  0.47000000000E+01 0.  1.
         13    1    6    6    0    0 -0.10001939320E+03  0.87017786528E+02 -0.76256533589E+02  0.15294127338E+03  0.00000000000E+00 0. -1.
        -14    1    6    6    0    0  0.82333805004E+01  0.29556772216E+02 -0.45555459947E+02  0.54924414146E+02  0.00000000000E+00 0.  1.
</event>
<event>
12    1  0.1030140E-001  0.2074076E+03  0.7818608E-02  0.1143825E+00
         21   -1    0    0  503  502  0.00000000000E+00  0.00000000000E+00  0.99754001972E+03  0.99754001972E+03  0.00000000000E+00 0.  1.
         21   -1    0    0  501  503 -0.00000000000E+00 -0.00000000000E+00 -0.71301723775E+02  0.71301723775E+02  0.00000000000E+00 0.  1.
          6    2    1    2  501    0  0.11125869072E+03  0.26349975845E+02  0.12663115876E+03  0.24300897602E+03  0.17304650985E+03 0.  0.
         24    2    3    3    0    0  0.12586188615E+03  0.63539068512E+02  0.78869137268E+02  0.18056233778E+03  0.80647314886E+02 0.  0.
         -6    2    1    2    0  502 -0.11125869072E+03 -0.26349975845E+02  0.79960713718E+03  0.82583276748E+03  0.17191674879E+03 0.  0.
        -24    2    5    5    0    0 -0.13503059781E+02 -0.50866540644E+02  0.52488897615E+03  0.53317360850E+03  0.77433338685E+02 0.  0.
          5    1    3    3  501    0 -0.14603195434E+02 -0.37189092666E+02  0.47762021495E+02  0.62446638241E+02  0.47000000000E+01 0. -1.
        -13    1    4    4    0    0  0.34843023610E+02 -0.15090138021E+02  0.24270488328E+01  0.38047853104E+02  0.00000000000E+00 0.  1.
         14    1    4    4    0    0  0.91018862541E+02  0.78629206533E+02  0.76442088435E+02  0.14251448468E+03  0.00000000000E+00 0. -1.
         -5    1    5    5    0  502 -0.97755630935E+02  0.24516564799E+02  0.27471816104E+03  0.29265915898E+03  0.47000000000E+01 0.  1.
         11    1    6    6    0    0  0.18144881093E+02 -0.39196140649E+02  0.13304500175E+03  0.13988047270E+03  0.00000000000E+00 0. -1.
        -12    1    6    6    0    0 -0.31647940874E+02 -0.11670399995E+02  0.39184397440E+03  0.39329313580E+03  0.00000000000E+00 0.  1.
</event>
<event>
12    1  0.1030140E-001  0.2241805E+03  0.7818608E-02  0.1130945E+00
         21   -1    0    0  503  502  0.00000000000E+00  0.00000000000E+00  0.26556169260E+03  0.26556169260E+03  0.00000000000E+00 0.  1.
         21   -1    0    0  501  503 -0.00000000000E+00 -0.00000000000E+00 -0.19849520455E+03  0.19849520455E+03  0.00000000000E+00 0. -1.
          6    2    1    2  501    0  0.89195810189E+02 -0.11273498647E+03 -0.18229183525E+02  0.22492045629E+03  0.17202278569E+03 0.  0.
         24    2    3    3    0    0  0.58583939537E+02 -0.98611599644E+02  0.47554904554E+02  0.15085161720E+03  0.85664554565E+02 0.  0.
         -6    2    1    2    0  502 -0.89195810189E+02  0.11273498647E+03  0.85295671566E+02  0.23913644086E+03  0.17101408137E+03 0.  0.
        -24    2    5    5    0    0 -0.27147870298E+01  0.97876031156E+02  0.19345375793E+02  0.12926703004E+03  0.82150069678E+02 0.  0.
          5    1    3    3  501    0  0.30611870652E+02 -0.14123386828E+02 -0.65784088079E+02  0.74068839094E+02  0.47000000000E+01 0. -1.
        -11    1    4    4    0    0  0.60078893124E+02 -0.68200154375E+02 -0.40002160142E+01  0.90976569423E+02  0.00000000000E+00 0.  1.
         12    1    4    4    0    0 -0.14949535867E+01 -0.30411445268E+02  0.51555120568E+02  0.59875047777E+02  0.00000000000E+00 0. -1.
         -5    1    5    5    0  502 -0.86481023160E+02  0.14858955316E+02  0.65950295773E+02  0.10986941081E+03  0.47000000000E+01 0.  1.
         13    1    6    6    0    0 -0.10764166242E+02  0.96790474981E+02  0.41356866747E+02  0.10580479077E+03  0.00000000000E+00 0. -1.
        -14    1    6    6    0    0  0.80493792119E+01  0.10855561750E+01 -0.22011490954E+02  0.23462239277E+02  0.00000000000E+00 0.  1.
</event>
<event>
12    1  0.1030140E-001  0.1858906E+03  0.7818608E-02  0.1162491E+00
         21   -1    0    0  501  502  0.00000000000E+00  0.00000000000E+00  0.63896826179E+03  0.63896826179E+03  0.00000000000E+00 0.  1.
         21   -1    0    0  502  503 -0.00000000000E+00 -0.00000000000E+00 -0.19028548242E+03  0.19028548242E+03  0.00000000000E+00 0.  1.
         -6    2    1    2    0  503 -0.52053992590E+02  0.47111284554E+02 -0.12668717783E+03  0.22495546700E+03  0.17212271736E+03 0.  0.
        -24    2    3    3    0    0 -0.25853573686E+02  0.13027140140E+02  0.72427164887E+01  0.84216355724E+02  0.78751660153E+02 0.  0.
          6    2    1    2  501    0  0.52053992590E+02 -0.47111284554E+02  0.57536995720E+03  0.60429827721E+03  0.17087050335E+03 0.  0.
         24    2    5    5    0    0 -0.15534911892E+01 -0.87984290354E+02  0.38680490788E+03  0.40399043227E+03  0.76462957832E+02 0.  0.
          5    1    5    5  501    0  0.53607483780E+02  0.40873005800E+02  0.18856504932E+03  0.20030784495E+03  0.47000000000E+01 0. -1.
        -13    1    6    6    0    0  0.22642274065E+02 -0.81290187739E+02  0.34549109548E+03  0.35564710635E+03  0.00000000000E+00 0.  1.
         14    1    6    6    0    0 -0.24195765254E+02 -0.66941026151E+01  0.41313812400E+02  0.48343325921E+02  0.00000000000E+00 0. -1.
         -5    1    3    3    0  503 -0.26200418905E+02  0.34084144415E+02 -0.13392989432E+03  0.14073911128E+03  0.47000000000E+01 0.  1.
         11    1    4    4    0    0  0.20803236453E+02 -0.18236579920E+02  0.40829045265E+01  0.27964577656E+02  0.00000000000E+00 0. -1.
        -12    1    4    4    0    0 -0.46656810139E+02  0.31263720059E+02  0.31598119622E+01  0.56251778069E+02  0.00000000000E+00 0.  1.
</event>
<event>
12    1  0.1030140E-001  0.1806550E+03  0.7818608E-02  0.1167390E+00
         21   -1    0    0  503  502  0.00000000000E+00  0.00000000000E+00  0.48061466200E+03  0.48061466200E+03  0.00000000000E+00 0. -1.
         21   -1    0    0  501  503 -0.00000000000E+00 -0.00000000000E+00 -0.98867229116E+02  0.98867229116E+02  0.00000000000E+00 0. -1.
          6    2    1    2  501    0  0.41292240101E+02 -0.37167493878E+02  0.28169529342E+02  0.18283805494E+03  0.17190043705E+03 0.  0.
         24    2    3    3    0    0  0.66430295896E+02 -0.79391468630E+02  0.32232615010E+02  0.13330640286E+03  0.77560725037E+02 0.  0.
         -6    2    1    2    0  502 -0.41292240101E+02  0.37167493878E+02  0.35357790354E+03  0.39664383618E+03  0.17094597746E+03 0.  0.
        -24    2    5    5    0    0  0.14365602433E+02 -0.20842696750E+02  0.17378793871E+03  0.19964256941E+03  0.94942716095E+02 0.  0.
          5    1    3    3  501    0 -0.25138055795E+02  0.42223974751E+02 -0.40630856680E+01  0.49531652083E+02  0.47000000000E+01 0. -1.
        -11    1    4    4    0    0 -0.13147099589E+02 -0.15757789129E+02  0.23262855118E+02  0.31021195562E+02  0.00000000000E+00 0.  1.
         12    1    4    4    0    0  0.79577395485E+02 -0.63633679500E+02  0.89697598928E+01  0.10228520730E+03  0.00000000000E+00 0. -1.
         -5    1    5    5    0  502 -0.55657842534E+02  0.58010190629E+02  0.17978996484E+03  0.19700126677E+03  0.47000000000E+01 0.  1.
         13    1    6    6    0    0  0.23741296898E+02 -0.30247893615E+02  0.18064810911E+03  0.18469521805E+03  0.00000000000E+00 0. -1.
        -14    1    6    6    0    0 -0.93756944652E+01  0.94051968648E+01 -0.68601703998E+01  0.14947351360E+02  0.00000000000E+00 0.  1.
</event>
<event>
12    1  0.1030140E-001  0.2294362E+03  0.7818608E-02  0.1128726E+00
         21   -1    0    0  503  502  0.00000000000E+00  0.00000000000E+00  0.41915979803E+03  0.41915979803E+03  0.00000000000E+00 0.  1.
         21   -1    0    0  501  503 -0.00000000000E+00 -0.00000000000E+00 -0.20629377729E+03  0.20629377729E+03  0.00000000000E+00 0. -1.
          6    2    1    2  501    0  0.91864672381E+02  0.10358002666E+03 -0.93901188659E+02  0.24790801522E+03  0.18295630852E+03 0.  0.
         24    2    3    3    0    0  0.14824470865E+02  0.11612994988E+03 -0.92899970984E+02  0.16970452643E+03  0.80394598615E+02 0.  0.
         -6    2    1    2    0  502 -0.91864672381E+02 -0.10358002666E+03  0.30676720939E+03  0.37754556010E+03  0.17107480597E+03 0.  0.
        -24    2    5    5    0    0 -0.98619977460E+02 -0.19403251489E+02  0.22493653882E+03  0.25986075959E+03  0.82636443257E+02 0.  0.
          5    1    3    3  501    0  0.77040201516E+02 -0.12549923220E+02 -0.10012176743E+01  0.78203488792E+02  0.47000000000E+01 0. -1.
        -11    1    4    4    0    0 -0.15108861428E+02  0.17943221354E+02  0.89451659468E+01  0.25104837781E+02  0.00000000000E+00 0.  1.
         12    1    4    4    0    0  0.29933332294E+02  0.98186728526E+02 -0.10184513693E+03  0.14459968865E+03  0.00000000000E+00 0. -1.
         -5    1    5    5    0  502  0.67553050793E+01 -0.84176775171E+02  0.81830670569E+02  0.11768480051E+03  0.47000000000E+01 0.  1.
         11    1    6    6    0    0 -0.21055194984E+02  0.29857055849E+02  0.84198622536E+02  0.91783293996E+02  0.00000000000E+00 0. -1.
        -12    1    6    6    0    0 -0.77564782476E+02 -0.49260307337E+02  0.14073791629E+03  0.16807746559E+03  0.00000000000E+00 0.  1.
</event>
<event>
12    1  0.1030140E-001  0.1872777E+03  0.7818608E-02  0.1161044E+00
         21   -1    0    0  503  502  0.00000000000E+00  0.00000000000E+00  0.17484419183E+03  0.17484419183E+03  0.00000000000E+00 0.  1.
         21   -1    0    0  501  503 -0.00000000000E+00 -0.00000000000E+00 -0.95710101207E+03  0.95710101207E+03  0.00000000000E+00 0.  1.
          6    2    1    2  501    0 -0.30918443992E+02 -0.66037673842E+02  0.11211307194E+03  0.21827112805E+03  0.17249933303E+03 0.  0.
         24    2    3    3    0    0 -0.52756650824E+02 -0.97363869850E+02  0.11661106985E+03  0.17953406803E+03  0.79820753027E+02 0.  0.
         -6    2    1    2    0  502  0.30918443992E+02  0.66037673842E+02 -0.89436989218E+03  0.91367407585E+03  0.17200548914E+03 0.  0.
        -24    2    5    5    0    0  0.23187336199E+01  0.91409352998E+02 -0.41314844038E+03  0.43091342997E+03  0.81447553666E+02 0.  0.
          5    1    3    3  501    0  0.21838206832E+02  0.31326196009E+02 -0.44979979069E+01  0.38737060023E+02  0.47000000000E+01 0. -1.
        -11    1    4    4    0    0  0.17656807648E+02 -0.10210520151E+02  0.36446903860E+02  0.41765947601E+02  0.00000000000E+00 0.  1.
         12    1    4    4    0    0 -0.70413458471E+02 -0.87153349700E+02  0.80164165987E+02  0.13776812043E+03  0.00000000000E+00 0. -1.
         -5    1    5    5    0  502  0.28599710372E+02 -0.25371679156E+02 -0.48122145180E+03  0.48276064588E+03  0.47000000000E+01 0.  1.
         11    1    6    6    0    0  0.13332138638E+01  0.18140033511E+01  0.38159936203E+01  0.44305614401E+01  0.00000000000E+00 0. -1.
        -12    1    6    6    0    0  0.98551975611E+00  0.89595349647E+02 -0.41696443400E+03  0.42648286853E+03  0.00000000000E+00 0.  1.
</event>
<event>
12    1  0.1030140E-001  0.1899813E+03  0.7818608E-02  0.1159914E+00
         21   -1    0    0  503  502  0.00000000000E+00  0.00000000000E+00  0.14837047602E+03  0.14837047602E+03  0.00000000000E+00 0. -1.
         21   -1    0    0  501  503 -0.00000000000E+00 -0.00000000000E+00 -0.26855860255E+03  0.26855860255E+03  0.00000000000E+00 0. -1.
          6    2    1    2  501    0 -0.62414923099E+00 -0.82860712169E+02 -0.13254440478E+03  0.22654638288E+03  0.16397852657E+03 0.  0.
         24    2    3    3    0    0  0.73657946084E+01 -0.41652636547E+02 -0.30293412672E+01  0.90317948351E+02  0.79743073833E+02 0.  0.
         -6    2    1    2    0  502  0.62414923099E+00  0.82860712169E+02  0.12356278248E+02  0.19038269570E+03  0.17095790717E+03 0.  0.
        -24    2    5    5    0    0  0.37794655864E+01  0.97778023436E+02  0.59541811941E+02  0.14057258842E+03  0.81489870653E+02 0.  0.
          5    1    3    3  501    0 -0.79899438394E+01 -0.41208075622E+02 -0.12951506351E+03  0.13622843453E+03  0.47000000000E+01 0. -1.
        -11    1    4    4    0    0  0.74613749515E+01 -0.63960519669E+02  0.89232058982E+01  0.65009566958E+02  0.00000000000E+00 0.  1.
         12    1    4    4    0    0 -0.95580343075E-01  0.22307883123E+02 -0.11952547165E+02  0.25308381393E+02  0.00000000000E+00 0. -1.
         -5    1    5    5    0  502 -0.31553163554E+01 -0.14917311267E+02 -0.47185533693E+02  0.49810107274E+02  0.47000000000E+01 0.  1.
         13    1    6    6    0    0  0.94310734349E+01 -0.41075801608E+01  0.33804005062E+02  0.35334517390E+02  0.00000000000E+00 0. -1.
        -14    1    6    6    0    0 -0.56516078485E+01  0.10188560360E+03  0.25737806879E+02  0.10523807103E+03  0.00000000000E+00 0.  1.
</event>
<event>
12    1  0.1030140E-001  0.1928875E+03  0.7818608E-02  0.1156300E+00
         21   -1    0    0  501  502  0.00000000000E+00  0.00000000000E+00  0.45322616265E+03  0.45322616265E+03  0.00000000000E+00 0. -1.
         21   -1    0    0  502  503 -0.00000000000E+00 -0.00000000000E+00 -0.13151417553E+03  0.13151417553E+03  0.00000000000E+00 0. -1.
         -6    2    1    2    0  503  0.21593596075E+02 -0.84554187237E+02 -0.20299549404E+02  0.19208593213E+03  0.16990950429E+03 0.  0.
        -24    2    3    3    0    0 -0.13122598694E+02 -0.68401778489E+02 -0.71604268866E+02  0.12789575589E+03  0.79869563395E+02 0.  0.
          6    2    1    2  501    0 -0.21593596075E+02  0.84554187237E+02  0.34201153652E+03  0.39265440604E+03  0.17201714304E+03 0.  0.
         24    2    5    5    0    0  0.38688500173E+02  0.16668837097E+02  0.23773035141E+03  0.25431060438E+03  0.79896891934E+02 0.  0.
          5    1    5    5  501    0 -0.60282096248E+02  0.67885350140E+02  0.10428118511E+03  0.13834380167E+03  0.47000000000E+01 0. -1.
        -11    1    6    6    0    0  0.37376791136E+02 -0.24229300574E+02  0.82261494075E+02  0.93546977125E+02  0.00000000000E+00 0.  1.
         12    1    6    6    0    0  0.13117090373E+01  0.40898137671E+02  0.15546885734E+03  0.16076362725E+03  0.00000000000E+00 0. -1.
         -5    1    3    3    0  503  0.34716194769E+02 -0.16152408748E+02  0.51304719462E+02  0.64190176247E+02  0.47000000000E+01 0.  1.
         11    1    4    4    0    0  0.32438670585E+02 -0.39358560237E+02 -0.43274271609E+02  0.66888161856E+02  0.00000000000E+00 0. -1.
        -12    1    4    4    0    0 -0.45561269278E+02 -0.29043218252E+02 -0.28329997257E+02  0.61007594030E+02  0.00000000000E+00 0.  1.
</event>
<event>
12    1  0.1030140E-001  0.2211844E+03  0.7818608E-02  0.1133036E+00
         21   -1    0    0  503  502  0.00000000000E+00  0.00000000000E+00  0.15420988623E+04  0.15420988623E+04  0.00000000000E+00 0.  1.
         21   -1    0    0  501  503 -0.00000000000E+00 -0.00000000000E+00 -0.33566872714E+02  0.33566872714E+02  0.00000000000E+00 0.  1.
          6    2    1    2  501    0  0.11779407946E+03 -0.72034371983E+02  0.56872430261E+03  0.61022115855E+03  0.17279506376E+03 0.  0.
         24    2    3    3    0    0  0.82578560809E+02 -0.69783427439E+02  0.55652807436E+03  0.57259088498E+03  0.80298683435E+02 0.  0.
         -6    2    1    2    0  502 -0.11779407946E+03  0.72034371983E+02  0.93980768697E+03  0.96544457646E+03  0.17256982882E+03 0.  0.
        -24    2    5    5    0    0 -0.43084944900E+01  0.14185851887E+02  0.23217843470E+03  0.24642671997E+03  0.81237314448E+02 0.  0.
          5    1    3    3  501    0  0.35215518654E+02 -0.22509445440E+01  0.12196228251E+02  0.37630273570E+02  0.47000000000E+01 0. -1.
        -13    1    4    4    0    0  0.55334264662E+02 -0.42724954460E+02  0.16519680097E+03  0.17938028217E+03  0.00000000000E+00 0.  1.
         14    1    4    4    0    0  0.27244296146E+02 -0.27058472979E+02  0.39133127339E+03  0.39321060281E+03  0.00000000000E+00 0. -1.
         -5    1    5    5    0  502 -0.11348558497E+03  0.57848520096E+02  0.70762925227E+03  0.71901785648E+03  0.47000000000E+01 0.  1.
         13    1    6    6    0    0 -0.11939211111E+02  0.27672672876E+02  0.26400897880E+02  0.40066557064E+02  0.00000000000E+00 0. -1.
        -14    1    6    6    0    0  0.76307166208E+01 -0.13486820989E+02  0.20577753682E+03  0.20636016291E+03  0.00000000000E+00 0.  1.
</event>
<event>
12    1  0.1030140E-001  0.1992285E+03  0.7818608E-02  0.1150676E+00
         21   -1    0    0  503  502  0.00000000000E+00  0.00000000000E+00  0.79398220868E+02  0.79398220868E+02  0.00000000000E+00 0.  1.
         21   -1    0    0  501  503 -0.00000000000E+00 -0.00000000000E+00 -0.72279562842E+03  0.72279562842E+03  0.00000000000E+00 0. -1.
          6    2    1    2  501    0 -0.54265384314E+02  0.86165892476E+02 -0.54535171513E+03  0.58014664267E+03  0.16968305997E+03 0.  0.
         24    2    3    3    0    0 -0.76753981858E+02  0.61237879744E+02 -0.52651078049E+03  0.54136244928E+03  0.78857135842E+02 0.  0.
         -6    2    1    2    0  502  0.54265384314E+02 -0.86165892476E+02 -0.98045692425E+02  0.22204720662E+03  0.17123875498E+03 0.  0.
        -24    2    5    5    0    0  0.21378635617E+02 -0.24344898061E+02  0.15127762442E+02  0.88879288277E+02  0.81369272860E+02 0.  0.
          5    1    3    3  501    0  0.22488597544E+02  0.24928012733E+02 -0.18840934637E+02  0.38784193382E+02  0.47000000000E+01 0. -1.
        -11    1    4    4    0    0 -0.94949125565E+00  0.21116906856E+02 -0.25773795883E+02  0.33333374312E+02  0.00000000000E+00 0.  1.
         12    1    4    4    0    0 -0.75804490603E+02  0.40120972888E+02 -0.50073698461E+03  0.50802907497E+03  0.00000000000E+00 0. -1.
         -5    1    5    5    0  502  0.32886748697E+02 -0.61820994415E+02 -0.11317345487E+03  0.13316791835E+03  0.47000000000E+01 0.  1.
         13    1    6    6    0    0  0.25819972547E+02 -0.26960313776E+02 -0.27231898055E+02  0.46207204773E+02  0.00000000000E+00 0. -1.
        -14    1    6    6    0    0 -0.44413369302E+01  0.26154157152E+01  0.42359660498E+02  0.42672083504E+02  0.00000000000E+00 0.  1.
</event>
<event>
12    1  0.1030140E-001  0.1902933E+03  0.7818608E-02  0.1158249E+00
         21   -1    0    0  503  502  0.00000000000E+00  0.00000000000E+00  0.52812211493E+03  0.52812211493E+03  0.00000000000E+00 0.  1.
         21   -1    0    0  501  503 -0.00000000000E+00 -0.00000000000E+00 -0.11571597859E+03  0.11571597859E+03  0.00000000000E+00 0. -1.
          6    2    1    2  501    0 -0.71580438428E+02 -0.31669921376E+02  0.41179783982E+03  0.45354382793E+03  0.17319872944E+03 0.  0.
         24    2    3    3    0    0 -0.73343252152E+02  0.24168796284E+02  0.15814796547E+03  0.19377196905E+03  0.81076714650E+02 0.  0.
         -6    2    1    2    0  502  0.71580438428E+02  0.31669921376E+02  0.60829651554E+00  0.19029426559E+03  0.17344968840E+03 0.  0.
        -24    2    5    5    0    0  0.96680704329E+02  0.39107982166E+02 -0.48830657764E+02  0.13415472251E+03  0.68821970154E+02 0.  0.
          5    1    3    3  501    0  0.17628137242E+01 -0.55838717660E+02  0.25364987436E+03  0.25977185887E+03  0.47000000000E+01 0. -1.
        -11    1    4    4    0    0 -0.81553666674E+01 -0.25042903022E+02  0.63552654554E+02  0.68793872533E+02  0.00000000000E+00 0.  1.
         12    1    4    4    0    0 -0.65187885484E+02  0.49211699305E+02  0.94595310915E+02  0.12497809652E+03  0.00000000000E+00 0. -1.
         -5    1    5    5    0  502 -0.25100265901E+02 -0.74380607900E+01  0.49438954280E+02  0.56139543077E+02  0.47000000000E+01 0.  1.
         11    1    6    6    0    0  0.31558676547E+02  0.39398268448E+02 -0.47052077115E+02  0.69007764657E+02  0.00000000000E+00 0. -1.
        -12    1    6    6    0    0  0.65122027782E+02 -0.29028628202E+00 -0.17785806487E+01  0.65146957855E+02  0.00000000000E+00 0.  1.
</event>
<event>
12    1  0.1030140E-001  0.1951852E+03  0.7818608E-02  0.1154196E+00
         21   -1    0    0  501  502  0.00000000000E+00  0.00000000000E+00  0.73992229545E+02  0.73992229545E+02  0.00000000000E+00 0. -1.
         21   -1    0    0  502  503 -0.00000000000E+00 -0.00000000000E+00 -0.67429586690E+03  0.67429586690E+03  0.00000000000E+00 0. -1.
         -6    2    1    2    0  503  0.89850851341E+02  0.14660303369E+02 -0.48343849780E+03  0.52079147893E+03  0.17094701926E+03 0.  0.
        -24    2    3    3    0    0  0.88092557179E+02  0.70213880252E+02 -0.32371111811E+03  0.35160454881E+03  0.78400147604E+02 0.  0.
          6    2    1    2  501    0 -0.89850851341E+02 -0.14660303369E+02 -0.11686513956E+03  0.22749661751E+03  0.17265326569E+03 0.  0.
         24    2    5    5    0    0 -0.36929695873E+02 -0.77393430161E+01 -0.13623715945E+03  0.17052369813E+03  0.95362823680E+02 0.  0.
          5    1    5    5  501    0 -0.52921155468E+02 -0.69209603531E+01  0.19372019894E+02  0.56972919384E+02  0.47000000000E+01 0. -1.
        -13    1    6    6    0    0 -0.19248035483E+02  0.39030060534E+02 -0.29265242428E+02  0.52443177913E+02  0.00000000000E+00 0.  1.
         14    1    6    6    0    0 -0.17681660389E+02 -0.46769403550E+02 -0.10697191702E+03  0.11808052021E+03  0.00000000000E+00 0. -1.
         -5    1    3    3    0  503  0.17582941622E+01 -0.55553576883E+02 -0.15972737968E+03  0.16918693012E+03  0.47000000000E+01 0.  1.
         13    1    4    4    0    0  0.58611229996E+02  0.67263088667E+02 -0.30191879616E+03  0.31482464778E+03  0.00000000000E+00 0. -1.
        -14    1    4    4    0    0  0.29481327183E+02  0.29507915853E+01 -0.21792321957E+02  0.36779901029E+02  0.00000000000E+00 0.  1.
</event>
<event>
12    1  0.1030140E-001  0.2628372E+03  0.7818608E-02  0.1105756E+00
         21   -1    0    0  503  502  0.00000000000E+00  0.00000000000E+00  0.72828805516E+03  0.72828805516E+03  0.00000000000E+00 0.  1.
         21   -1    0    0  501  503 -0.00000000000E+00 -0.00000000000E+00 -0.27161131811E+03  0.27161131811E+03  0.00000000000E+00 0.  1.
          6    2    1    2  501    0  0.18684980867E+03  0.67216378936E+02 -0.17612258796E+03  0.31468525556E+03  0.16904659560E+03 0.  0.
         24    2    3    3    0    0  0.63025086520E+02  0.41757483083E+02 -0.17233346059E+02  0.11158774601E+03  0.80243304519E+02 0.  0.
         -6    2    1    2    0  502 -0.18684980867E+03 -0.67216378936E+02  0.63279932500E+03  0.68521411770E+03  0.17219903828E+03 0.  0.
        -24    2    5    5    0    0 -0.12120286401E+03  0.15376642826E+02  0.26358669217E+03  0.30119434370E+03  0.79457617623E+02 0.  0.
          5    1    3    3  501    0  0.12382472215E+03  0.25458895853E+02 -0.15888924190E+03  0.20309750955E+03  0.47000000000E+01 0. -1.
        -13    1    4    4    0    0  0.23907973104E+02  0.36045542405E+02 -0.45661494578E+02  0.62895503753E+02  0.00000000000E+00 0.  1.
         14    1    4    4    0    0  0.39117113415E+02  0.57119406773E+01  0.28428148519E+02  0.48692242262E+02  0.00000000000E+00 0. -1.
         -5    1    5    5    0  502 -0.65646944667E+02 -0.82593021761E+02  0.36921263283E+03  0.38401977401E+03  0.47000000000E+01 0.  1.
         13    1    6    6    0    0 -0.53586502322E+02 -0.30382577346E+02  0.14145775913E+03  0.15428840480E+03  0.00000000000E+00 0. -1.
        -14    1    6    6    0    0 -0.67616361685E+02  0.45759220172E+02  0.12212893304E+03  0.14690593890E+03  0.00000000000E+00 0.  1.
</event>
<event>
12    1  0.1030140E-001  0.1969203E+03  0.7818608E-02  0.1152450E+00
         21   -1    0    0  503  502  0.00000000000E+00  0.00000000000E+00  0.18468657148E+03  0.18468657148E+03  0.00000000000E+00 0. -1.
         21   -1    0    0  501  503 -0.00000000000E+00 -0.00000000000E+00 -0.31511393406E+03  0.31511393406E+03  0.00000000000E+00 0. -1.
          6    2    1    2  501    0 -0.94514186639E+02 -0.19021380046E+02 -0.20981904908E+03  0.28747852184E+03  0.17124579640E+03 0.  0.
         24    2    3    3    0    0 -0.39667285474E+01 -0.29165828897E+02 -0.39243386085E+02  0.94036285454E+02  0.80227171956E+02 0.  0.
         -6    2    1    2    0  502  0.94514186639E+02  0.19021380046E+02  0.79391686506E+02  0.21232198371E+03  0.17170567988E+03 0.  0.
        -24    2    5    5    0    0  0.73666183167E+02  0.71106341975E+02  0.84897799583E+02  0.15575441535E+03  0.81049263518E+02 0.  0.
          5    1    3    3  501    0 -0.90547458092E+02  0.10144448852E+02 -0.17057566300E+03  0.19344223638E+03  0.47000000000E+01 0. -1.
        -11    1    4    4    0    0  0.37841475138E+02 -0.16078062726E+02 -0.24242707520E+02  0.47730390838E+02  0.00000000000E+00 0.  1.
         12    1    4    4    0    0 -0.41808203686E+02 -0.13087766172E+02 -0.15000678565E+02  0.46305894616E+02  0.00000000000E+00 0. -1.
         -5    1    5    5    0  502  0.20848003472E+02 -0.52084961930E+02 -0.55061130771E+01  0.56567568351E+02  0.47000000000E+01 0.  1.
         13    1    6    6    0    0  0.54491558784E+02  0.17534802364E+02  0.47190226229E+01  0.57437517766E+02  0.00000000000E+00 0. -1.
        -14    1    6    6    0    0  0.19174624384E+02  0.53571539612E+02  0.80178776960E+02  0.98316897589E+02  0.00000000000E+00 0.  1.
</event>
<event>
12    1  0.1030140E-001  0.3392751E+03  0.7818608E-02  0.1067251E+00
         21   -1    0    0  503  502  0.00000000000E+00  0.00000000000E+00  0.75262893788E+03  0.75262893788E+03  0.00000000000E+00 0.  1.
         21   -1    0    0  501  503 -0.00000000000E+00 -0.00000000000E+00 -0.21014706859E+03  0.21014706859E+03  0.00000000000E+00 0.  1.
          6    2    1    2  501    0  0.16182871115E+03  0.24275857221E+03  0.18337684817E+02  0.33840854921E+03  0.17048114077E+03 0.  0.
         24    2    3    3    0    0  0.19034449585E+03  0.21383592382E+03  0.14726560671E+02  0.29736223652E+03  0.79060727935E+02 0.  0.
         -6    2    1    2    0  502 -0.16182871115E+03 -0.24275857221E+03  0.52414418448E+03  0.62436745726E+03  0.17316852898E+03 0.  0.
        -24    2    5    5    0    0 -0.70694043002E+02 -0.64829486220E+02  0.29436795144E+03  0.31976362497E+03  0.79973589487E+02 0.  0.
          5    1    3    3  501    0 -0.28515784708E+02  0.28922648399E+02  0.36111241454E+01  0.41046312691E+02  0.47000000000E+01 0. -1.
        -11    1    4    4    0    0  0.17272099296E+03  0.14921383338E+03 -0.22610512280E+01  0.22825954927E+03  0.00000000000E+00 0.  1.
         12    1    4    4    0    0  0.17623502894E+02  0.64622090437E+02  0.16987611899E+02  0.69102687247E+02  0.00000000000E+00 0. -1.
         -5    1    5    5    0  502 -0.91134668144E+02 -0.17792908599E+03  0.22977623303E+03  0.30460383229E+03  0.47000000000E+01 0.  1.
         11    1    6    6    0    0 -0.79931686112E+02 -0.28689500886E+02  0.17177946877E+03  0.19162554057E+03  0.00000000000E+00 0. -1.
        -12    1    6    6    0    0  0.92376431095E+01 -0.36139985334E+02  0.12258848267E+03  0.12813808440E+03  0.00000000000E+00 0.  1.
</event>
<event>
12    1  0.1030140E-001  0.2018944E+03  0.7818608E-02  0.1148216E+00
         21   -1    0    0  501  502  0.00000000000E+00  0.00000000000E+00  0.10456702829E+04  0.10456702829E+04  0.00000000000E+00 0.  1.
         21   -1    0    0  502  503 -0.00000000000E+00 -0.00000000000E+00 -0.49213582168E+02  0.49213582168E+02  0.00000000000E+00 0.  1.
         -6    2    1    2    0  503  0.78873355421E+02  0.70541029831E+02  0.24817471515E+03  0.31992505297E+03  0.17194274395E+03 0.  0.
        -24    2    3    3    0    0  0.14794657119E+01  0.22158232320E+02  0.36776947869E+02  0.89616965251E+02  0.78647825704E+02 0.  0.
          6    2    1    2  501    0 -0.78873355421E+02 -0.70541029831E+02  0.74828198558E+03  0.77495881209E+03  0.17157560261E+03 0.  0.
         24    2    5    5    0    0 -0.86508564230E+02 -0.58990695996E+02  0.31360711269E+03  0.34003808168E+03  0.79453394892E+02 0.  0.
          5    1    5    5  501    0  0.76352088089E+01 -0.11550333835E+02  0.43467487289E+03  0.43492073041E+03  0.47000000000E+01 0. -1.
        -11    1    6    6    0    0 -0.42092495959E+02 -0.10356078345E+01  0.20424841809E+03  0.20854320174E+03  0.00000000000E+00 0.  1.
         12    1    6    6    0    0 -0.44416068271E+02 -0.57955088161E+02  0.10935869460E+03  0.13149487994E+03  0.00000000000E+00 0. -1.
         -5    1    3    3    0  503  0.77393889709E+02  0.48382797510E+02  0.21139776728E+03  0.23030808772E+03  0.47000000000E+01 0.  1.
         11    1    4    4    0    0  0.28850654528E+01  0.51713065535E+02  0.27301135214E+02  0.58548413588E+02  0.00000000000E+00 0. -1.
        -12    1    4    4    0    0 -0.14055997409E+01 -0.29554833215E+02  0.94758126554E+01  0.31068551663E+02  0.00000000000E+00 0.  1.
</event>
<event>
12    1  0.1030140E-001  0.2177314E+03  0.7818608E-02  0.1136220E+00
         21   -1    0    0  501  502  0.00000000000E+00  0.00000000000E+00  0.57985996499E+03  0.57985996499E+03  0.00000000000E+00 0. -1.
         21   -1    0    0  502  503 -0.00000000000E+00 -0.00000000000E+00 -0.12011717435E+03  0.12011717435E+03  0.00000000000E+00 0. -1.
         -6    2    1    2    0  503  0.52586952311E+02  0.12362029766E+03  0.27719105988E+02  0.21618853263E+03  0.16709807677E+03 0.  0.
        -24    2    3    3    0    0  0.48009467914E+02  0.90555139467E+02 -0.43783843430E+02  0.13713779054E+03  0.79903731805E+02 0.  0.
          6    2    1    2  501    0 -0.52586952311E+02 -0.12362029766E+03  0.43202368465E+03  0.48378860671E+03  0.17134639283E+03 0.  0.
         24    2    5    5    0    0  0.36888862990E+02 -0.62700478209E+02  0.18360791646E+03  0.21277268502E+03  0.79172029923E+02 0.  0.
          5    1    5    5  501    0 -0.89475815301E+02 -0.60919819446E+02  0.24841576819E+03  0.27101592169E+03  0.47000000000E+01 0. -1.
        -11    1    6    6    0    0  0.41452801567E+02  0.30715626139E+01  0.68889610433E+02  0.80458359915E+02  0.00000000000E+00 0.  1.
         12    1    6    6    0    0 -0.45639385770E+01 -0.65772040823E+02  0.11471830603E+03  0.13231432511E+03  0.00000000000E+00 0. -1.
         -5    1    3    3    0  503  0.45774843971E+01  0.33065158189E+02  0.71502949418E+02  0.79050742090E+02  0.47000000000E+01 0.  1.
         11    1    4    4    0    0 -0.19168264904E+02  0.44493961598E+02 -0.14302885425E+02  0.50514428924E+02  0.00000000000E+00 0. -1.
        -12    1    4    4    0    0  0.67177732818E+02  0.46061177869E+02 -0.29480958005E+02  0.86623361619E+02  0.00000000000E+00 0.  1.
</event>
<event>
12    1  0.1030140E-001  0.2659110E+03  0.7818608E-02  0.1103677E+00
         21   -1    0    0  501  502  0.00000000000E+00  0.00000000000E+00  0.15379067306E+03  0.15379067306E+03  0.00000000000E+00 0.  1.
         21   -1    0    0  502  503 -0.00000000000E+00 -0.00000000000E+00 -0.48682121035E+03  0.48682121035E+03  0.00000000000E+00 0.  1.
         -6    2    1    2    0  503 -0.19741687649E+03 -0.45249003781E+02 -0.90381225322E+02  0.28062947063E+03  0.17193963600E+03 0.  0.
        -24    2    3    3    0    0 -0.11170384393E+03  0.37628568450E+02 -0.76020121835E+02  0.16044732876E+03  0.77914237928E+02 0.  0.
          6    2    1    2  501    0  0.19741687649E+03  0.45249003781E+02 -0.24264931197E+03  0.35998241278E+03  0.17230134487E+03 0.  0.
         24    2    5    5    0    0  0.12557058650E+03  0.94146714766E+02 -0.18655275798E+03  0.25643634142E+03  0.79536718537E+02 0.  0.
          5    1    5    5  501    0  0.71846289990E+02 -0.48897710984E+02 -0.56096553997E+02  0.10354607137E+03  0.47000000000E+01 0. -1.
        -11    1    6    6    0    0  0.73130445334E+02  0.70983587166E+02 -0.61920234048E+02  0.11925119314E+03  0.00000000000E+00 0.  1.
         12    1    6    6    0    0  0.52440141163E+02  0.23163127599E+02 -0.12463252393E+03  0.13718514827E+03  0.00000000000E+00 0. -1.
         -5    1    3    3    0  503 -0.85713032560E+02 -0.82877572231E+02 -0.14361103487E+02  0.12018214186E+03  0.47000000000E+01 0.  1.
         13    1    4    4    0    0 -0.24830132457E+02  0.31685439288E+02  0.61486745454E+01  0.40722337106E+02  0.00000000000E+00 0. -1.
        -14    1    4    4    0    0 -0.86873711471E+02  0.59431291615E+01 -0.82168796380E+02  0.11972499166E+03  0.00000000000E+00 0.  1.
</event>
<event>
12    1  0.1030140E-001  0.3214541E+03  0.7818608E-02  0.1075090E+00
         21   -1    0    0  501  502  0.00000000000E+00  0.00000000000E+00  0.75643912991E+02  0.75643912991E+02  0.00000000000E+00 0.  1.
         21   -1    0    0  502  503 -0.00000000000E+00 -0.00000000000E+00 -0.14081698112E+04  0.14081698112E+04  0.00000000000E+00 0. -1.
         -6    2    1    2    0  503 -0.19771802852E+03  0.18569581873E+03 -0.80147656584E+03  0.86353774546E+03  0.17250332272E+03 0.  0.
        -24    2    3    3    0    0 -0.19236504730E+02  0.72578768798E+02 -0.27290665391E+03  0.29427562383E+03  0.80513230222E+02 0.  0.
          6    2    1    2  501    0  0.19771802852E+03 -0.18569581873E+03 -0.53104933237E+03  0.62027597873E+03  0.17074407892E+03 0.  0.
         24    2    5    5    0    0  0.63783023418E+02 -0.15062373105E+03 -0.33007640950E+03  0.37618410535E+03  0.76211958224E+02 0.  0.
          5    1    5    5  501    0  0.13393500510E+03 -0.35072087677E+02 -0.20097292286E+03  0.24409187338E+03  0.47000000000E+01 0. -1.
        -13    1    6    6    0    0 -0.13970638890E+02 -0.43879979404E+02 -0.60829790745E+02  0.76294788719E+02  0.00000000000E+00 0.  1.
         14    1    6    6    0    0  0.77753662308E+02 -0.10674375165E+03 -0.26924661876E+03  0.29988931663E+03  0.00000000000E+00 0. -1.
         -5    1    3    3    0  503 -0.17848152378E+03  0.11311704993E+03 -0.52856991194E+03  0.56926212163E+03  0.47000000000E+01 0.  1.
         13    1    4    4    0    0 -0.42932061399E+02  0.34753096796E+02 -0.20999933339E+03  0.21714202647E+03  0.00000000000E+00 0. -1.
        -14    1    4    4    0    0  0.23695556669E+02  0.37825672002E+02 -0.62907320515E+02  0.77133597366E+02  0.00000000000E+00 0.  1.
</event>
<event>
12    1  0.1030140E-001  0.2007010E+03  0.7818608E-02  0.1149999E+00
         21   -1    0    0  503  502  0.00000000000E+00  0.00000000000E+00  0.13956279850E+03  0.13956279850E+03  0.00000000000E+00 0.  1.
         21   -1    0    0  501  503 -0.00000000000E+00 -0.00000000000E+00 -0.31311006461E+03  0.31311006461E+03  0.00000000000E+00 0.  1.
          6    2    1    2  501    0 -0.48808953350E+02  0.90348675299E+02 -0.15787575756E+03  0.25535393275E+03  0.17244036387E+03 0.  0.
         24    2    3    3    0    0 -0.66516928690E+02  0.43747265994E+02 -0.17027098127E+03  0.20376909670E+03  0.78684894505E+02 0.  0.
         -6    2    1    2    0  502  0.48808953350E+02 -0.90348675299E+02 -0.15671508557E+02  0.19731893036E+03  0.16776163758E+03 0.  0.
        -24    2    5    5    0    0 -0.22573237775E+02 -0.83791719225E+02  0.16275132049E+02  0.11869903003E+03  0.79334585973E+02 0.  0.
          5    1    3    3  501    0  0.17707975340E+02  0.46601409304E+02  0.12395223709E+02  0.51584836053E+02  0.47000000000E+01 0. -1.
        -13    1    4    4    0    0 -0.57111163257E+02  0.37946931626E+02 -0.54815701826E+02  0.87786193419E+02  0.00000000000E+00 0.  1.
         14    1    4    4    0    0 -0.94057654332E+01  0.58003343689E+01 -0.11545527944E+03  0.11598290328E+03  0.00000000000E+00 0. -1.
         -5    1    5    5    0  502  0.71382191125E+02 -0.65569560734E+01 -0.31946640605E+02  0.78619900335E+02  0.47000000000E+01 0.  1.
         11    1    6    6    0    0 -0.12271680055E+01 -0.28133009140E+02  0.44564128520E+02  0.52715592526E+02  0.00000000000E+00 0. -1.
        -12    1    6    6    0    0 -0.21346069770E+02 -0.55658710085E+02 -0.28288996471E+02  0.65983437500E+02  0.00000000000E+00 0.  1.
</event>
<event>
12    1  0.1030140E-001  0.2686480E+03  0.7818608E-02  0.1102429E+00
         21   -1    0    0  503  502  0.00000000000E+00  0.00000000000E+00  0.94903667185E+02  0.94903667185E+02  0.00000000000E+00 0.  1.
         21   -1    0    0  501  503 -0.00000000000E+00 -0.00000000000E+00 -0.76560357493E+03  0.76560357493E+03  0.00000000000E+00 0. -1.
          6    2    1    2  501    0  0.19384816221E+03  0.67287004202E+02 -0.39173709457E+03  0.47500497445E+03  0.17339874152E+03 0.  0.
         24    2    3    3    0    0  0.24329507508E+02 -0.62088872268E+01 -0.12427487890E+03  0.14989522811E+03  0.79961607475E+02 0.  0.
         -6    2    1    2    0  502 -0.19384816221E+03 -0.67287004202E+02 -0.27896281317E+03  0.38550226766E+03  0.16937265515E+03 0.  0.
        -24    2    5    5    0    0 -0.15343843008E+03 -0.18211847722E+01 -0.24907962976E+03  0.30283537819E+03  0.78242800183E+02 0.  0.
          5    1    3    3  501    0  0.16951865471E+03  0.73495891429E+02 -0.26746221568E+03  0.32510974634E+03  0.47000000000E+01 0. -1.
        -13    1    4    4    0    0  0.34976208606E+02  0.52969379225E+01 -0.13259263741E+02  0.37778311169E+02  0.00000000000E+00 0.  1.
         14    1    4    4    0    0 -0.10646701098E+02 -0.11505825149E+02 -0.11101561515E+03  0.11211691694E+03  0.00000000000E+00 0. -1.
         -5    1    5    5    0  502 -0.40409732130E+02 -0.65465819430E+02 -0.29883183412E+02  0.82666889474E+02  0.47000000000E+01 0.  1.
         11    1    6    6    0    0 -0.14280591539E+03  0.16927740270E+02 -0.17953963829E+03  0.23003164908E+03  0.00000000000E+00 0. -1.
        -12    1    6    6    0    0 -0.10632514699E+02 -0.18748925042E+02 -0.69539991465E+02  0.72803729108E+02  0.00000000000E+00 0.  1.
</event>
<event>
12    1  0.1030140E-001  0.2378521E+03  0.7818608E-02  0.1121441E+00
         21   -1    0    0  503  502  0.00000000000E+00  0.00000000000E+00  0.31656132928E+03  0.31656132928E+03  0.00000000000E+00 0. -1.
         21   -1    0    0  501  503 -0.00000000000E+00 -0.00000000000E+00 -0.21387677091E+03  0.21387677091E+03  0.00000000000E+00 0. -1.
          6    2    1    2  501    0  0.12027888631E+03  0.11143660623E+03 -0.57496894514E+02  0.24470288433E+03  0.17230345622E+03 0.  0.
         24    2    3    3    0    0  0.95041294771E+01  0.30266344589E+00 -0.29451708463E+02  0.85233694678E+02  0.79416367928E+02 0.  0.
         -6    2    1    2    0  502 -0.12027888631E+03 -0.11143660623E+03  0.16018145288E+03  0.28573521585E+03  0.17059128943E+03 0.  0.
        -24    2    5    5    0    0 -0.11528591972E+03 -0.21056038327E+02  0.71204595935E+02  0.15872124874E+03  0.79925842391E+02 0.  0.
          5    1    3    3  501    0  0.11077475683E+03  0.11113394278E+03 -0.28045186051E+02  0.15946918966E+03  0.47000000000E+01 0. -1.
        -11    1    4    4    0    0  0.53111128282E+01  0.30656909049E+02  0.12289312275E+02  0.33452670866E+02  0.00000000000E+00 0.  1.
         12    1    4    4    0    0  0.41930166489E+01 -0.30354245603E+02 -0.41741020739E+02  0.51781023812E+02  0.00000000000E+00 0. -1.
         -5    1    5    5    0  502 -0.49929665816E+01 -0.90380567900E+02  0.88976856947E+02  0.12701396711E+03  0.47000000000E+01 0.  1.
         11    1    6    6    0    0 -0.10932066650E+03 -0.43290577857E+02  0.51282103301E+02  0.12827679593E+03  0.00000000000E+00 0. -1.
        -12    1    6    6    0    0 -0.59652532279E+01  0.22234539530E+02  0.19922492634E+02  0.30444452810E+02  0.00000000000E+00 0.  1.
</event>
<event>
12    1  0.1030140E-001  0.1868434E+03  0.7818608E-02  0.1162220E+00
         21   -1    0    0  503  502  0.00000000000E+00  0.00000000000E+00  0.12299606823E+03  0.12299606823E+03  0.00000000000E+00 0. -1.
         21   -1    0    0  501  503 -0.00000000000E+00 -0.00000000000E+00 -0.46500340980E+03  0.46500340980E+03  0.00000000000E+00 0. -1.
          6    2    1    2  501    0 -0.22506919034E+01  0.71063086961E+02 -0.35633307862E+03  0.40060766049E+03  0.16869560393E+03 0.  0.
         24    2    3    3    0    0  0.48080020407E+01 -0.26604177943E+02 -0.11923921239E+03  0.14404517064E+03  0.76158533646E+02 0.  0.
         -6    2    1    2    0  502  0.22506919034E+01 -0.71063086961E+02  0.14325737052E+02  0.18739181753E+03  0.17278726398E+03 0.  0.
        -24    2    5    5    0    0 -0.66340753900E+02 -0.46982178518E+02  0.17122482119E+02  0.11449059414E+03  0.78781317753E+02 0.  0.
          5    1    3    3  501    0 -0.70586939441E+01  0.97667264904E+02 -0.23709386623E+03  0.25656248985E+03  0.47000000000E+01 0. -1.
        -11    1    4    4    0    0 -0.42462801269E+01  0.82323679659E+01  0.77349943548E+01  0.12067846324E+02  0.00000000000E+00 0.  1.
         12    1    4    4    0    0  0.90542821677E+01 -0.34836545909E+02 -0.12697420674E+03  0.13197732432E+03  0.00000000000E+00 0. -1.
         -5    1    5    5    0  502  0.68591445803E+02 -0.24080908443E+02 -0.27967450670E+01  0.72901223390E+02  0.47000000000E+01 0.  1.
         11    1    6    6    0    0 -0.14511388981E+02 -0.14398874361E+02  0.43319277587E+02  0.47900603374E+02  0.00000000000E+00 0. -1.
        -12    1    6    6    0    0 -0.51829364919E+02 -0.32583304157E+02 -0.26196795468E+02  0.66589990768E+02  0.00000000000E+00 0.  1.
</event>
<event>
12    1  0.1030140E-001  0.1824410E+03  0.7818608E-02  0.1166020E+00
         21   -1    0    0  501  502  0.00000000000E+00  0.00000000000E+00  0.20368581222E+03  0.20368581222E+03  0.00000000000E+00 0.  1.
         21   -1    0    0  502  503 -0.00000000000E+00 -0.00000000000E+00 -0.25424923632E+03  0.25424923632E+03  0.00000000000E+00 0.  1.
         -6    2    1    2    0  503  0.44787641106E+02 -0.36263797993E+02 -0.16380382929E+03  0.24518650018E+03  0.17310034529E+03 0.  0.
        -24    2    3    3    0    0 -0.15696533962E+01 -0.37469321819E+02 -0.15441213154E+02  0.89674417343E+02  0.79979098350E+02 0.  0.
          6    2    1    2  501    0 -0.44787641106E+02  0.36263797993E+02  0.11324040520E+03  0.21274854836E+03  0.17063868149E+03 0.  0.
         24    2    5    5    0    0  0.21790278309E+02 -0.14441803974E+02  0.93114548033E+02  0.12654635842E+03  0.81610537571E+02 0.  0.
          5    1    5    5  501    0 -0.66577919415E+02  0.50705601967E+02  0.20125857163E+02  0.86202189944E+02  0.47000000000E+01 0. -1.
        -13    1    6    6    0    0 -0.77093723922E+01 -0.39551348407E+02  0.71789920867E+02  0.82325793781E+02  0.00000000000E+00 0.  1.
         14    1    6    6    0    0  0.29499650701E+02  0.25109544432E+02  0.21324627165E+02  0.44220564637E+02  0.00000000000E+00 0. -1.
         -5    1    3    3    0  503  0.46357294502E+02  0.12055238258E+01 -0.14836261613E+03  0.15551208283E+03  0.47000000000E+01 0.  1.
         11    1    4    4    0    0  0.16979881551E+02 -0.54066704311E+02 -0.26351431490E+02  0.62497382618E+02  0.00000000000E+00 0. -1.
        -12    1    4    4    0    0 -0.18549534947E+02  0.16597382492E+02  0.10910218336E+02  0.27177034725E+02  0.00000000000E+00 0.  1.
</event>
<event>
12    1  0.1030140E-001  0.1901841E+03  0.7818608E-02  0.1158918E+00
         21   -1    0    0  501  502  0.00000000000E+00  0.00000000000E+00  0.20287315962E+04  0.20287315962E+04  0.00000000000E+00 0. -1.
         21   -1    0    0  502  503 -0.00000000000E+00 -0.00000000000E+00 -0.18892685223E+02  0.18892685223E+02  0.00000000000E+00 0. -1.
         -6    2    1    2    0  503  0.34494821102E+02  0.72226264220E+02  0.72751178853E+03  0.75127061553E+03  0.16949221040E+03 0.  0.
        -24    2    3    3    0    0 -0.42578431670E+02  0.30116731214E+02  0.25406680144E+03  0.26972545164E+03  0.74040119720E+02 0.  0.
          6    2    1    2  501    0 -0.34494821102E+02 -0.72226264220E+02  0.12823271225E+04  0.12963536659E+04  0.17252087462E+03 0.  0.
         24    2    5    5    0    0  0.18604576044E+02 -0.69233361658E+02  0.46514895701E+03  0.47743318898E+03  0.80246552029E+02 0.  0.
          5    1    5    5  501    0 -0.53099397147E+02 -0.29929025616E+01  0.81717816548E+03  0.81892047696E+03  0.47000000000E+01 0. -1.
        -13    1    6    6    0    0  0.29556559820E+01 -0.22787573422E+02  0.22776366326E+02  0.32353860168E+02  0.00000000000E+00 0.  1.
         14    1    6    6    0    0  0.15648920062E+02 -0.46445788236E+02  0.44237259069E+03  0.44507932881E+03  0.00000000000E+00 0. -1.
         -5    1    3    3    0  503  0.77073252773E+02  0.42109533006E+02  0.47344498709E+03  0.48154516389E+03  0.47000000000E+01 0.  1.
         11    1    4    4    0    0  0.16879948327E+02  0.24643681833E+02  0.10435262838E+03  0.10854360764E+03  0.00000000000E+00 0. -1.
        -12    1    4    4    0    0 -0.59458379997E+02  0.54730493813E+01  0.14971417306E+03  0.16118184400E+03  0.00000000000E+00 0.  1.
</event>
<event>
12    1  0.1030140E-001  0.1836087E+03  0.7818608E-02  0.1165121E+00
         21   -1    0    0  501  502  0.00000000000E+00  0.00000000000E+00  0.23787906386E+03  0.23787906386E+03  0.00000000000E+00 0. -1.
         21   -1    0    0  502  503 -0.00000000000E+00 -0.00000000000E+00 -0.26586505981E+03  0.26586505981E+03  0.00000000000E+00 0. -1.
         -6    2    1    2    0  503 -0.61381783644E+02  0.16410545883E+02 -0.18774288086E+03  0.26036293948E+03  0.16883258442E+03 0.  0.
        -24    2    3    3    0    0 -0.87657918381E+02  0.53859225160E+02 -0.17146049553E+03  0.21157723555E+03  0.69148378753E+02 0.  0.
          6    2    1    2  501    0  0.61381783644E+02 -0.16410545883E+02  0.15975688491E+03  0.24338118420E+03  0.17226464862E+03 0.  0.
         24    2    5    5    0    0 -0.75765917140E+01  0.38049018983E+02  0.48874130141E+02  0.10182491608E+03  0.80464279964E+02 0.  0.
          5    1    5    5  501    0  0.68958375358E+02 -0.54459564866E+02  0.11088275477E+03  0.14155626812E+03  0.47000000000E+01 0. -1.
        -13    1    6    6    0    0  0.27009654513E+02 -0.15541248625E+01 -0.38934734508E+01  0.27333054650E+02  0.00000000000E+00 0.  1.
         14    1    6    6    0    0 -0.34586246227E+02  0.39603143846E+02  0.52767603592E+02  0.74491861430E+02  0.00000000000E+00 0. -1.
         -5    1    3    3    0  503  0.26276134737E+02 -0.37448679277E+02 -0.16282385331E+02  0.48785703934E+02  0.47000000000E+01 0.  1.
         11    1    4    4    0    0 -0.16110544953E+02  0.15807671807E+02 -0.10314880765E+03  0.10558933974E+03  0.00000000000E+00 0. -1.
        -12    1    4    4    0    0 -0.71547373427E+02  0.38051553354E+02 -0.68311687883E+02  0.10598789581E+03  0.00000000000E+00 0.  1.
</event>
<event>
12    1  0.1030140E-001  0.2987813E+03  0.7818608E-02  0.1085920E+00
         21   -1    0    0  503  502  0.00000000000E+00  0.00000000000E+00  0.39620525865E+03  0.39620525865E+03  0.00000000000E+00 0.  1.
         21   -1    0    0  501  503 -0.00000000000E+00 -0.00000000000E+00 -0.25528347581E+03  0.25528347581E+03  0.00000000000E+00 0.  1.
          6    2    1    2  501    0  0.23593347683E+03  0.60244050947E+02 -0.41968114356E+02  0.30117601765E+03  0.17219674741E+03 0.  0.
         24    2    3    3    0    0  0.44808406950E+02  0.66939661269E+02 -0.16533301667E+02  0.10819248666E+03  0.70310401239E+02 0.  0.
         -6    2    1    2    0  502 -0.23593347683E+03 -0.60244050947E+02  0.18288989720E+03  0.35031271681E+03  0.17313674912E+03 0.  0.
        -24    2    5    5    0    0 -0.48769406982E+02 -0.48320331194E+02  0.10021496838E+03  0.14530101473E+03  0.79724748539E+02 0.  0.
          5    1    3    3  501    0  0.19112506988E+03 -0.66956103226E+01 -0.25434812689E+02  0.19298353098E+03  0.47000000000E+01 0. -1.
        -11    1    4    4    0    0  0.47838632377E+02  0.20034142485E+02 -0.29190809349E+02  0.59514745763E+02  0.00000000000E+00 0.  1.
         12    1    4    4    0    0 -0.30302254272E+01  0.46905518784E+02  0.12657507682E+02  0.48677740901E+02  0.00000000000E+00 0. -1.
         -5    1    5    5    0  502 -0.18716406985E+03 -0.11923719753E+02  0.82674928820E+02  0.20501170208E+03  0.47000000000E+01 0.  1.
         13    1    6    6    0    0 -0.34853998605E+02 -0.33358863388E+02  0.56746709440E+01  0.48577946391E+02  0.00000000000E+00 0. -1.
        -14    1    6    6    0    0 -0.13915408376E+02 -0.14961467806E+02  0.94540297436E+02  0.96723068336E+02  0.00000000000E+00 0.  1.
</event>
<event>
12    1  0.1030140E-001  0.1805050E+03  0.7818608E-02  0.1169338E+00
         21   -1    0    0  503  502  0.00000000000E+00  0.00000000000E+00  0.14376780432E+03  0.14376780432E+03  0.00000000000E+00 0.  1.
         21   -1    0    0  501  503 -0.00000000000E+00 -0.00000000000E+00 -0.23078379521E+03  0.23078379521E+03  0.00000000000E+00 0.  1.
          6    2    1    2  501    0  0.59661613001E+02 -0.39629717690E+01 -0.89186696619E+02  0.19403354241E+03  0.16161539381E+03 0.  0.
         24    2    3    3    0    0  0.52940664432E+02  0.38579552678E+02 -0.10660765022E+03  0.14733646370E+03  0.77792972786E+02 0.  0.
         -6    2    1    2    0  502 -0.59661613001E+02  0.39629717690E+01  0.21707057310E+01  0.18051805712E+03  0.17031395648E+03 0.  0.
        -24    2    5    5    0    0 -0.85570755764E+02  0.13322842550E+01 -0.49621240786E+02  0.12235707433E+03  0.72005950290E+02 0.  0.
          5    1    3    3  501    0  0.67209485688E+01 -0.42542524447E+02  0.17420953597E+02  0.46697078712E+02  0.47000000000E+01 0. -1.
        -11    1    4    4    0    0  0.16777894251E+02 -0.21667116443E+02 -0.50346612164E+02  0.57321401124E+02  0.00000000000E+00 0.  1.
         12    1    4    4    0    0  0.36162770182E+02  0.60246669121E+02 -0.56261038052E+02  0.90015062574E+02  0.00000000000E+00 0. -1.
         -5    1    5    5    0  502  0.25909142763E+02  0.26306875140E+01  0.51791946517E+02  0.58160982793E+02  0.47000000000E+01 0.  1.
         13    1    6    6    0    0 -0.20878549851E+02 -0.29910046817E+02 -0.31671345584E+02  0.48307337699E+02  0.00000000000E+00 0. -1.
        -14    1    6    6    0    0 -0.64692205913E+02  0.31242331072E+02 -0.17949895202E+02  0.74049736626E+02  0.00000000000E+00 0.  1.
</event>
<event>
12    1  0.1030140E-001  0.1837333E+03  0.7818608E-02  0.1164353E+00
         21   -1    0    0  501  502  0.00000000000E+00  0.00000000000E+00  0.19366106427E+03  0.19366106427E+03  0.00000000000E+00 0.  1.
         21   -1    0    0  502  503 -0.00000000000E+00 -0.00000000000E+00 -0.34482050833E+03  0.34482050833E+03  0.00000000000E+00 0.  1.
         -6    2    1    2    0  503 -0.57035805355E+02  0.24597911493E+02 -0.26521554112E+03  0.32264100109E+03  0.17291556319E+03 0.  0.
        -24    2    3    3    0    0 -0.87240288630E+02  0.43289076959E+02 -0.12218598018E+03  0.17519197336E+03  0.79233841466E+02 0.  0.
          6    2    1    2  501    0  0.57035805355E+02 -0.24597911493E+02  0.11405609706E+03  0.21584057152E+03  0.17239552980E+03 0.  0.
         24    2    5    5    0    0 -0.34600927030E+02 -0.36024728122E+01  0.66984974295E+02  0.11059856581E+03  0.80838443922E+02 0.  0.
          5    1    5    5  501    0  0.91636732386E+02 -0.20995438681E+02  0.47071122762E+02  0.10524200571E+03  0.47000000000E+01 0. -1.
        -13    1    6    6    0    0 -0.27324330237E+02 -0.15404681172E+02  0.83404541741E+02  0.89108028864E+02  0.00000000000E+00 0.  1.
         14    1    6    6    0    0 -0.72765967935E+01  0.11802208359E+02 -0.16419567446E+02  0.21490536945E+02  0.00000000000E+00 0. -1.
         -5    1    3    3    0  503  0.30204483275E+02 -0.18691165466E+02 -0.14302956094E+03  0.14744902773E+03  0.47000000000E+01 0.  1.
         13    1    4    4    0    0 -0.39620479857E+02 -0.20600215631E+02 -0.32560238325E+02  0.55265906560E+02  0.00000000000E+00 0. -1.
        -14    1    4    4    0    0 -0.47619808773E+02  0.63889292590E+02 -0.89625741852E+02  0.11992606680E+03  0.00000000000E+00 0.  1.
</event>
<event>
12    1  0.1030140E-001  0.2367291E+03  0.7818608E-02  0.1121996E+00
         21   -1    0    0  501  502  0.00000000000E+00  0.00000000000E+00  0.19185264492E+03  0.19185264492E+03  0.00000000000E+00 0. -1.
         21   -1    0    0  502  503 -0.00000000000E+00 -0.00000000000E+00 -0.47330773667E+03  0.47330773667E+03  0.00000000000E+00 0.  1.
         -6    2    1    2    0  503 -0.15552408622E+03 -0.47270265422E+02 -0.34653676235E+03  0.41967653233E+03  0.17210010094E+03 0.  0.
        -24    2    3    3    0    0 -0.16210682410E+03 -0.82565044092E+02 -0.27235098743E+03  0.33712549939E+03  0.79893260427E+02 0.  0.
          6    2    1    2  501    0  0.15552408622E+03  0.47270265422E+02  0.65081670598E+02  0.24548384927E+03  0.17205951591E+03 0.  0.
         24    2    5    5    0    0  0.12010033959E+03 -0.15752795349E+02  0.83219876004E+02  0.17079896118E+03  0.87031576135E+02 0.  0.
          5    1    5    5  501    0  0.35423746622E+02  0.63023060771E+02 -0.18138205406E+02  0.74684888090E+02  0.47000000000E+01 0. -1.
        -13    1    6    6    0    0 -0.10093060059E+02  0.10319873886E+02  0.17380780269E+02  0.22593387996E+02  0.00000000000E+00 0.  1.
         14    1    6    6    0    0  0.13019339965E+03 -0.26072669236E+02  0.65839095735E+02  0.14820557318E+03  0.00000000000E+00 0. -1.
         -5    1    3    3    0  503  0.65827378802E+01  0.35294778669E+02 -0.74185774914E+02  0.82551032937E+02  0.47000000000E+01 0.  1.
         13    1    4    4    0    0 -0.59702134455E+02  0.98973756204E+01 -0.90178963083E+02  0.10860270846E+03  0.00000000000E+00 0. -1.
        -14    1    4    4    0    0 -0.10240468964E+03 -0.92462419712E+02 -0.18217202435E+03  0.22852279093E+03  0.00000000000E+00 0.  1.
</event>
<event>
12    1  0.1030140E-001  0.2375793E+03  0.7818608E-02  0.1121763E+00
         21   -1    0    0  501  502  0.00000000000E+00  0.00000000000E+00  0.26801250414E+03  0.26801250414E+03  0.00000000000E+00 0. -1.
         21   -1    0    0  502  503 -0.00000000000E+00 -0.00000000000E+00 -0.21792649385E+03  0.21792649385E+03  0.00000000000E+00 0. -1.
         -6    2    1    2    0  503  0.75651080112E+02  0.14290100097E+03  0.74891454297E+02  0.24910367360E+03  0.17406932031E+03 0.  0.
        -24    2    3    3    0    0  0.32549074986E+02  0.20873896200E+02  0.82059564050E+02  0.11940452579E+03  0.77643460137E+02 0.  0.
          6    2    1    2  501    0 -0.75651080112E+02 -0.14290100097E+03 -0.24805444004E+02  0.23683532440E+03  0.17126552143E+03 0.  0.
         24    2    5    5    0    0 -0.55348307468E+02 -0.16707122504E+03 -0.45424312960E+02  0.19884019227E+03  0.80609084348E+02 0.  0.
          5    1    5    5  501    0 -0.20302772644E+02  0.24170224065E+02  0.20618868956E+02  0.37995132128E+02  0.47000000000E+01 0. -1.
        -11    1    6    6    0    0 -0.29321391460E+02 -0.10714312242E+03  0.12164454054E+02  0.11174688641E+03  0.00000000000E+00 0.  1.
         12    1    6    6    0    0 -0.26026916008E+02 -0.59928102617E+02 -0.57588767014E+02  0.87093305864E+02  0.00000000000E+00 0. -1.
         -5    1    3    3    0  503  0.43102005126E+02  0.12202710477E+03 -0.71681097531E+01  0.12969914781E+03  0.47000000000E+01 0.  1.
         13    1    4    4    0    0  0.35944033683E+01 -0.23251972665E+02  0.55584107484E+02  0.60358652844E+02  0.00000000000E+00 0. -1.
        -14    1    4    4    0    0  0.28954671617E+02  0.44125868865E+02  0.26475456566E+02  0.59045872946E+02  0.00000000000E+00 0.  1.
</event>
<event>
12    1  0.1030140E-001  0.2503934E+03  0.7818608E-02  0.1113161E+00
         21   -1    0    0  501  502  0.00000000000E+00  0.00000000000E+00  0.28986386908E+03  0.28986386908E+03  0.00000000000E+00 0. -1.
         21   -1    0    0  502  503 -0.00000000000E+00 -0.00000000000E+00 -0.21834123543E+03  0.21834123543E+03  0.00000000000E+00 0. -1.
         -6    2    1    2    0  503  0.56153852684E+02 -0.17272900202E+03  0.63629820454E+02  0.25835169387E+03  0.17236090150E+03 0.  0.
        -24    2    3    3    0    0 -0.69111598716E+00 -0.17181641698E+03  0.65964604912E+02  0.20125769688E+03  0.81436924453E+02 0.  0.
          6    2    1    2  501    0 -0.56153852684E+02  0.17272900202E+03  0.78928131971E+01  0.24985341064E+03  0.17139389428E+03 0.  0.
         24    2    5    5    0    0  0.59087070733E+00  0.74379174727E+02  0.58171245473E+02  0.12558489929E+03  0.82795304020E+02 0.  0.
          5    1    5    5  501    0 -0.56744723391E+02  0.98349827291E+02 -0.50278432275E+02  0.12426851135E+03  0.47000000000E+01 0. -1.
        -13    1    6    6    0    0  0.22310218987E+02  0.55051827780E+01 -0.11096236896E+02  0.25518216668E+02  0.00000000000E+00 0.  1.
         14    1    6    6    0    0 -0.21719348280E+02  0.68873991949E+02  0.69267482369E+02  0.10006668262E+03  0.00000000000E+00 0. -1.
         -5    1    3    3    0  503  0.56844968671E+02 -0.91258503486E+00 -0.23347844577E+01  0.57093996997E+02  0.47000000000E+01 0.  1.
         13    1    4    4    0    0  0.22347762583E+02 -0.53185644978E+02  0.55344607524E+02  0.79944736576E+02  0.00000000000E+00 0. -1.
        -14    1    4    4    0    0 -0.23038878571E+02 -0.11863077200E+03  0.10619997388E+02  0.12131296030E+03  0.00000000000E+00 0.  1.
</event>
<event>
12    1  0.1030140E-001  0.3578341E+03  0.7818608E-02  0.1059502E+00
         21   -1    0    0  503  502  0.00000000000E+00  0.00000000000E+00  0.80259130227E+02  0.80259130227E+02  0.00000000000E+00 0. -1.
         21   -1    0    0  501  503 -0.00000000000E+00 -0.00000000000E+00 -0.32462743031E+04  0.32462743031E+04  0.00000000000E+00 0.  1.
          6    2    1    2  501    0  0.22462692465E+03 -0.21772982374E+03 -0.27706744952E+04  0.27936861617E+04  0.17372875476E+03 0.  0.
         24    2    3    3    0    0  0.22060877468E+03 -0.14872724862E+03 -0.18758686302E+04  0.18962023864E+04  0.76891783679E+02 0.  0.
         -6    2    1    2    0  502 -0.22462692465E+03  0.21772982374E+03 -0.39534067765E+03  0.53284727162E+03  0.17253530665E+03 0.  0.
        -24    2    5    5    0    0 -0.18719862360E+03  0.23645652479E+03 -0.31881588773E+03  0.44549911466E+03  0.76621655547E+02 0.  0.
          5    1    3    3  501    0  0.40181499704E+01 -0.69002575124E+02 -0.89480586496E+03  0.89748377527E+03  0.47000000000E+01 0. -1.
        -11    1    4    4    0    0  0.33806903177E+02 -0.35319123792E+02 -0.57802557351E+03  0.58008957139E+03  0.00000000000E+00 0.  1.
         12    1    4    4    0    0  0.18680187150E+03 -0.11340812482E+03 -0.12978430567E+04  0.13161128150E+04  0.00000000000E+00 0. -1.
         -5    1    5    5    0  502 -0.37428301047E+02 -0.18726701051E+02 -0.76524789917E+02  0.87348156954E+02  0.47000000000E+01 0.  1.
         11    1    6    6    0    0 -0.14042000611E+02  0.40094285922E+01  0.20140899924E-01  0.14603208704E+02  0.00000000000E+00 0. -1.
        -12    1    6    6    0    0 -0.17315662299E+03  0.23244709620E+03 -0.31883602863E+03  0.43089590596E+03  0.00000000000E+00 0.  1.
</event>
<event>
12    1  0.1030140E-001  0.2086610E+03  0.7818608E-02  0.1142901E+00
         21   -1    0    0  501  502  0.00000000000E+00  0.00000000000E+00  0.97469046055E+03  0.97469046055E+03  0.00000000000E+00 0.  1.
         21   -1    0    0  502  503 -0.00000000000E+00 -0.00000000000E+00 -0.11311340833E+03  0.11311340833E+03  0.00000000000E+00 0.  1.
         -6    2    1    2    0  503  0.24958803944E+02  0.11270732319E+03  0.73602585356E+01  0.20879079629E+03  0.17382042634E+03 0.  0.
        -24    2    3    3    0    0 -0.38701831403E+02  0.11539890631E+03  0.63968709707E+01  0.14489291504E+03  0.78347288022E+02 0.  0.
          6    2    1    2  501    0 -0.24958803944E+02 -0.11270732319E+03  0.85421679369E+03  0.87901307259E+03  0.17219688896E+03 0.  0.
         24    2    5    5    0    0 -0.67231153806E+02 -0.29031489219E+02  0.48634741742E+03  0.49935722218E+03  0.86376903756E+02 0.  0.
          5    1    5    5  501    0  0.42272349862E+02 -0.83675833975E+02  0.36786937627E+03  0.37965585041E+03  0.47000000000E+01 0. -1.
        -13    1    6    6    0    0 -0.44812234858E+02  0.21506780982E+02  0.32549402276E+03  0.32926742456E+03  0.00000000000E+00 0.  1.
         14    1    6    6    0    0 -0.22418918947E+02 -0.50538270201E+02  0.16085339466E+03  0.17008979763E+03  0.00000000000E+00 0. -1.
         -5    1    3    3    0  503  0.63660635346E+02 -0.26915831134E+01  0.96338756488E+00  0.63897881248E+02  0.47000000000E+01 0.  1.
         13    1    4    4    0    0 -0.46066250349E+02  0.10116346387E+03  0.31117187013E+02  0.11543147392E+03  0.00000000000E+00 0. -1.
        -14    1    4    4    0    0  0.73644189462E+01  0.14235442436E+02 -0.24720316043E+02  0.29461441122E+02  0.00000000000E+00 0.  1.
</event>
<event>
12    1  0.1030140E-001  0.1926513E+03  0.7818608E-02  0.1156175E+00
         21   -1    0    0  503  502  0.00000000000E+00  0.00000000000E+00  0.24448757700E+03  0.24448757700E+03  0.00000000000E+00 0.  1.
         21   -1    0    0  501  503 -0.00000000000E+00 -0.00000000000E+00 -0.25715710029E+03  0.25715710029E+03  0.00000000000E+00 0.  1.
          6    2    1    2  501    0  0.61672752254E+02  0.62575557524E+02 -0.16710490276E+03  0.25502658552E+03  0.17145052355E+03 0.  0.
         24    2    3    3    0    0  0.97350491254E+02  0.31430516623E+02 -0.42112491642E+02  0.12128015577E+03  0.49703306820E+02 0.  0.
         -6    2    1    2    0  502 -0.61672752254E+02 -0.62575557524E+02  0.15443537947E+03  0.24661809178E+03  0.17102914369E+03 0.  0.
        -24    2    5    5    0    0  0.15777153072E+01 -0.65811465925E+02  0.15217338060E+03  0.18307047665E+03  0.77617159338E+02 0.  0.
          5    1    3    3  501    0 -0.35677739000E+02  0.31145040901E+02 -0.12499241112E+03  0.13374642975E+03  0.47000000000E+01 0. -1.
        -13    1    4    4    0    0  0.68988291697E+02 -0.30858305676E+01 -0.25954825763E+02  0.73773706169E+02  0.00000000000E+00 0.  1.
         14    1    4    4    0    0  0.28362199558E+02  0.34516347191E+02 -0.16157665879E+02  0.47506449602E+02  0.00000000000E+00 0. -1.
         -5    1    5    5    0  502 -0.63250467562E+02  0.32359084008E+01  0.22619988669E+01  0.63547615131E+02  0.47000000000E+01 0.  1.
         11    1    6    6    0    0 -0.15872159910E+02 -0.22753548907E+01  0.93434882707E+02  0.94800738428E+02  0.00000000000E+00 0. -1.
        -12    1    6    6    0    0  0.17449875218E+02 -0.63536111034E+02  0.58738497893E+02  0.88269738219E+02  0.00000000000E+00 0.  1.
</event>
<event>
12    1  0.1030140E-001  0.2469269E+03  0.7818608E-02  0.1115439E+00
         21   -1    0    0  503  502  0.00000000000E+00  0.00000000000E+00  0.12297821801E+03  0.12297821801E+03  0.00000000000E+00 0.  1.
         21   -1    0    0  501  503 -0.00000000000E+00 -0.00000000000E+00 -0.94376316807E+03  0.94376316807E+03  0.00000000000E+00 0.  1.
          6    2    1    2  501    0  0.16560604507E+03  0.61929582018E+02 -0.77923464090E+03  0.81742247197E+03  0.17237237832E+03 0.  0.
         24    2    3    3    0    0  0.53431848734E+02 -0.30754317588E+02 -0.30464072589E+03  0.32100044412E+03  0.80215476959E+02 0.  0.
         -6    2    1    2    0  502 -0.16560604507E+03 -0.61929582018E+02 -0.41550309159E+02  0.24931891411E+03  0.17080063656E+03 0.  0.
        -24    2    5    5    0    0 -0.62214893866E+02 -0.23091897043E+02 -0.81464630332E+02  0.13178875221E+03  0.79547850297E+02 0.  0.
          5    1    3    3  501    0  0.11217419633E+03  0.92683899606E+02 -0.47459391501E+03  0.49642202785E+03  0.47000000000E+01 0. -1.
        -13    1    4    4    0    0  0.61420840167E+02 -0.18508787908E+02 -0.29820300809E+03  0.30502480042E+03  0.00000000000E+00 0.  1.
         14    1    4    4    0    0 -0.79889914330E+01 -0.12245529681E+02 -0.64377178080E+01  0.15975643707E+02  0.00000000000E+00 0. -1.
         -5    1    5    5    0  502 -0.10339115120E+03 -0.38837684974E+02  0.39914321173E+02  0.11753016190E+03  0.47000000000E+01 0.  1.
         13    1    6    6    0    0 -0.20107218551E+02  0.26714611248E+02 -0.47961835441E+02  0.58466300985E+02  0.00000000000E+00 0. -1.
        -14    1    6    6    0    0 -0.42107675315E+02 -0.49806508291E+02 -0.33502794891E+02  0.73322451228E+02  0.00000000000E+00 0.  1.
</event>
<event>
12    1  0.1030140E-001  0.2097429E+03  0.7818608E-02  0.1141897E+00
         21   -1    0    0  503  502  0.00000000000E+00  0.00000000000E+00  0.84715429758E+02  0.84715429758E+02  0.00000000000E+00 0.  1.
         21   -1    0    0  501  503 -0.00000000000E+00 -0.00000000000E+00 -0.57946496185E+03  0.57946496185E+03  0.00000000000E+00 0.  1.
          6    2    1    2  501    0  0.64454407446E+02  0.99611996943E+02 -0.35545078653E+03  0.41239429901E+03  0.17218268100E+03 0.  0.
         24    2    3    3    0    0  0.31685646376E+02  0.82156393553E+02 -0.10647850049E+03  0.16062500182E+03  0.81908894231E+02 0.  0.
         -6    2    1    2    0  502 -0.64454407446E+02 -0.99611996943E+02 -0.13929874556E+03  0.25178609260E+03  0.17296003972E+03 0.  0.
        -24    2    5    5    0    0 -0.70581420482E+02 -0.32333541412E+02 -0.14574295349E+03  0.18376000435E+03  0.80619699135E+02 0.  0.
          5    1    3    3  501    0  0.32768761069E+02  0.17455603390E+02 -0.24897228604E+03  0.25176929719E+03  0.47000000000E+01 0. -1.
        -13    1    4    4    0    0 -0.17511087155E+01  0.65797399008E+02 -0.10430625150E+03  0.12333757821E+03  0.00000000000E+00 0.  1.
         14    1    4    4    0    0  0.33436755092E+02  0.16358994545E+02 -0.21722489971E+01  0.37287423608E+02  0.00000000000E+00 0. -1.
         -5    1    5    5    0  502  0.61270130366E+01 -0.67278455531E+02  0.64442079266E+01  0.68026088254E+02  0.47000000000E+01 0.  1.
         13    1    6    6    0    0 -0.15379829070E+02  0.26752637047E+02 -0.35413015814E+02  0.46971527762E+02  0.00000000000E+00 0. -1.
        -14    1    6    6    0    0 -0.55201591413E+02 -0.59086178459E+02 -0.11032993768E+03  0.13678847659E+03  0.00000000000E+00 0.  1.
</event>
<event>
12    1  0.1030140E-001  0.1773368E+03  0.7818608E-02  0.1170979E+00
         21   -1    0    0  503  502  0.00000000000E+00  0.00000000000E+00  0.20862120326E+03  0.20862120326E+03  0.00000000000E+00 0. -1.
         21   -1    0    0  501  503 -0.00000000000E+00 -0.00000000000E+00 -0.19157610075E+03  0.19157610075E+03  0.00000000000E+00 0. -1.
          6    2    1    2  501    0  0.40205284366E+02 -0.14094974212E+02 -0.85999282964E+02  0.19708939297E+03  0.17214301891E+03 0.  0.
         24    2    3    3    0    0 -0.23478126021E+01  0.25292784570E+02 -0.10907815131E+03  0.13450436466E+03  0.74485863395E+02 0.  0.
         -6    2    1    2    0  502 -0.40205284366E+02  0.14094974212E+02  0.10304438546E+03  0.20310791104E+03  0.16976320262E+03 0.  0.
        -24    2    5    5    0    0  0.23418150974E+02  0.48244678129E+02  0.27895385465E+02  0.98783388502E+02  0.78128397852E+02 0.  0.
          5    1    3    3  501    0  0.42553096968E+02 -0.39387758782E+02  0.23078868345E+02  0.62585028302E+02  0.47000000000E+01 0. -1.
        -11    1    4    4    0    0 -0.35960784620E+02  0.18889483622E+02 -0.38022440829E+02  0.55638984791E+02  0.00000000000E+00 0.  1.
         12    1    4    4    0    0  0.33612972018E+02  0.64033009487E+01 -0.71055710480E+02  0.78865379874E+02  0.00000000000E+00 0. -1.
         -5    1    5    5    0  502 -0.63623435340E+02 -0.34149703917E+02  0.75149000000E+02  0.10432452254E+03  0.47000000000E+01 0.  1.
         13    1    6    6    0    0 -0.12442208566E+02  0.21404298159E+02  0.44572587512E+02  0.50986940398E+02  0.00000000000E+00 0. -1.
        -14    1    6    6    0    0  0.35860359540E+02  0.26840379970E+02 -0.16677202047E+02  0.47796448104E+02  0.00000000000E+00 0.  1.
</event>
<event>
12    1  0.1030140E-001  0.2281428E+03  0.7818608E-02  0.1128039E+00
         21   -1    0    0  501  502  0.00000000000E+00  0.00000000000E+00  0.27586548977E+03  0.27586548977E+03  0.00000000000E+00 0.  1.
         21   -1    0    0  502  503 -0.00000000000E+00 -0.00000000000E+00 -0.19692934469E+03  0.19692934469E+03  0.00000000000E+00 0.  1.
         -6    2    1    2    0  503  0.20912215625E+01 -0.14900474730E+03  0.89055724057E+02  0.24490825195E+03  0.17274936168E+03 0.  0.
        -24    2    3    3    0    0  0.67600310786E+02 -0.71873970104E+02  0.45369335084E+02  0.13458514402E+03  0.79492860237E+02 0.  0.
          6    2    1    2  501    0 -0.20912215625E+01  0.14900474730E+03 -0.10119578978E+02  0.22788658252E+03  0.17211362726E+03 0.  0.
         24    2    5    5    0    0  0.13834413243E+02  0.88503580006E+02 -0.66291483951E+02  0.14367619126E+03  0.90686340903E+02 0.  0.
          5    1    5    5  501    0 -0.15925634805E+02  0.60501167293E+02  0.56171904973E+02  0.84210391259E+02  0.47000000000E+01 0. -1.
        -11    1    6    6    0    0  0.17180939128E+02  0.10388303735E+03 -0.71294960666E+02  0.12716069178E+03  0.00000000000E+00 0.  1.
         12    1    6    6    0    0 -0.33465258857E+01 -0.15379457343E+02  0.50034767153E+01  0.16515499475E+02  0.00000000000E+00 0. -1.
         -5    1    3    3    0  503 -0.65509089223E+02 -0.77130777196E+02  0.43686388973E+02  0.11032310793E+03  0.47000000000E+01 0.  1.
         13    1    4    4    0    0  0.47260827896E+01  0.14072524989E+02 -0.64157928982E+01  0.16172019559E+02  0.00000000000E+00 0. -1.
        -14    1    4    4    0    0  0.62874227996E+02 -0.85946495093E+02  0.51785127982E+02  0.11841312446E+03  0.00000000000E+00 0.  1.
</event>
<event>
12    1  0.1030140E-001  0.1754004E+03  0.7818608E-02  0.1172491E+00
         21   -1    0    0  501  502  0.00000000000E+00  0.00000000000E+00  0.48673465849E+03  0.48673465849E+03  0.00000000000E+00 0.  1.
         21   -1    0    0  502  503 -0.00000000000E+00 -0.00000000000E+00 -0.10559507713E+03  0.10559507713E+03  0.00000000000E+00 0.  1.
         -6    2    1    2    0  503  0.23844691318E+02 -0.42892023033E+01  0.26260080279E+01  0.17542005777E+03  0.17371912442E+03 0.  0.
        -24    2    3    3    0    0  0.75129705252E+02  0.30417104440E+02 -0.33655531996E+01  0.11302879887E+03  0.78705206761E+02 0.  0.
          6    2    1    2  501    0 -0.23844691318E+02  0.42892023033E+01  0.37851357333E+03  0.41690967784E+03  0.17307278158E+03 0.  0.
         24    2    5    5    0    0 -0.13819362226E+02 -0.20612168647E+02  0.76372233056E+02  0.11354180710E+03  0.80269469339E+02 0.  0.
          5    1    5    5  501    0 -0.10025329092E+02  0.24901370950E+02  0.30214134028E+03  0.30336787075E+03  0.47000000000E+01 0. -1.
        -11    1    6    6    0    0  0.94768684063E+01 -0.89174210681E+01  0.85072020910E+02  0.86061490662E+02  0.00000000000E+00 0.  1.
         12    1    6    6    0    0 -0.23296230632E+02 -0.11694747579E+02 -0.86997878539E+01  0.27480316434E+02  0.00000000000E+00 0. -1.
         -5    1    3    3    0  503 -0.51285013934E+02 -0.34706306743E+02  0.59915612274E+01  0.62391258906E+02  0.47000000000E+01 0.  1.
         11    1    4    4    0    0  0.48725993158E+02 -0.15859585884E+02  0.19795778323E+02  0.54932883713E+02  0.00000000000E+00 0. -1.
        -12    1    4    4    0    0  0.26403712093E+02  0.46276690324E+02 -0.23161331522E+02  0.58095915154E+02  0.00000000000E+00 0.  1.
</event>
<event>
12    1  0.1030140E-001  0.2258086E+03  0.7818608E-02  0.1129630E+00
         21   -1    0    0  501  502  0.00000000000E+00  0.00000000000E+00  0.85785663232E+02  0.85785663232E+02  0.00000000000E+00 0. -1.
         21   -1    0    0  502  503 -0.00000000000E+00 -0.00000000000E+00 -0.10827288188E+04  0.10827288188E+04  0.00000000000E+00 0. -1.
         -6    2    1    2    0  503  0.47167227842E+02 -0.13798558181E+03 -0.89086468060E+03  0.91903070359E+03  0.17237397377E+03 0.  0.
        -24    2    3    3    0    0  0.29400536128E+02  0.33287088277E+00 -0.29685257792E+03  0.30885030582E+03  0.80015973792E+02 0.  0.
          6    2    1    2  501    0 -0.47167227842E+02  0.13798558181E+03 -0.10607847494E+03  0.24948377841E+03  0.17240865603E+03 0.  0.
         24    2    5    5    0    0 -0.47760564433E+02  0.64420621883E+02 -0.12888853642E+03  0.17231808472E+03  0.81548632501E+02 0.  0.
          5    1    5    5  501    0  0.59333659121E+00  0.73564959927E+02  0.22810061485E+02  0.77165693688E+02  0.47000000000E+01 0. -1.
        -11    1    6    6    0    0  0.20297349986E+01  0.43473373288E+02 -0.10420570641E+03  0.11292866447E+03  0.00000000000E+00 0.  1.
         12    1    6    6    0    0 -0.49790299432E+02  0.20947248595E+02 -0.24682830012E+02  0.59389420259E+02  0.00000000000E+00 0. -1.
         -5    1    3    3    0  503  0.17766691714E+02 -0.13831845269E+03 -0.59401210268E+03  0.61018039776E+03  0.47000000000E+01 0.  1.
         13    1    4    4    0    0  0.27272433842E+02 -0.36050199606E+02 -0.20718728522E+03  0.21206124987E+03  0.00000000000E+00 0. -1.
        -14    1    4    4    0    0  0.21281022860E+01  0.36383070488E+02 -0.89665292698E+02  0.96789055952E+02  0.00000000000E+00 0.  1.
</event>
<event>
12    1  0.1030140E-001  0.2233152E+03  0.7818608E-02  0.1131929E+00
         21   -1    0    0  503  502  0.00000000000E+00  0.00000000000E+00  0.42119602487E+02  0.42119602487E+02  0.00000000000E+00 0. -1.
         21   -1    0    0  501  503 -0.00000000000E+00 -0.00000000000E+00 -0.11934725792E+04  0.11934725792E+04  0.00000000000E+00 0.  1.
          6    2    1    2  501    0  0.12108673266E+03  0.70772263961E+02 -0.66605776013E+03  0.70249742865E+03  0.17377855809E+03 0.  0.
         24    2    3    3    0    0 -0.41288501197E+00  0.60208381627E+01 -0.16459215662E+03  0.18245440568E+03  0.78502300365E+02 0.  0.
         -6    2    1    2    0  502 -0.12108673266E+03 -0.70772263961E+02 -0.48529521657E+03  0.53309475303E+03  0.17031693489E+03 0.  0.
        -24    2    5    5    0    0  0.18307011098E+01 -0.32942587703E+02 -0.15800615905E+03  0.18141308290E+03  0.82802142480E+02 0.  0.
          5    1    3    3  501    0  0.12149961768E+03  0.64751425799E+02 -0.50146560351E+03  0.52004302297E+03  0.47000000000E+01 0. -1.
        -11    1    4    4    0    0 -0.14973942897E+02  0.39061860487E+02 -0.75339390494E+02  0.86174657937E+02  0.00000000000E+00 0.  1.
         12    1    4    4    0    0  0.14561057885E+02 -0.33041022325E+02 -0.89252766129E+02  0.96279747739E+02  0.00000000000E+00 0. -1.
         -5    1    5    5    0  502 -0.12291743377E+03 -0.37829676258E+02 -0.32728905753E+03  0.35168167013E+03  0.47000000000E+01 0.  1.
         11    1    6    6    0    0 -0.22841605937E+02 -0.58670532292E+01 -0.50315071492E+01  0.24113841245E+02  0.00000000000E+00 0. -1.
        -12    1    6    6    0    0  0.24672307047E+02 -0.27075534474E+02 -0.15297465190E+03  0.15729924166E+03  0.00000000000E+00 0.  1.
</event>
<event>
12    1  0.1030140E-001  0.1999348E+03  0.7818608E-02  0.1150322E+00
         21   -1    0    0  503  502  0.00000000000E+00  0.00000000000E+00  0.28065111375E+03  0.28065111375E+03  0.00000000000E+00 0.  1.
         21   -1    0    0  501  503 -0.00000000000E+00 -0.00000000000E+00 -0.15330119690E+03  0.15330119690E+03  0.00000000000E+00 0.  1.
          6    2    1    2  501    0  0.75368059224E+02  0.65441282761E+02  0.12559349790E+03  0.23400978724E+03  0.17036416280E+03 0.  0.
         24    2    3    3    0    0  0.50079600748E+02  0.99064880856E+02  0.13139454006E+03  0.19128046977E+03  0.83677212717E+02 0.  0.
         -6    2    1    2    0  502 -0.75368059224E+02 -0.65441282761E+02  0.17564189432E+01  0.19994252341E+03  0.17323689509E+03 0.  0.
        -24    2    5    5    0    0 -0.78628466326E+02 -0.76661980556E+01 -0.50959559816E+02  0.12152278684E+03  0.77004575686E+02 0.  0.
          5    1    3    3  501    0  0.25288458476E+02 -0.33623598095E+02 -0.58010421573E+01  0.42729317466E+02  0.47000000000E+01 0. -1.
        -13    1    4    4    0    0  0.64895076922E+02  0.88544144527E+02  0.13366573987E+03  0.17296810849E+03  0.00000000000E+00 0.  1.
         14    1    4    4    0    0 -0.14815476174E+02  0.10520736329E+02 -0.22711998111E+01  0.18312361283E+02  0.00000000000E+00 0. -1.
         -5    1    5    5    0  502  0.32604071016E+01 -0.57775084706E+02  0.52715978759E+02  0.78419736570E+02  0.47000000000E+01 0.  1.
         13    1    6    6    0    0 -0.16927406463E+02 -0.28848266456E+02 -0.44924260724E+02  0.56008470508E+02  0.00000000000E+00 0. -1.
        -14    1    6    6    0    0 -0.61701059863E+02  0.21182068401E+02 -0.60352990919E+01  0.65514316336E+02  0.00000000000E+00 0.  1.
</event>
<event>
12    1  0.1030140E-001  0.2003829E+03  0.7818608E-02  0.1149797E+00
         21   -1    0    0  501  502  0.00000000000E+00  0.00000000000E+00  0.54243694440E+02  0.54243694440E+02  0.00000000000E+00 0. -1.
         21   -1    0    0  502  503 -0.00000000000E+00 -0.00000000000E+00 -0.11276311865E+04  0.11276311865E+04  0.00000000000E+00 0.  1.
         -6    2    1    2    0  503  0.73524467521E+01 -0.10324866576E+03 -0.88758243592E+03  0.90992080894E+03  0.17157783232E+03 0.  0.
        -24    2    3    3    0    0 -0.48753935035E+02 -0.58745065133E+02 -0.70813250317E+03  0.71665191618E+03  0.79438013968E+02 0.  0.
          6    2    1    2  501    0 -0.73524467521E+01  0.10324866576E+03 -0.18580505611E+03  0.27195407196E+03  0.16947316285E+03 0.  0.
         24    2    5    5    0    0 -0.52991661220E+02  0.11525876371E+03 -0.14974919899E+03  0.21237811052E+03  0.81159968311E+02 0.  0.
          5    1    5    5  501    0  0.45639214468E+02 -0.12010097947E+02 -0.36055857112E+02  0.59575961445E+02  0.47000000000E+01 0. -1.
        -11    1    6    6    0    0  0.17750677302E+02  0.26745934562E+02 -0.59159981426E+02  0.67307763019E+02  0.00000000000E+00 0.  1.
         12    1    6    6    0    0 -0.70742338522E+02  0.88512829146E+02 -0.90589217568E+02  0.14507034750E+03  0.00000000000E+00 0. -1.
         -5    1    3    3    0  503  0.56106381787E+02 -0.44503600628E+02 -0.17944993275E+03  0.19326889276E+03  0.47000000000E+01 0.  1.
         13    1    4    4    0    0  0.20733991830E+02 -0.11589831005E+02 -0.22765905039E+03  0.22889487941E+03  0.00000000000E+00 0. -1.
        -14    1    4    4    0    0 -0.69487926864E+02 -0.47155234128E+02 -0.48047345279E+03  0.48775703677E+03  0.00000000000E+00 0.  1.
</event>
<event>
12    1  0.1030140E-001  0.1945178E+03  0.7818608E-02  0.1154463E+00
         21   -1    0    0  503  502  0.00000000000E+00  0.00000000000E+00  0.20025529633E+03  0.20025529633E+03  0.00000000000E+00 0. -1.
         21   -1    0    0  501  503 -0.00000000000E+00 -0.00000000000E+00 -0.19695380029E+03  0.19695380029E+03  0.00000000000E+00 0. -1.
          6    2    1    2  501    0 -0.16758444724E+02  0.89329176196E+02 -0.38556707003E+02  0.19830226150E+03  0.17197854538E+03 0.  0.
         24    2    3    3    0    0  0.22457817575E+02  0.10972789407E+03 -0.58654736786E+02  0.14951656974E+03  0.79813922161E+02 0.  0.
         -6    2    1    2    0  502  0.16758444724E+02 -0.89329176196E+02  0.41858203052E+02  0.19890683512E+03  0.17190483619E+03 0.  0.
        -24    2    5    5    0    0  0.18241165230E+02 -0.29321012748E+02 -0.44107579963E+02  0.93952635633E+02  0.75426502204E+02 0.  0.
          5    1    3    3  501    0 -0.39216262299E+02 -0.20398717875E+02  0.20098029783E+02  0.48785691763E+02  0.47000000000E+01 0. -1.
        -13    1    4    4    0    0  0.86222793037E+01  0.32482043267E+00  0.14719424504E+02  0.17061965491E+02  0.00000000000E+00 0.  1.
         14    1    4    4    0    0  0.13835538271E+02  0.10940307364E+03 -0.73374161290E+02  0.13245460425E+03  0.00000000000E+00 0. -1.
         -5    1    5    5    0  502 -0.14827205057E+01 -0.60008163448E+02  0.85965783014E+02  0.10495419949E+03  0.47000000000E+01 0.  1.
         11    1    6    6    0    0  0.38738053752E+02 -0.35756755240E+01  0.23437469938E-01  0.38902735292E+02  0.00000000000E+00 0. -1.
        -12    1    6    6    0    0 -0.20496888522E+02 -0.25745337224E+02 -0.44131017433E+02  0.55049900341E+02  0.00000000000E+00 0.  1.
</event>
<event>
12    1  0.1030140E-001  0.2562057E+03  0.7818608E-02  0.1111429E+00
         21   -1    0    0  501  502  0.00000000000E+00  0.00000000000E+00  0.35386237891E+03  0.35386237891E+03  0.00000000000E+00 0. -1.
         21   -1    0    0  502  503 -0.00000000000E+00 -0.00000000000E+00 -0.47186856292E+03  0.47186856292E+03  0.00000000000E+00 0. -1.
         -6    2    1    2    0  503  0.50593504561E+02 -0.18276448259E+03 -0.38618183283E+03  0.46344124942E+03  0.17227543313E+03 0.  0.
        -24    2    3    3    0    0  0.97160322899E+02 -0.15892743236E+03 -0.32348795383E+03  0.38165319408E+03  0.79477337465E+02 0.  0.
          6    2    1    2  501    0 -0.50593504561E+02  0.18276448259E+03  0.26817564881E+03  0.36228969241E+03  0.15288258179E+03 0.  0.
         24    2    5    5    0    0 -0.12210529055E+02  0.54460113441E+02  0.17039380831E+03  0.19640225382E+03  0.80154815324E+02 0.  0.
          5    1    5    5  501    0 -0.38382975506E+02  0.12830436915E+03  0.97781840503E+02  0.16588743860E+03  0.47000000000E+01 0. -1.
        -13    1    6    6    0    0  0.88624261324E+01  0.15080889826E+02 -0.26462177839E+01  0.17691192822E+02  0.00000000000E+00 0.  1.
         14    1    6    6    0    0 -0.21072955187E+02  0.39379223614E+02  0.17304002609E+03  0.17871106099E+03  0.00000000000E+00 0. -1.
         -5    1    3    3    0  503 -0.46566818339E+02 -0.23837050226E+02 -0.62693878994E+02  0.81788055344E+02  0.47000000000E+01 0. -1.
         11    1    4    4    0    0  0.32042055868E+02 -0.24111234483E+02 -0.13561721295E+03  0.14142161582E+03  0.00000000000E+00 0. -1.
        -12    1    4    4    0    0  0.65118267031E+02 -0.13481619788E+03 -0.18787074088E+03  0.24023157825E+03  0.00000000000E+00 0.  1.
</event>
<event>
12    1  0.1030140E-001  0.4382011E+03  0.7818608E-02  0.1031935E+00
         21   -1    0    0  503  502  0.00000000000E+00  0.00000000000E+00  0.92024392116E+03  0.92024392116E+03  0.00000000000E+00 0. -1.
         21   -1    0    0  501  503 -0.00000000000E+00 -0.00000000000E+00 -0.22394391691E+03  0.22394391691E+03  0.00000000000E+00 0.  1.
          6    2    1    2  501    0 -0.14143654173E+03 -0.36796742555E+03  0.17790735878E+03  0.46540131049E+03  0.17188085959E+03 0.  0.
         24    2    3    3    0    0 -0.96133510191E+02 -0.16845337912E+03  0.15253526931E+03  0.25918770203E+03  0.79328833231E+02 0.  0.
         -6    2    1    2    0  502  0.14143654173E+03  0.36796742555E+03  0.51839264547E+03  0.67878652759E+03  0.19135279866E+03 0.  0.
        -24    2    5    5    0    0  0.87299919042E+02  0.34047964394E+03  0.36188311620E+03  0.51084703013E+03  0.80359408917E+02 0.  0.
          5    1    3    3  501    0 -0.45303031543E+02 -0.19951404643E+03  0.25372089472E+02  0.20621360846E+03  0.47000000000E+01 0. -1.
        -11    1    4    4    0    0 -0.62291221478E+02 -0.10473649119E+03  0.45437585889E+02  0.13005576908E+03  0.00000000000E+00 0.  1.
         12    1    4    4    0    0 -0.33842288714E+02 -0.63716887925E+02  0.10709768342E+03  0.12913193294E+03  0.00000000000E+00 0. -1.
         -5    1    5    5    0  502  0.54136622692E+02  0.27487781616E+02  0.15650952927E+03  0.16793949746E+03  0.47000000000E+01 0.  1.
         13    1    6    6    0    0 -0.10346565547E+02  0.10449361333E+03  0.98433073405E+02  0.14392719196E+03  0.00000000000E+00 0. -1.
        -14    1    6    6    0    0  0.97646484589E+02  0.23598603061E+03  0.26345004279E+03  0.36691983817E+03  0.00000000000E+00 0.  1.
</event>
<event>
12    1  0.1030140E-001  0.2041784E+03  0.7818608E-02  0.1146584E+00
         21   -1    0    0  501  502  0.00000000000E+00  0.00000000000E+00  0.10819468101E+04  0.10819468101E+04  0.00000000000E+00 0.  1.
         21   -1    0    0  502  503 -0.00000000000E+00 -0.00000000000E+00 -0.14973534560E+03  0.14973534560E+03  0.00000000000E+00 0. -1.
         -6    2    1    2    0  503 -0.70252260703E+02 -0.82667078010E+02 -0.65776228118E+02  0.21302213661E+03  0.17112186471E+03 0.  0.
        -24    2    3    3    0    0 -0.91731537515E+02 -0.25688690054E+02 -0.83790431228E+02  0.14934720010E+03  0.78798261657E+02 0.  0.
          6    2    1    2  501    0  0.70252260703E+02  0.82667078010E+02  0.99798769262E+03  0.10186600191E+04  0.17297275490E+03 0.  0.
         24    2    5    5    0    0  0.27018507576E+01  0.58569401894E+02  0.82210701084E+03  0.82866038724E+03  0.85909401520E+02 0.  0.
          5    1    5    5  501    0  0.67550409945E+02  0.24097676116E+02  0.17588068177E+03  0.18999963184E+03  0.47000000000E+01 0. -1.
        -13    1    6    6    0    0  0.78800773966E+01 -0.15524966435E+01  0.54499184421E+03  0.54505102158E+03  0.00000000000E+00 0.  1.
         14    1    6    6    0    0 -0.51782266391E+01  0.60121898538E+02  0.27711516663E+03  0.28360936567E+03  0.00000000000E+00 0. -1.
         -5    1    3    3    0  503  0.21479276812E+02 -0.56978387956E+02  0.18014203111E+02  0.63674936515E+02  0.47000000000E+01 0.  1.
         13    1    4    4    0    0 -0.55420053005E+02 -0.44464780801E+02 -0.20407662538E+02  0.73925446884E+02  0.00000000000E+00 0. -1.
        -14    1    4    4    0    0 -0.36311484511E+02  0.18776090747E+02 -0.63382768691E+02  0.75421753215E+02  0.00000000000E+00 0.  1.
</event>
<event>
12    1  0.1030140E-001  0.2033869E+03  0.7818608E-02  0.1150170E+00
         21   -1    0    0  503  502  0.00000000000E+00  0.00000000000E+00  0.28332389803E+03  0.28332389803E+03  0.00000000000E+00 0. -1.
         21   -1    0    0  501  503 -0.00000000000E+00 -0.00000000000E+00 -0.17803490372E+03  0.17803490372E+03  0.00000000000E+00 0.  1.
          6    2    1    2  501    0  0.98631401974E+02 -0.46322488275E+02 -0.61814003257E+02  0.19812957075E+03  0.15349406969E+03 0.  0.
         24    2    3    3    0    0  0.96854682038E+02 -0.50343789875E+02 -0.94396675994E+02  0.16491740185E+03  0.79822868792E+02 0.  0.
         -6    2    1    2    0  502 -0.98631401974E+02  0.46322488275E+02  0.16710299757E+03  0.26322923101E+03  0.17173319389E+03 0.  0.
        -24    2    5    5    0    0 -0.10501432433E+03  0.77109997244E+02  0.83436011448E+02  0.17372578430E+03  0.79026072497E+02 0.  0.
          5    1    3    3  501    0  0.17767199354E+01  0.40213016001E+01  0.32582672736E+02  0.33212168898E+02  0.47000000000E+01 0. -1.
        -11    1    4    4    0    0  0.41405350845E+02  0.19476132618E+02 -0.26777861897E+02  0.53016758748E+02  0.00000000000E+00 0.  1.
         12    1    4    4    0    0  0.55449331194E+02 -0.69819922492E+02 -0.67618814096E+02  0.11190064310E+03  0.00000000000E+00 0. -1.
         -5    1    5    5    0  502  0.63829223563E+01 -0.30787508970E+02  0.83666986118E+02  0.89503446707E+02  0.47000000000E+01 0.  1.
         11    1    6    6    0    0 -0.97365830856E+02  0.26153399758E+02  0.56932520392E+02  0.11578176547E+03  0.00000000000E+00 0. -1.
        -12    1    6    6    0    0 -0.76484934737E+01  0.50956597486E+02  0.26503491056E+02  0.57944018828E+02  0.00000000000E+00 0.  1.
</event>
<event>
12    1  0.1030140E-001  0.1885924E+03  0.7818608E-02  0.1160559E+00
         21   -1    0    0  503  502  0.00000000000E+00  0.00000000000E+00  0.13317934203E+03  0.13317934203E+03  0.00000000000E+00 0. -1.
         21   -1    0    0  501  503 -0.00000000000E+00 -0.00000000000E+00 -0.31580444333E+03  0.31580444333E+03  0.00000000000E+00 0. -1.
          6    2    1    2  501    0  0.35077973744E+02 -0.59646060963E+02 -0.18467581344E+03  0.26395502891E+03  0.17543940375E+03 0.  0.
         24    2    3    3    0    0  0.22862950104E+02 -0.10754546745E+03 -0.15845577411E+03  0.20780219811E+03  0.77361354279E+02 0.  0.
         -6    2    1    2    0  502 -0.35077973744E+02  0.59646060963E+02  0.20507121442E+01  0.18502875644E+03  0.17159055469E+03 0.  0.
        -24    2    5    5    0    0 -0.89839673048E+02  0.45788802050E+02  0.12632215689E+01  0.12834033190E+03  0.79384279409E+02 0.  0.
          5    1    3    3  501    0  0.12215023640E+02  0.47899406486E+02 -0.26220039338E+02  0.56152830803E+02  0.47000000000E+01 0. -1.
        -13    1    4    4    0    0 -0.10000057542E+02  0.49107705891E+01 -0.51712941329E+00  0.11152768331E+02  0.00000000000E+00 0.  1.
         14    1    4    4    0    0  0.32863007646E+02 -0.11245623804E+03 -0.15793864469E+03  0.19664942978E+03  0.00000000000E+00 0. -1.
         -5    1    5    5    0  502  0.54761699304E+02  0.13857258913E+02  0.78749057529E+00  0.56688424538E+02  0.47000000000E+01 0.  1.
         13    1    6    6    0    0 -0.32447437622E+02  0.13930209054E+02 -0.37982667340E+02  0.51861063919E+02  0.00000000000E+00 0. -1.
        -14    1    6    6    0    0 -0.57392235426E+02  0.31858592996E+02  0.39245888909E+02  0.76479267983E+02  0.00000000000E+00 0.  1.
</event>
<event>
12    1  0.1030140E-001  0.1947101E+03  0.7818608E-02  0.1156684E+00
         21   -1    0    0  503  502  0.00000000000E+00  0.00000000000E+00  0.10267867082E+04  0.10267867082E+04  0.00000000000E+00 0.  1.
         21   -1    0    0  501  503 -0.00000000000E+00 -0.00000000000E+00 -0.71532163979E+02  0.71532163979E+02  0.00000000000E+00 0.  1.
          6    2    1    2  501    0 -0.51976920891E+02  0.32117714996E+02  0.78277937315E+02  0.19998708351E+03  0.17359219504E+03 0.  0.
         24    2    3    3    0    0  0.14249624760E+02  0.68843788517E+02  0.39118698812E+02  0.11460385456E+03  0.81616492580E+02 0.  0.
         -6    2    1    2    0  502  0.51976920891E+02 -0.32117714996E+02  0.87697660690E+03  0.89833178866E+03  0.18487532434E+03 0.  0.
        -24    2    5    5    0    0  0.12667043037E+02  0.53494582333E+02  0.49255028020E+03  0.50250300925E+03  0.82954032228E+02 0.  0.
          5    1    3    3  501    0 -0.66226545651E+02 -0.36726073520E+02  0.39159238503E+02  0.85383228946E+02  0.47000000000E+01 0. -1.
        -13    1    4    4    0    0 -0.32625334490E+02  0.13843025433E+02  0.13751795736E+02  0.38015177097E+02  0.00000000000E+00 0.  1.
         14    1    4    4    0    0  0.46874959251E+02  0.55000763083E+02  0.25366903076E+02  0.76588677467E+02  0.00000000000E+00 0. -1.
         -5    1    5    5    0  502  0.39309877854E+02 -0.85612297330E+02  0.38442632670E+03  0.39582877941E+03  0.47000000000E+01 0.  1.
         13    1    6    6    0    0  0.46376363742E+02  0.45025941661E+02  0.30830641047E+03  0.31500943680E+03  0.00000000000E+00 0. -1.
        -14    1    6    6    0    0 -0.33709320705E+02  0.84686406726E+01  0.18424386973E+03  0.18749357245E+03  0.00000000000E+00 0.  1.
</event>
<event>
12    1  0.1030140E-001  0.2466167E+03  0.7818608E-02  0.1115609E+00
         21   -1    0    0  503  502  0.00000000000E+00  0.00000000000E+00  0.10727834715E+03  0.10727834715E+03  0.00000000000E+00 0. -1.
         21   -1    0    0  501  503 -0.00000000000E+00 -0.00000000000E+00 -0.23144069259E+04  0.23144069259E+04  0.00000000000E+00 0.  1.
          6    2    1    2  501    0  0.17712092528E+03 -0.13504816792E+02 -0.21558343421E+04  0.21697906522E+04  0.16975147066E+03 0.  0.
         24    2    3    3    0    0  0.14096989972E+03  0.37090485841E+02 -0.18540004855E+04  0.18615820406E+04  0.83196616230E+02 0.  0.
         -6    2    1    2    0  502 -0.17712092528E+03  0.13504816792E+02 -0.51294236697E+02  0.25189462084E+03  0.17107191190E+03 0.  0.
        -24    2    5    5    0    0 -0.11634935871E+03 -0.49813777564E+02 -0.71468028102E+00  0.15049043344E+03  0.81414213018E+02 0.  0.
          5    1    3    3  501    0  0.36151025568E+02 -0.50595302633E+02 -0.30183385661E+03  0.30820861165E+03  0.47000000000E+01 0. -1.
        -13    1    4    4    0    0  0.79432665453E+02 -0.19225970484E+02 -0.10839574914E+04  0.10870340517E+04  0.00000000000E+00 0.  1.
         14    1    4    4    0    0  0.61537234263E+02  0.56316456325E+02 -0.77004299405E+03  0.77454798892E+03  0.00000000000E+00 0. -1.
         -5    1    5    5    0  502 -0.60771566570E+02  0.63318594357E+02 -0.50579556416E+02  0.10140418740E+03  0.47000000000E+01 0.  1.
         11    1    6    6    0    0 -0.69057100918E+02 -0.36537638498E+02  0.39002665291E+02  0.87321761973E+02  0.00000000000E+00 0. -1.
        -12    1    6    6    0    0 -0.47292257796E+02 -0.13276139066E+02 -0.39717345572E+02  0.63168671470E+02  0.00000000000E+00 0.  1.
</event>
<event>
12    1  0.1030140E-001  0.1818044E+03  0.7818608E-02  0.1166127E+00
         21   -1    0    0  503  502  0.00000000000E+00  0.00000000000E+00  0.46790334275E+02  0.46790334275E+02  0.00000000000E+00 0.  1.
         21   -1    0    0  501  503 -0.00000000000E+00 -0.00000000000E+00 -0.12036350416E+04  0.12036350416E+04  0.00000000000E+00 0. -1.
          6    2    1    2  501    0 -0.11636109966E+02 -0.62164882525E+02 -0.98042518912E+03  0.99709417860E+03  0.17018630343E+03 0.  0.
         24    2    3    3    0    0 -0.30762057271E+02 -0.40381458055E+02 -0.94976472899E+03  0.95463863413E+03  0.81883545378E+02 0.  0.
         -6    2    1    2    0  502  0.11636109966E+02  0.62164882525E+02 -0.17641951820E+03  0.25333119726E+03  0.17044933978E+03 0.  0.
        -24    2    5    5    0    0  0.73088690795E+02  0.40341455087E+02 -0.11153280924E+03  0.16121682989E+03  0.81128965136E+02 0.  0.
          5    1    3    3  501    0  0.19125947304E+02 -0.21783424470E+02 -0.30660460122E+02  0.42455544477E+02  0.47000000000E+01 0. -1.
        -13    1    4    4    0    0 -0.45170283910E+02 -0.22185651440E+02 -0.28096577210E+03  0.28543707322E+03  0.00000000000E+00 0.  1.
         14    1    4    4    0    0  0.14408226639E+02 -0.18195806615E+02 -0.66879895689E+03  0.66920156090E+03  0.00000000000E+00 0. -1.
         -5    1    5    5    0  502 -0.61452580829E+02  0.21823427438E+02 -0.64886708957E+02  0.92114367364E+02  0.47000000000E+01 0.  1.
         11    1    6    6    0    0  0.35546405980E+01 -0.12787154054E+02 -0.56055417821E+02  0.57605178983E+02  0.00000000000E+00 0. -1.
        -12    1    6    6    0    0  0.69534050197E+02  0.53128609141E+02 -0.55477391417E+02  0.10361165091E+03  0.00000000000E+00 0.  1.
</event>
<event>
12    1  0.1030140E-001  0.2027427E+03  0.7818608E-02  0.1150626E+00
         21   -1    0    0  501  502  0.00000000000E+00  0.00000000000E+00  0.65664375082E+02  0.65664375082E+02  0.00000000000E+00 0. -1.
         21   -1    0    0  502  503 -0.00000000000E+00 -0.00000000000E+00 -0.58289232086E+03  0.58289232086E+03  0.00000000000E+00 0. -1.
         -6    2    1    2    0  503  0.88196307983E+02 -0.11683774423E+02 -0.23192783074E+03  0.29855563239E+03  0.16561958712E+03 0.  0.
        -24    2    3    3    0    0 -0.13461393218E+02 -0.20178192463E+02 -0.12656673718E+03  0.15182631226E+03  0.80272794740E+02 0.  0.
          6    2    1    2  501    0 -0.88196307983E+02  0.11683774423E+02 -0.28530011505E+03  0.35000106355E+03  0.18217982742E+03 0.  0.
         24    2    5    5    0    0  0.13321405312E+01 -0.48439460870E+02 -0.15324726832E+03  0.17944259603E+03  0.79792004957E+02 0.  0.
          5    1    5    5  501    0 -0.89528448514E+02  0.60123235293E+02 -0.13205284673E+03  0.17055846752E+03  0.47000000000E+01 0. -1.
        -13    1    6    6    0    0 -0.36749089805E+02 -0.10810346375E+02 -0.80189048956E+02  0.88868682688E+02  0.00000000000E+00 0.  1.
         14    1    6    6    0    0  0.38081230336E+02 -0.37629114496E+02 -0.73058219364E+02  0.90573913343E+02  0.00000000000E+00 0. -1.
         -5    1    3    3    0  503  0.10165770120E+03  0.84944180404E+01 -0.10536109356E+03  0.14672932014E+03  0.47000000000E+01 0.  1.
         13    1    4    4    0    0  0.21402930148E+02 -0.21231503825E+02 -0.10836928348E+03  0.11248450460E+03  0.00000000000E+00 0. -1.
        -14    1    4    4    0    0 -0.34864323366E+02  0.10533113614E+01 -0.18197453699E+02  0.39341807657E+02  0.00000000000E+00 0.  1.
</event>
<event>
12    1  0.1030140E-001  0.1867510E+03  0.7818608E-02  0.1161719E+00
         21   -1    0    0  501  502  0.00000000000E+00  0.00000000000E+00  0.10549225714E+04  0.10549225714E+04  0.00000000000E+00 0.  1.
         21   -1    0    0  502  503 -0.00000000000E+00 -0.00000000000E+00 -0.84524160193E+02  0.84524160193E+02  0.00000000000E+00 0.  1.
         -6    2    1    2    0  503 -0.39336357096E+02  0.57288501867E+02  0.39031178009E+02  0.18954101528E+03  0.17196814292E+03 0.  0.
        -24    2    3    3    0    0 -0.15401857048E+02  0.48308252784E+01  0.83394368784E+02  0.11663799188E+03  0.79932761310E+02 0.  0.
          6    2    1    2  501    0  0.39336357096E+02 -0.57288501867E+02  0.93136723320E+03  0.94990571631E+03  0.17333962437E+03 0.  0.
         24    2    5    5    0    0  0.28384061015E+02 -0.70261121190E+02  0.30616077562E+03  0.32445112464E+03  0.76104084549E+02 0.  0.
          5    1    5    5  501    0  0.10952296082E+02  0.12972619323E+02  0.62520645758E+03  0.62545459167E+03  0.47000000000E+01 0. -1.
        -13    1    6    6    0    0  0.46864973073E+02 -0.38270354822E+02  0.25007331266E+03  0.25728895713E+03  0.00000000000E+00 0.  1.
         14    1    6    6    0    0 -0.18480912058E+02 -0.31990766368E+02  0.56087462960E+02  0.67162167510E+02  0.00000000000E+00 0. -1.
         -5    1    3    3    0  503 -0.23934500049E+02  0.52457676589E+02 -0.44363190775E+02  0.72903023404E+02  0.47000000000E+01 0.  1.
         11    1    4    4    0    0  0.22359108263E+02  0.34955756067E+01  0.74443986308E+02  0.77807813673E+02  0.00000000000E+00 0. -1.
        -12    1    4    4    0    0 -0.37760965310E+02  0.13352496717E+01  0.89503824765E+01  0.38830178204E+02  0.00000000000E+00 0.  1.
</event>
<event>
12    1  0.1030140E-001  0.2938293E+03  0.7818608E-02  0.1088531E+00
         21   -1    0    0  501  502  0.00000000000E+00  0.00000000000E+00  0.48535856669E+03  0.48535856669E+03  0.00000000000E+00 0. -1.
         21   -1    0    0  502  503 -0.00000000000E+00 -0.00000000000E+00 -0.19973667804E+03  0.19973667804E+03  0.00000000000E+00 0.  1.
         -6    2    1    2    0  503  0.24565163080E+02  0.23516345190E+03  0.27787854042E+02  0.29514031964E+03  0.17444296232E+03 0.  0.
        -24    2    3    3    0    0  0.52766837416E+02  0.20543684698E+03  0.68961800832E+02  0.23686176982E+03  0.79744158404E+02 0.  0.
          6    2    1    2  501    0 -0.24565163080E+02 -0.23516345190E+03  0.25783403461E+03  0.38995492508E+03  0.17228220409E+03 0.  0.
         24    2    5    5    0    0 -0.40584634740E+02 -0.76426675343E+02  0.50803397568E+02  0.12854000130E+03  0.80333040823E+02 0.  0.
          5    1    5    5  501    0  0.16019471660E+02 -0.15873677655E+03  0.20703063705E+03  0.26141492379E+03  0.47000000000E+01 0. -1.
        -13    1    6    6    0    0 -0.60541238176E+00 -0.42269164859E+02 -0.14505526181E+02  0.44692942528E+02  0.00000000000E+00 0.  1.
         14    1    6    6    0    0 -0.39979222358E+02 -0.34157510484E+02  0.65308923749E+02  0.83847058768E+02  0.00000000000E+00 0. -1.
         -5    1    3    3    0  503 -0.28201674336E+02  0.29726604913E+02 -0.41173946790E+02  0.58278549821E+02  0.47000000000E+01 0.  1.
         11    1    4    4    0    0 -0.15125501880E+02  0.79483334398E+02  0.42345928101E+02  0.91321185280E+02  0.00000000000E+00 0. -1.
        -12    1    4    4    0    0  0.67892339295E+02  0.12595351259E+03  0.26615872732E+02  0.14554058454E+03  0.00000000000E+00 0.  1.
</event>
<event>
12    1  0.1030140E-001  0.1801633E+03  0.7818608E-02  0.1167752E+00
         21   -1    0    0  503  502  0.00000000000E+00  0.00000000000E+00  0.13013764839E+03  0.13013764839E+03  0.00000000000E+00 0. -1.
         21   -1    0    0  501  503 -0.00000000000E+00 -0.00000000000E+00 -0.24994136901E+03  0.24994136901E+03  0.00000000000E+00 0. -1.
          6    2    1    2  501    0 -0.49844329124E+02  0.53146012549E+01 -0.47035084712E+02  0.18577491083E+03  0.17259002337E+03 0.  0.
         24    2    3    3    0    0  0.17501923407E+02 -0.18035396843E+02 -0.74908287701E+02  0.10909541170E+03  0.75226088731E+02 0.  0.
         -6    2    1    2    0  502  0.49844329124E+02 -0.53146012549E+01 -0.72768635907E+02  0.19430410658E+03  0.17304944186E+03 0.  0.
        -24    2    5    5    0    0  0.13032905877E+02 -0.60398661935E+02 -0.11428815822E+02  0.10389394039E+03  0.82737403987E+02 0.  0.
          5    1    3    3  501    0 -0.67346252530E+02  0.23349998098E+02  0.27873202989E+02  0.76679499124E+02  0.47000000000E+01 0. -1.
        -11    1    4    4    0    0  0.14797843294E+02 -0.36608414349E+02 -0.80371728174E+02  0.89547567566E+02  0.00000000000E+00 0.  1.
         12    1    4    4    0    0  0.27040801125E+01  0.18573017506E+02  0.54634404729E+01  0.19547844135E+02  0.00000000000E+00 0. -1.
         -5    1    5    5    0  502  0.36811423247E+02  0.55084060680E+02 -0.61339820085E+02  0.90410166190E+02  0.47000000000E+01 0.  1.
         11    1    6    6    0    0 -0.61704153156E+01 -0.31762788883E+02 -0.45228896575E+02  0.55611166758E+02  0.00000000000E+00 0. -1.
        -12    1    6    6    0    0  0.19203321193E+02 -0.28635873052E+02  0.33800080753E+02  0.48282773628E+02  0.00000000000E+00 0.  1.
</event>
<event>
12    1  0.1030140E-001  0.2274966E+03  0.7818608E-02  0.1129130E+00
         21   -1    0    0  503  502  0.00000000000E+00  0.00000000000E+00  0.65708942262E+03  0.65708942262E+03  0.00000000000E+00 0.  1.
         21   -1    0    0  501  503 -0.00000000000E+00 -0.00000000000E+00 -0.78329232786E+02  0.78329232786E+02  0.00000000000E+00 0.  1.
          6    2    1    2  501    0 -0.12637120053E+03  0.65499160881E+02  0.25171431824E+03  0.33928571877E+03  0.17746797049E+03 0.  0.
         24    2    3    3    0    0 -0.76720812439E+02  0.14097651864E+02  0.24275744898E+03  0.26710821760E+03  0.79566286994E+02 0.  0.
         -6    2    1    2    0  502  0.12637120053E+03 -0.65499160881E+02  0.32704587159E+03  0.39613293664E+03  0.17234407726E+03 0.  0.
        -24    2    5    5    0    0  0.17540431012E+01 -0.34714342535E+00  0.89127849060E+02  0.11972509169E+03  0.79919502789E+02 0.  0.
          5    1    3    3  501    0 -0.49650388095E+02  0.51401509017E+02  0.89568692615E+01  0.72177501163E+02  0.47000000000E+01 0. -1.
        -11    1    4    4    0    0 -0.73150877435E+02  0.40108272195E+02  0.20289417078E+03  0.21937586217E+03  0.00000000000E+00 0.  1.
         12    1    4    4    0    0 -0.35699350038E+01 -0.26010620331E+02  0.39863278204E+02  0.47732355432E+02  0.00000000000E+00 0. -1.
         -5    1    5    5    0  502  0.12461715743E+03 -0.65152017455E+02  0.23791802253E+03  0.27640784495E+03  0.47000000000E+01 0.  1.
         11    1    6    6    0    0 -0.71949966894E+01 -0.29379161147E+02  0.83524503423E+02  0.88832684070E+02  0.00000000000E+00 0. -1.
        -12    1    6    6    0    0  0.89490397906E+01  0.29032017721E+02  0.56033456371E+01  0.30892407619E+02  0.00000000000E+00 0.  1.
</event>
<event>
12    1  0.1030140E-001  0.1790004E+03  0.7818608E-02  0.1168943E+00
         21   -1    0    0  503  502  0.00000000000E+00  0.00000000000E+00  0.59947043627E+03  0.59947043627E+03  0.00000000000E+00 0.  1.
         21   -1    0    0  501  503 -0.00000000000E+00 -0.00000000000E+00 -0.10691663033E+03  0.10691663033E+03  0.00000000000E+00 0.  1.
          6    2    1    2  501    0  0.25688895319E+02  0.43384213312E+02 -0.37348463789E+01  0.17903940664E+03  0.17175287696E+03 0.  0.
         24    2    3    3    0    0 -0.37331466405E+02  0.23434366241E+01  0.36053629938E+02  0.93827176352E+02  0.78131585875E+02 0.  0.
         -6    2    1    2    0  502 -0.25688895319E+02 -0.43384213312E+02  0.49628865231E+03  0.52734765996E+03  0.17102929206E+03 0.  0.
        -24    2    5    5    0    0 -0.23458682549E+02  0.41438703660E+01  0.45958432075E+03  0.46707170669E+03  0.79816977265E+02 0.  0.
          5    1    3    3  501    0  0.63020361724E+02  0.41040776688E+02 -0.39788476317E+02  0.85212230287E+02  0.47000000000E+01 0. -1.
        -13    1    4    4    0    0  0.67797838453E+01 -0.27179188096E+02 -0.26480815241E+01  0.28136916503E+02  0.00000000000E+00 0.  1.
         14    1    4    4    0    0 -0.44111250250E+02  0.29522624720E+02  0.38701711462E+02  0.65690259849E+02  0.00000000000E+00 0. -1.
         -5    1    5    5    0  502 -0.22302127699E+01 -0.47528083678E+02  0.36704331561E+02  0.60275953268E+02  0.47000000000E+01 0.  1.
         11    1    6    6    0    0  0.13610402663E+02  0.12428298571E+02  0.26241851913E+02  0.32067747938E+02  0.00000000000E+00 0. -1.
        -12    1    6    6    0    0 -0.37069085212E+02 -0.82844282050E+01  0.43334246884E+03  0.43500395875E+03  0.00000000000E+00 0.  1.
</event>
<event>
12    1  0.1030140E-001  0.2065116E+03  0.7818608E-02  0.1144703E+00
         21   -1    0    0  503  502  0.00000000000E+00  0.00000000000E+00  0.38289202382E+03  0.38289202382E+03  0.00000000000E+00 0.  1.
         21   -1    0    0  501  503 -0.00000000000E+00 -0.00000000000E+00 -0.15224131799E+03  0.15224131799E+03  0.00000000000E+00 0.  1.
          6    2    1    2  501    0 -0.14934989159E+02  0.11193611197E+03 -0.25171353853E+02  0.20635993319E+03  0.17087445072E+03 0.  0.
         24    2    3    3    0    0  0.14285846835E+02  0.13733268731E+03 -0.40917216143E+02  0.16430205077E+03  0.79098627583E+02 0.  0.
         -6    2    1    2    0  502  0.14934989159E+02 -0.11193611197E+03  0.25582205968E+03  0.32877340861E+03  0.17289962672E+03 0.  0.
        -24    2    5    5    0    0 -0.29026096145E+02 -0.13244822931E+03  0.18625874292E+03  0.24383537815E+03  0.79864413971E+02 0.  0.
          5    1    3    3  501    0 -0.29220835994E+02 -0.25396575337E+02  0.15745862290E+02  0.42057882427E+02  0.47000000000E+01 0. -1.
        -11    1    4    4    0    0 -0.19435846932E+02  0.11496762754E+03 -0.18543439948E+02  0.11806424815E+03  0.00000000000E+00 0.  1.
         12    1    4    4    0    0  0.33721693767E+02  0.22365059776E+02 -0.22373776195E+02  0.46237802613E+02  0.00000000000E+00 0. -1.
         -5    1    5    5    0  502  0.43961085304E+02  0.20512117335E+02  0.69563316770E+02  0.84938030461E+02  0.47000000000E+01 0.  1.
         13    1    6    6    0    0 -0.40084974507E+02 -0.29769697135E+02  0.88598129099E+02  0.10169891115E+03  0.00000000000E+00 0. -1.
        -14    1    6    6    0    0  0.11058878362E+02 -0.10267853217E+03  0.97660613816E+02  0.14213646700E+03  0.00000000000E+00 0.  1.
</event>
<event>
12    1  0.1030140E-001  0.1837179E+03  0.7818608E-02  0.1164620E+00
         21   -1    0    0  503  502  0.00000000000E+00  0.00000000000E+00  0.69093954536E+02  0.69093954536E+02  0.00000000000E+00 0.  1.
         21   -1    0    0  501  503 -0.00000000000E+00 -0.00000000000E+00 -0.63929864535E+03  0.63929864535E+03  0.00000000000E+00 0.  1.
          6    2    1    2  501    0  0.34525650346E+02 -0.52990777291E+02 -0.46037804006E+03  0.49568156477E+03  0.17248834997E+03 0.  0.
         24    2    3    3    0    0  0.53369116424E+02 -0.51558366720E+02 -0.46459150015E+03  0.47575742715E+03  0.70663567077E+02 0.  0.
         -6    2    1    2    0  502 -0.34525650346E+02  0.52990777291E+02 -0.10982665075E+03  0.21271103511E+03  0.17083339320E+03 0.  0.
        -24    2    5    5    0    0  0.79067252673E+01 -0.22482650078E+02 -0.90340144330E+02  0.12383719941E+03  0.81279298855E+02 0.  0.
          5    1    3    3  501    0 -0.18843466078E+02 -0.14324105714E+01  0.42134600926E+01  0.19924137618E+02  0.47000000000E+01 0. -1.
        -13    1    4    4    0    0  0.11984664864E+00  0.12278851911E+02 -0.14542246160E+03  0.14593997706E+03  0.00000000000E+00 0.  1.
         14    1    4    4    0    0  0.53249269775E+02 -0.63837218631E+02 -0.31916903855E+03  0.32981745009E+03  0.00000000000E+00 0. -1.
         -5    1    5    5    0  502 -0.42432375613E+02  0.75473427369E+02 -0.19486506424E+02  0.88873835698E+02  0.47000000000E+01 0.  1.
         13    1    6    6    0    0  0.28546370174E+02  0.11669104131E+01 -0.87815739524E+02  0.92346418654E+02  0.00000000000E+00 0. -1.
        -14    1    6    6    0    0 -0.20639644907E+02 -0.23649560492E+02 -0.25244048064E+01  0.31490780761E+02  0.00000000000E+00 0.  1.
</event>
<event>
12    1  0.1030140E-001  0.1926227E+03  0.7818608E-02  0.1157106E+00
         21   -1    0    0  503  502  0.00000000000E+00  0.00000000000E+00  0.19859396093E+03  0.19859396093E+03  0.00000000000E+00 0. -1.
         21   -1    0    0  501  503 -0.00000000000E+00 -0.00000000000E+00 -0.18948781453E+03  0.18948781453E+03  0.00000000000E+00 0. -1.
          6    2    1    2  501    0  0.59941001101E+02  0.58007702619E+02 -0.32547218614E+02  0.19100692152E+03  0.16872019871E+03 0.  0.
         24    2    3    3    0    0  0.79168939363E+02  0.14297125972E+02  0.24858036115E+02  0.11618859896E+03  0.80060850588E+02 0.  0.
         -6    2    1    2    0  502 -0.59941001101E+02 -0.58007702619E+02  0.41653365007E+02  0.19707485394E+03  0.17362510781E+03 0.  0.
        -24    2    5    5    0    0 -0.84152416627E+02  0.12603271718E+02  0.35309811088E+02  0.12201199352E+03  0.79997950730E+02 0.  0.
          5    1    3    3  501    0 -0.19227938263E+02  0.43710576647E+02 -0.57405254729E+02  0.74818322563E+02  0.47000000000E+01 0. -1.
        -11    1    4    4    0    0 -0.14159370478E+02 -0.47651894456E+01 -0.59415869748E+01  0.16077849936E+02  0.00000000000E+00 0.  1.
         12    1    4    4    0    0  0.93328309841E+02  0.19062315418E+02  0.30799623090E+02  0.10011074902E+03  0.00000000000E+00 0. -1.
         -5    1    5    5    0  502  0.24211415526E+02 -0.70610974337E+02  0.63435539197E+01  0.75062860423E+02  0.47000000000E+01 0.  1.
         11    1    6    6    0    0 -0.44316949579E+02 -0.33444556838E+02  0.11913924536E+02  0.56784434487E+02  0.00000000000E+00 0. -1.
        -12    1    6    6    0    0 -0.39835467047E+02  0.46047828556E+02  0.23395886551E+02  0.65227559031E+02  0.00000000000E+00 0.  1.
</event>
<event>
12    1  0.1030140E-001  0.1743826E+03  0.7818608E-02  0.1173674E+00
         21   -1    0    0  503  502  0.00000000000E+00  0.00000000000E+00  0.97079340739E+03  0.97079340739E+03  0.00000000000E+00 0. -1.
         21   -1    0    0  501  503 -0.00000000000E+00 -0.00000000000E+00 -0.35718357248E+02  0.35718357248E+02  0.00000000000E+00 0. -1.
          6    2    1    2  501    0  0.15541530317E+01 -0.29406228875E+02  0.28502452551E+03  0.33347761414E+03  0.17059073041E+03 0.  0.
         24    2    3    3    0    0  0.81881863052E+01 -0.39232834249E+02  0.59550220141E+02  0.10764288485E+03  0.80215336830E+02 0.  0.
         -6    2    1    2    0  502 -0.15541530317E+01  0.29406228875E+02  0.65005052463E+03  0.67303415050E+03  0.17187827516E+03 0.  0.
        -24    2    5    5    0    0  0.30517233076E+02 -0.29526773434E+02  0.50389739021E+03  0.51214754052E+03  0.81113448565E+02 0.  0.
          5    1    3    3  501    0 -0.66340332735E+01  0.98266053746E+01  0.22547430537E+03  0.22583472929E+03  0.47000000000E+01 0. -1.
        -13    1    4    4    0    0  0.13234084211E+02 -0.40439508933E+02  0.77797020563E+02  0.88672832796E+02  0.00000000000E+00 0.  1.
         14    1    4    4    0    0 -0.50458979060E+01  0.12066746837E+01 -0.18246800421E+02  0.18970052058E+02  0.00000000000E+00 0. -1.
         -5    1    5    5    0  502 -0.32071386107E+02  0.58933002309E+02  0.14615313443E+03  0.16088660998E+03  0.47000000000E+01 0.  1.
         11    1    6    6    0    0  0.19527848269E+02 -0.55786799919E+02  0.26218977117E+03  0.26876938072E+03  0.00000000000E+00 0. -1.
        -12    1    6    6    0    0  0.10989384807E+02  0.26260026486E+02  0.24170761903E+03  0.24337815980E+03  0.00000000000E+00 0.  1.
</event>
<event>
12    1  0.1030140E-001  0.2005911E+03  0.7818608E-02  0.1149411E+00
         21   -1    0    0  501  502  0.00000000000E+00  0.00000000000E+00  0.12735317002E+04  0.12735317002E+04  0.00000000000E+00 0. -1.
         21   -1    0    0  502  503 -0.00000000000E+00 -0.00000000000E+00 -0.31608801629E+02  0.31608801629E+02  0.00000000000E+00 0.  1.
         -6    2    1    2    0  503  0.99490402227E+02 -0.27223674812E+02  0.66576448950E+03  0.69532663961E+03  0.17203869233E+03 0.  0.
        -24    2    3    3    0    0  0.74896247451E+02 -0.33063117455E+02  0.65901440847E+03  0.66874421809E+03  0.78843015164E+02 0.  0.
          6    2    1    2  501    0 -0.99490402227E+02  0.27223674812E+02  0.57615840911E+03  0.60981386227E+03  0.17109928584E+03 0.  0.
         24    2    5    5    0    0 -0.13741203099E+03  0.25016297322E+02  0.47836240724E+03  0.50479448107E+03  0.80492198806E+02 0.  0.
          5    1    5    5  501    0  0.37921628766E+02  0.22073774899E+01  0.97796001879E+02  0.10501938120E+03  0.47000000000E+01 0. -1.
        -13    1    6    6    0    0 -0.74460982581E+01  0.19857285140E+02  0.23289719861E+02  0.31498685744E+02  0.00000000000E+00 0.  1.
         14    1    6    6    0    0 -0.12996593274E+03  0.51590121821E+01  0.45507268737E+03  0.47329579533E+03  0.00000000000E+00 0. -1.
         -5    1    3    3    0  503  0.24594154776E+02  0.58394426434E+01  0.67500810275E+01  0.26582421511E+02  0.47000000000E+01 0.  1.
         11    1    4    4    0    0  0.39311785966E+01  0.11919652720E+02  0.29057596277E+03  0.29084690548E+03  0.00000000000E+00 0. -1.
        -12    1    4    4    0    0  0.70965068854E+02 -0.44982770176E+02  0.36843844570E+03  0.37789731262E+03  0.00000000000E+00 0.  1.
</event>
<event>
12    1  0.1030140E-001  0.1842617E+03  0.7818608E-02  0.1166374E+00
         21   -1    0    0  501  502  0.00000000000E+00  0.00000000000E+00  0.62126431960E+03  0.62126431960E+03  0.00000000000E+00 0.  1.
         21   -1    0    0  502  503 -0.00000000000E+00 -0.00000000000E+00 -0.65261731100E+02  0.65261731100E+02  0.00000000000E+00 0.  1.
         -6    2    1    2    0  503 -0.46778131401E+02 -0.41587029706E+02  0.44235854451E+03  0.47920084117E+03  0.17330519224E+03 0.  0.
        -24    2    3    3    0    0 -0.89853672443E+02 -0.31261735229E+01  0.35129494858E+03  0.37126841694E+03  0.79678360374E+02 0.  0.
          6    2    1    2  501    0  0.46778131401E+02  0.41587029706E+02  0.11364404399E+03  0.20732520953E+03  0.16171301480E+03 0.  0.
         24    2    5    5    0    0  0.68172923512E+02  0.10981525323E+01  0.25952983508E+02  0.10828532670E+03  0.80021254585E+02 0.  0.
          5    1    5    5  501    0 -0.21394792111E+02  0.40488877173E+02  0.87691060481E+02  0.99039882838E+02  0.47000000000E+01 0. -1.
        -11    1    6    6    0    0  0.45261529027E+02  0.41618012307E+00 -0.25503897248E+02  0.51954095032E+02  0.00000000000E+00 0.  1.
         12    1    6    6    0    0  0.22911394485E+02  0.68197240923E+00  0.51456880756E+02  0.56331231664E+02  0.00000000000E+00 0. -1.
         -5    1    3    3    0  503  0.43075541043E+02 -0.38460856183E+02  0.91063595938E+02  0.10793242423E+03  0.47000000000E+01 0.  1.
         11    1    4    4    0    0 -0.33062471096E+02 -0.40309197808E+02  0.16082594247E+03  0.16906490528E+03  0.00000000000E+00 0. -1.
        -12    1    4    4    0    0 -0.56791201348E+02  0.37183024285E+02  0.19046900610E+03  0.20220351167E+03  0.00000000000E+00 0.  1.
</event>
<event>
12    1  0.1030140E-001  0.1892197E+03  0.7818608E-02  0.1159696E+00
         21   -1    0    0  503  502  0.00000000000E+00  0.00000000000E+00  0.25222876425E+03  0.25222876425E+03  0.00000000000E+00 0. -1.
         21   -1    0    0  501  503 -0.00000000000E+00 -0.00000000000E+00 -0.34400127048E+03  0.34400127048E+03  0.00000000000E+00 0. -1.
          6    2    1    2  501    0  0.72090636899E+02 -0.28667487543E+02 -0.27545052971E+03  0.33418122252E+03  0.17258392276E+03 0.  0.
         24    2    3    3    0    0  0.61888984991E+02 -0.21618633525E+02 -0.61429518316E+02  0.11974978041E+03  0.79175832232E+02 0.  0.
         -6    2    1    2    0  502 -0.72090636899E+02  0.28667487543E+02  0.18367802349E+03  0.26204881222E+03  0.17003846300E+03 0.  0.
        -24    2    5    5    0    0  0.13508200556E+02  0.48986649432E+02  0.72602002959E+02  0.12027433761E+03  0.81318522789E+02 0.  0.
          5    1    3    3  501    0  0.10201651908E+02 -0.70488540183E+01 -0.21402101139E+03  0.21443144210E+03  0.47000000000E+01 0. -1.
        -11    1    4    4    0    0  0.68537921952E+02 -0.42471059641E+02 -0.51818839736E+02  0.95845864825E+02  0.00000000000E+00 0.  1.
         12    1    4    4    0    0 -0.66489369609E+01  0.20852426116E+02 -0.96106785803E+01  0.23903915587E+02  0.00000000000E+00 0. -1.
         -5    1    5    5    0  502 -0.85598837455E+02 -0.20319161889E+02  0.11107602053E+03  0.14177447461E+03  0.47000000000E+01 0.  1.
         11    1    6    6    0    0 -0.30845555654E+02  0.40614564453E+01  0.13926587972E+02  0.34086560176E+02  0.00000000000E+00 0. -1.
        -12    1    6    6    0    0  0.44353756210E+02  0.44925192987E+02  0.58675414987E+02  0.86187777433E+02  0.00000000000E+00 0.  1.
</event>
<event>
12    1  0.1030140E-001  0.2705937E+03  0.7818608E-02  0.1101048E+00
         21   -1    0    0  503  502  0.00000000000E+00  0.00000000000E+00  0.72073069907E+02  0.72073069907E+02  0.00000000000E+00 0. -1.
         21   -1    0    0  501  503 -0.00000000000E+00 -0.00000000000E+00 -0.14802421262E+04  0.14802421262E+04  0.00000000000E+00 0. -1.
          6    2    1    2  501    0  0.12262646853E+03 -0.16793312642E+03 -0.11394314441E+04  0.11709480759E+04  0.17197847187E+03 0.  0.
         24    2    3    3    0    0  0.88657274193E+02 -0.25949964120E+02 -0.45626056271E+03  0.47233683365E+03  0.79967933782E+02 0.  0.
         -6    2    1    2    0  502 -0.12262646853E+03  0.16793312642E+03 -0.26873761223E+03  0.38136712030E+03  0.17315366148E+03 0.  0.
        -24    2    5    5    0    0 -0.15398458889E+02  0.38490992613E+02 -0.10219341695E+03  0.14469821436E+03  0.93677156888E+02 0.  0.
          5    1    3    3  501    0  0.33969194342E+02 -0.14198316230E+03 -0.68317088141E+03  0.69861124221E+03  0.47000000000E+01 0. -1.
        -11    1    4    4    0    0  0.84326422591E+01  0.18466637799E+02 -0.18251823674E+03  0.18364376632E+03  0.00000000000E+00 0.  1.
         12    1    4    4    0    0  0.80224631934E+02 -0.44416601918E+02 -0.27374232597E+03  0.28869306733E+03  0.00000000000E+00 0. -1.
         -5    1    5    5    0  502 -0.10722800965E+03  0.12944213380E+03 -0.16654419528E+03  0.23666890594E+03  0.47000000000E+01 0.  1.
         13    1    6    6    0    0 -0.33694811108E+02  0.63141772458E+02 -0.75292277338E+02  0.10388046376E+03  0.00000000000E+00 0. -1.
        -14    1    6    6    0    0  0.18296352219E+02 -0.24650779845E+02 -0.26901139608E+02  0.40817750595E+02  0.00000000000E+00 0.  1.
</event>
<event>
12    1  0.1030140E-001  0.1966930E+03  0.7818608E-02  0.1154492E+00
         21   -1    0    0  501  502  0.00000000000E+00  0.00000000000E+00  0.28813946842E+03  0.28813946842E+03  0.00000000000E+00 0. -1.
         21   -1    0    0  502  503 -0.00000000000E+00 -0.00000000000E+00 -0.27891138836E+03  0.27891138836E+03  0.00000000000E+00 0. -1.
         -6    2    1    2    0  503  0.85912904427E+02 -0.43076186298E+02 -0.20361598975E+03  0.28310352944E+03  0.17161454521E+03 0.  0.
        -24    2    3    3    0    0  0.79597047425E+02  0.27645891078E+02 -0.89795395954E+02  0.14886970416E+03  0.83659969100E+02 0.  0.
          6    2    1    2  501    0 -0.85912904427E+02  0.43076186298E+02  0.21284406981E+03  0.28394732733E+03  0.16151440082E+03 0.  0.
         24    2    5    5    0    0 -0.52031868980E+02  0.89174604530E+02  0.15689891261E+03  0.20379160800E+03  0.79084291946E+02 0.  0.
          5    1    5    5  501    0 -0.33881035447E+02 -0.46098418232E+02  0.55945157201E+02  0.80155719326E+02  0.47000000000E+01 0. -1.
        -13    1    6    6    0    0  0.15675134374E+01  0.11322256611E+02 -0.78418317705E+01  0.13861634776E+02  0.00000000000E+00 0.  1.
         14    1    6    6    0    0 -0.53599382417E+02  0.77852347919E+02  0.16474074438E+03  0.18992997323E+03  0.00000000000E+00 0. -1.
         -5    1    3    3    0  503  0.63158570021E+01 -0.70722077376E+02 -0.11382059380E+03  0.13423382528E+03  0.47000000000E+01 0.  1.
         13    1    4    4    0    0  0.63723372768E+02 -0.92416023733E+01 -0.87510288368E+02  0.10864679481E+03  0.00000000000E+00 0. -1.
        -14    1    4    4    0    0  0.15873674657E+02  0.36887493451E+02 -0.22851075857E+01  0.40222909354E+02  0.00000000000E+00 0.  1.
</event>
<event>
12    1  0.1030140E-001  0.1773949E+03  0.7818608E-02  0.1170388E+00
         21   -1    0    0  503  502  0.00000000000E+00  0.00000000000E+00  0.99263733185E+02  0.99263733185E+02  0.00000000000E+00 0.  1.
         21   -1    0    0  501  503 -0.00000000000E+00 -0.00000000000E+00 -0.31847236528E+03  0.31847236528E+03  0.00000000000E+00 0.  1.
          6    2    1    2  501    0  0.14386336554E+02  0.40437349672E+02 -0.12497530057E+03  0.21686580932E+03  0.17195873799E+03 0.  0.
         24    2    3    3    0    0 -0.98279117116E+00  0.35307179531E+02  0.45904161646E+01  0.86206352393E+02  0.78504142995E+02 0.  0.
         -6    2    1    2    0  502 -0.14386336554E+02 -0.40437349672E+02 -0.94233331526E+02  0.20087028914E+03  0.17212439212E+03 0.  0.
        -24    2    5    5    0    0 -0.64039890934E+02 -0.26146653342E+02 -0.22444708870E+02  0.11229605018E+03  0.85568001139E+02 0.  0.
          5    1    3    3  501    0  0.15369127725E+02  0.51301701409E+01 -0.12956571673E+03  0.13065945693E+03  0.47000000000E+01 0. -1.
        -13    1    4    4    0    0 -0.20877536675E+02  0.37356931114E+02  0.31169585268E+02  0.52942939903E+02  0.00000000000E+00 0.  1.
         14    1    4    4    0    0  0.19894745503E+02 -0.20497515824E+01 -0.26579169104E+02  0.33263412489E+02  0.00000000000E+00 0. -1.
         -5    1    5    5    0  502  0.49653554379E+02 -0.14290696330E+02 -0.71788622655E+02  0.88574238957E+02  0.47000000000E+01 0.  1.
         13    1    6    6    0    0 -0.41178272835E+02  0.21835084475E+02 -0.34263377752E+02  0.57848077952E+02  0.00000000000E+00 0. -1.
        -14    1    6    6    0    0 -0.22861618098E+02 -0.47981737817E+02  0.11818668882E+02  0.54447972232E+02  0.00000000000E+00 0.  1.
</event>
<event>
12    1  0.1030140E-001  0.2359929E+03  0.7818608E-02  0.1122551E+00
         21   -1    0    0  503  502  0.00000000000E+00  0.00000000000E+00  0.43522552577E+02  0.43522552577E+02  0.00000000000E+00 0.  1.
         21   -1    0    0  501  503 -0.00000000000E+00 -0.00000000000E+00 -0.17527524718E+04  0.17527524718E+04  0.00000000000E+00 0. -1.
          6    2    1    2  501    0  0.65284927986E+02 -0.14804268152E+03 -0.13226405240E+04  0.13435291544E+04  0.17179602952E+03 0.  0.
         24    2    3    3    0    0  0.10940790395E+02 -0.15718450584E+03 -0.88398387010E+03  0.90139952611E+03  0.79164091057E+02 0.  0.
         -6    2    1    2    0  502 -0.65284927986E+02  0.14804268152E+03 -0.38658939520E+03  0.45274586990E+03  0.17131463702E+03 0.  0.
        -24    2    5    5    0    0 -0.34205675419E+01  0.34247130693E+02 -0.76488252979E+02  0.11664851066E+03  0.81066984359E+02 0.  0.
          5    1    3    3  501    0  0.54344137591E+02  0.91418243136E+01 -0.43865665389E+03  0.44212962833E+03  0.47000000000E+01 0. -1.
        -11    1    4    4    0    0 -0.27153033359E+02 -0.32401740162E+02 -0.14706885684E+03  0.15302420932E+03  0.00000000000E+00 0.  1.
         12    1    4    4    0    0  0.38093823754E+02 -0.12478276567E+03 -0.73691501325E+03  0.74837531679E+03  0.00000000000E+00 0. -1.
         -5    1    5    5    0  502 -0.61864360444E+02  0.11379555083E+03 -0.31010114222E+03  0.33609735924E+03  0.47000000000E+01 0.  1.
         11    1    6    6    0    0 -0.21009243574E+01 -0.24578724124E+02 -0.70979958811E+01  0.25669224925E+02  0.00000000000E+00 0. -1.
        -12    1    6    6    0    0 -0.13196431845E+01  0.58825854818E+02 -0.69390257098E+02  0.90979285737E+02  0.00000000000E+00 0.  1.
</event>
<event>
12    1  0.1030140E-001  0.2046165E+03  0.7818608E-02  0.1146426E+00
         21   -1    0    0  501  502  0.00000000000E+00  0.00000000000E+00  0.66742710459E+02  0.66742710459E+02  0.00000000000E+00 0.  1.
         21   -1    0    0  502  503 -0.00000000000E+00 -0.00000000000E+00 -0.62147473319E+03  0.62147473319E+03  0.00000000000E+00 0. -1.
         -6    2    1    2    0  503 -0.58897627500E+02 -0.88082700364E+02 -0.29839738258E+03  0.36181335913E+03  0.17504404098E+03 0.  0.
        -24    2    3    3    0    0 -0.17646960802E+02  0.75841440260E+01 -0.20961501998E+03  0.22485292496E+03  0.79066091315E+02 0.  0.
          6    2    1    2  501    0  0.58897627500E+02  0.88082700364E+02 -0.25633464015E+03  0.32640408452E+03  0.17206012328E+03 0.  0.
         24    2    5    5    0    0  0.28904319071E+02 -0.14054519501E+02 -0.66016504919E+02  0.10828784755E+03  0.79593277518E+02 0.  0.
          5    1    5    5  501    0  0.29993308429E+02  0.10213721987E+03 -0.19031813523E+03  0.21811623697E+03  0.47000000000E+01 0. -1.
        -11    1    6    6    0    0  0.47413901531E+02  0.10942994798E+01 -0.11567292106E+02  0.48816777817E+02  0.00000000000E+00 0.  1.
         12    1    6    6    0    0 -0.18509582460E+02 -0.15148818981E+02 -0.54449212813E+02  0.59471069734E+02  0.00000000000E+00 0. -1.
         -5    1    3    3    0  503 -0.41250666698E+02 -0.95666844390E+02 -0.88782362603E+02  0.13696043417E+03  0.47000000000E+01 0.  1.
         13    1    4    4    0    0 -0.32740315344E+02 -0.11460790118E+02 -0.19130990798E+03  0.19442931582E+03  0.00000000000E+00 0. -1.
        -14    1    4    4    0    0  0.15093354542E+02  0.19044934144E+02 -0.18305112005E+02  0.30423609145E+02  0.00000000000E+00 0.  1.
</event>
<event>
12    1  0.1030140E-001  0.2382286E+03  0.7818608E-02  0.1121003E+00
         21   -1    0    0  501  502  0.00000000000E+00  0.00000000000E+00  0.13761497099E+03  0.13761497099E+03  0.00000000000E+00 0.  1.
         21   -1    0    0  502  503 -0.00000000000E+00 -0.00000000000E+00 -0.43678167359E+03  0.43678167359E+03  0.00000000000E+00 0. -1.
         -6    2    1    2    0  503 -0.13604508180E+03  0.93496912670E+02 -0.81334068634E+02  0.25159032095E+03  0.17155909161E+03 0.  0.
        -24    2    3    3    0    0 -0.34064491312E+02 -0.73921952059E+01 -0.61074174640E+02  0.10663789348E+03  0.80165774493E+02 0.  0.
          6    2    1    2  501    0  0.13604508180E+03 -0.93496912670E+02 -0.21783263396E+03  0.32280632362E+03  0.17176416736E+03 0.  0.
         24    2    5    5    0    0  0.14757477983E+03 -0.29565310766E+02 -0.15328419190E+03  0.23110695050E+03  0.85217110012E+02 0.  0.
          5    1    5    5  501    0 -0.11529698029E+02 -0.63931601904E+02 -0.64548442063E+02  0.91699373124E+02  0.47000000000E+01 0. -1.
        -11    1    6    6    0    0  0.15481154984E+03 -0.40326931861E+02 -0.14248175280E+03  0.21422867987E+03  0.00000000000E+00 0.  1.
         12    1    6    6    0    0 -0.72367700131E+01  0.10761621095E+02 -0.10802439104E+02  0.16878270628E+02  0.00000000000E+00 0. -1.
         -5    1    3    3    0  503 -0.10198059049E+03  0.10088910788E+03 -0.20259893994E+02  0.14495242747E+03  0.47000000000E+01 0.  1.
         11    1    4    4    0    0 -0.27342647793E+02 -0.36626373514E+02 -0.90634221533E+01  0.46596751456E+02  0.00000000000E+00 0. -1.
        -12    1    4    4    0    0 -0.67218435191E+01  0.29234178308E+02 -0.52010752487E+02  0.60041142027E+02  0.00000000000E+00 0.  1.
</event>
<event>
12    1  0.1030140E-001  0.1734024E+03  0.7818608E-02  0.1174348E+00
         21   -1    0    0  503  502  0.00000000000E+00  0.00000000000E+00  0.45384897470E+03  0.45384897470E+03  0.00000000000E+00 0. -1.
         21   -1    0    0  501  503 -0.00000000000E+00 -0.00000000000E+00 -0.66250235972E+02  0.66250235972E+02  0.00000000000E+00 0. -1.
          6    2    1    2  501    0 -0.21909122011E+01 -0.28136158077E+02  0.19535589838E+03  0.26120600090E+03  0.17107952650E+03 0.  0.
         24    2    3    3    0    0 -0.19158048806E+02 -0.47714613576E+02  0.40053016512E+02  0.10368687584E+03  0.80641235772E+02 0.  0.
         -6    2    1    2    0  502  0.21909122011E+01  0.28136158077E+02  0.19224284035E+03  0.25889320977E+03  0.17109044658E+03 0.  0.
        -24    2    5    5    0    0 -0.41003907382E+02  0.66119081240E+02  0.12543650247E+03  0.17061143548E+03  0.85562213861E+02 0.  0.
          5    1    3    3  501    0  0.16967136605E+02  0.19578455499E+02  0.15530288187E+03  0.15751912506E+03  0.47000000000E+01 0. -1.
        -13    1    4    4    0    0 -0.56964538297E+01  0.22927449918E+02  0.78721330664E+01  0.24901566718E+02  0.00000000000E+00 0.  1.
         14    1    4    4    0    0 -0.13461594976E+02 -0.70642063494E+02  0.32180883446E+02  0.78785309122E+02  0.00000000000E+00 0. -1.
         -5    1    5    5    0  502  0.43194819583E+02 -0.37982923163E+02  0.66806337883E+02  0.88281774292E+02  0.47000000000E+01 0.  1.
         13    1    6    6    0    0  0.12662931715E+02  0.56220636548E+02  0.84984911689E+02  0.10268176580E+03  0.00000000000E+00 0. -1.
        -14    1    6    6    0    0 -0.53666839098E+02  0.98984446917E+01  0.40451590779E+02  0.67929669678E+02  0.00000000000E+00 0.  1.
</event>
<event>
12    1  0.1030140E-001  0.1789543E+03  0.7818608E-02  0.1168825E+00
         21   -1    0    0  501  502  0.00000000000E+00  0.00000000000E+00  0.31153338593E+03  0.31153338593E+03  0.00000000000E+00 0. -1.
         21   -1    0    0  502  503 -0.00000000000E+00 -0.00000000000E+00 -0.11112017166E+03  0.11112017166E+03  0.00000000000E+00 0. -1.
         -6    2    1    2    0  503  0.23636313666E+02 -0.44523979341E+02  0.42310946589E+02  0.18386290981E+03  0.17168078909E+03 0.  0.
        -24    2    3    3    0    0  0.23875073303E+02  0.43012778143E+02  0.14639222430E+02  0.91936008228E+02  0.76274534195E+02 0.  0.
          6    2    1    2  501    0 -0.23636313666E+02  0.44523979341E+02  0.15810226768E+03  0.23879064778E+03  0.17170785177E+03 0.  0.
         24    2    5    5    0    0 -0.79878199043E+02  0.13328881790E+02  0.10655561542E+03  0.15623502325E+03  0.80604575182E+02 0.  0.
          5    1    5    5  501    0  0.56241885377E+02  0.31195097551E+02  0.51546652259E+02  0.82555624527E+02  0.47000000000E+01 0. -1.
        -13    1    6    6    0    0 -0.34740308416E+02  0.29531685764E+02  0.75383323682E+01  0.46215105191E+02  0.00000000000E+00 0.  1.
         14    1    6    6    0    0 -0.45137890628E+02 -0.16202803974E+02  0.99017283050E+02  0.11001991806E+03  0.00000000000E+00 0. -1.
         -5    1    3    3    0  503 -0.23875963760E+00 -0.87536757484E+02  0.27671724158E+02  0.91926901584E+02  0.47000000000E+01 0.  1.
         13    1    4    4    0    0  0.10168710703E+02  0.63919499857E+02  0.42457294163E+01  0.64862403267E+02  0.00000000000E+00 0. -1.
        -14    1    4    4    0    0  0.13706362601E+02 -0.20906721713E+02  0.10393493014E+02  0.27073604961E+02  0.00000000000E+00 0.  1.
</event>
<event>
12    1  0.1030140E-001  0.1938875E+03  0.7818608E-02  0.1155435E+00
         21   -1    0    0  503  502  0.00000000000E+00  0.00000000000E+00  0.43885713223E+02  0.43885713223E+02  0.00000000000E+00 0.  1.
         21   -1    0    0  501  503 -0.00000000000E+00 -0.00000000000E+00 -0.12819884719E+04  0.12819884719E+04  0.00000000000E+00 0.  1.
          6    2    1    2  501    0 -0.86225940532E+02 -0.10744536772E+02 -0.10068788459E+04  0.10253766897E+04  0.17332624585E+03 0.  0.
         24    2    3    3    0    0 -0.22398200658E+02 -0.66472254974E+02 -0.50372549018E+03  0.51511700253E+03  0.81767455354E+02 0.  0.
         -6    2    1    2    0  502  0.86225940532E+02  0.10744536772E+02 -0.23122391274E+03  0.30049749542E+03  0.17112536060E+03 0.  0.
        -24    2    5    5    0    0 -0.14878894206E+02 -0.31759224750E+02 -0.10572218042E+03  0.13375958082E+03  0.74056844234E+02 0.  0.
          5    1    3    3  501    0 -0.63827739874E+02  0.55727718203E+02 -0.50315335571E+03  0.51025968714E+03  0.47000000000E+01 0. -1.
        -13    1    4    4    0    0 -0.34529827317E+02 -0.30334276740E+02 -0.42676738223E+03  0.42923522206E+03  0.00000000000E+00 0.  1.
         14    1    4    4    0    0  0.12131626659E+02 -0.36137978234E+02 -0.76958107952E+02  0.85881780464E+02  0.00000000000E+00 0. -1.
         -5    1    5    5    0  502  0.10110483474E+03  0.42503761521E+02 -0.12550173232E+03  0.16673791460E+03  0.47000000000E+01 0.  1.
         11    1    6    6    0    0 -0.23616934169E+02  0.14475541916E+02 -0.14854081189E+02  0.31431586363E+02  0.00000000000E+00 0. -1.
        -12    1    6    6    0    0  0.87380399631E+01 -0.46234766666E+02 -0.90868099232E+02  0.10232799445E+03  0.00000000000E+00 0.  1.
</event>
<event>
12    1  0.1030140E-001  0.1868013E+03  0.7818608E-02  0.1162908E+00
         21   -1    0    0  503  502  0.00000000000E+00  0.00000000000E+00  0.33202276682E+02  0.33202276682E+02  0.00000000000E+00 0.  1.
         21   -1    0    0  501  503 -0.00000000000E+00 -0.00000000000E+00 -0.14435650390E+04  0.14435650390E+04  0.00000000000E+00 0.  1.
          6    2    1    2  501    0  0.78680856452E+02  0.16209411826E+02 -0.10988218702E+04  0.11135147292E+04  0.16140671433E+03 0.  0.
         24    2    3    3    0    0  0.79722188397E+02  0.48749177020E+02 -0.10271605234E+04  0.10346644957E+04  0.82096091652E+02 0.  0.
         -6    2    1    2    0  502 -0.78680856452E+02 -0.16209411826E+02 -0.31154089209E+03  0.36325258649E+03  0.16864546227E+03 0.  0.
        -24    2    5    5    0    0 -0.46016225629E+02  0.38412930413E+02 -0.96386397069E+02  0.13883305725E+03  0.79945193729E+02 0.  0.
          5    1    3    3  501    0 -0.10413319445E+01 -0.32539765194E+02 -0.71661346830E+02  0.78850233484E+02  0.47000000000E+01 0. -1.
        -13    1    4    4    0    0 -0.46701291850E+01  0.39132861898E+02 -0.31390856220E+03  0.31637284398E+03  0.00000000000E+00 0.  1.
         14    1    4    4    0    0  0.84392317582E+02  0.96163151218E+01 -0.71325196121E+03  0.71829165173E+03  0.00000000000E+00 0. -1.
         -5    1    5    5    0  502 -0.32664630823E+02 -0.54622342239E+02 -0.21515449502E+03  0.22441952924E+03  0.47000000000E+01 0.  1.
         11    1    6    6    0    0  0.70560695317E+01  0.16007353428E+02 -0.75587545317E+02  0.77585439923E+02  0.00000000000E+00 0. -1.
        -12    1    6    6    0    0 -0.53072295161E+02  0.22405576985E+02 -0.20798851752E+02  0.61247617324E+02  0.00000000000E+00 0.  1.
</event>
<event>
12    1  0.1030140E-001  0.1982649E+03  0.7818608E-02  0.1151392E+00
         21   -1    0    0  501  502  0.00000000000E+00  0.00000000000E+00  0.18056885599E+04  0.18056885599E+04  0.00000000000E+00 0.  1.
         21   -1    0    0  502  503 -0.00000000000E+00 -0.00000000000E+00 -0.23157606382E+02  0.23157606382E+02  0.00000000000E+00 0. -1.
         -6    2    1    2    0  503 -0.87976558045E+02 -0.39073844042E+02  0.11242595468E+04  0.11416078540E+04  0.17332721531E+03 0.  0.
        -24    2    3    3    0    0 -0.65385900188E+02  0.43008885781E+02  0.56320988319E+03  0.57411624396E+03  0.79240197286E+02 0.  0.
          6    2    1    2  501    0  0.87976558045E+02  0.39073844042E+02  0.65827140665E+03  0.68723831227E+03  0.17236186638E+03 0.  0.
         24    2    5    5    0    0  0.11968007299E+03  0.15682456118E+02  0.40475199790E+03  0.43063268002E+03  0.83970625796E+02 0.  0.
          5    1    5    5  501    0 -0.31703514944E+02  0.23391387924E+02  0.25351940875E+03  0.25660563225E+03  0.47000000000E+01 0. -1.
        -13    1    6    6    0    0  0.21885827342E+02 -0.22268068024E+02  0.17895465810E+03  0.18165799170E+03  0.00000000000E+00 0.  1.
         14    1    6    6    0    0  0.97794245647E+02  0.37950524142E+02  0.22579733980E+03  0.24897468832E+03  0.00000000000E+00 0. -1.
         -5    1    3    3    0  503 -0.22590657857E+02 -0.82082729823E+02  0.56104966366E+03  0.56749161003E+03  0.47000000000E+01 0.  1.
         11    1    4    4    0    0  0.12789886897E+02  0.28939228660E+02  0.14200008438E+03  0.14548224678E+03  0.00000000000E+00 0. -1.
        -12    1    4    4    0    0 -0.78175787085E+02  0.14069657121E+02  0.42120979880E+03  0.42863399719E+03  0.00000000000E+00 0.  1.
</event>
<event>
12    1  0.1030140E-001  0.1725390E+03  0.7818608E-02  0.1175335E+00
         21   -1    0    0  501  502  0.00000000000E+00  0.00000000000E+00  0.53997784904E+02  0.53997784904E+02  0.00000000000E+00 0.  1.
         21   -1    0    0  502  503 -0.00000000000E+00 -0.00000000000E+00 -0.10110161308E+04  0.10110161308E+04  0.00000000000E+00 0.  1.
         -6    2    1    2    0  503 -0.37054872131E+01  0.11602847415E+02 -0.83843497437E+03  0.85600404331E+03  0.17210856808E+03 0.  0.
        -24    2    3    3    0    0  0.17718561658E+02 -0.56236841335E+02 -0.44440446875E+03  0.45557509505E+03  0.81097506979E+02 0.  0.
          6    2    1    2  501    0  0.37054872131E+01 -0.11602847415E+02 -0.11858337153E+03  0.20900987240E+03  0.17168213085E+03 0.  0.
         24    2    5    5    0    0  0.75316514796E+00  0.18204350639E+02  0.38862289483E+01  0.82843005503E+02  0.80721094798E+02 0.  0.
          5    1    5    5  501    0  0.29523220652E+01 -0.29807198053E+02 -0.12246960048E+03  0.12616686690E+03  0.47000000000E+01 0. -1.
        -13    1    6    6    0    0 -0.16773841225E+02 -0.20410187732E+02  0.24195892467E+02  0.35824275637E+02  0.00000000000E+00 0.  1.
         14    1    6    6    0    0  0.17527006373E+02  0.38614538370E+02 -0.20309663518E+02  0.47018729866E+02  0.00000000000E+00 0. -1.
         -5    1    3    3    0  503 -0.21424048871E+02  0.67839688749E+02 -0.39403050563E+03  0.40042894826E+03  0.47000000000E+01 0.  1.
         13    1    4    4    0    0 -0.34070014313E+01 -0.68518017838E+02 -0.23679045674E+03  0.24652798387E+03  0.00000000000E+00 0. -1.
        -14    1    4    4    0    0  0.21125563090E+02  0.12281176503E+02 -0.20761401201E+03  0.20904711118E+03  0.00000000000E+00 0.  1.
</event>
<event>
12    1  0.1030140E-001  0.1751727E+03  0.7818608E-02  0.1172746E+00
         21   -1    0    0  501  502  0.00000000000E+00  0.00000000000E+00  0.19492608156E+03  0.19492608156E+03  0.00000000000E+00 0. -1.
         21   -1    0    0  502  503 -0.00000000000E+00 -0.00000000000E+00 -0.18159821097E+03  0.18159821097E+03  0.00000000000E+00 0. -1.
         -6    2    1    2    0  503 -0.19510528271E+02 -0.25589467219E+02 -0.62962422223E+02  0.18614439566E+03  0.17219171838E+03 0.  0.
        -24    2    3    3    0    0  0.40472942597E+02  0.28875492884E+02 -0.36683343566E+02  0.10083830777E+03  0.79692179332E+02 0.  0.
          6    2    1    2  501    0  0.19510528271E+02  0.25589467219E+02  0.76290292814E+02  0.19037989688E+03  0.17143166222E+03 0.  0.
         24    2    5    5    0    0 -0.11983028010E+00 -0.55123763244E+02  0.27563922971E+02  0.93962441681E+02  0.70926207875E+02 0.  0.
          5    1    5    5  501    0  0.19630358551E+02  0.80713230462E+02  0.48726369843E+02  0.96417455196E+02  0.47000000000E+01 0. -1.
        -11    1    6    6    0    0  0.86810296258E+01 -0.30988898470E+02 -0.21414610280E+02  0.38655628790E+02  0.00000000000E+00 0.  1.
         12    1    6    6    0    0 -0.88008599059E+01 -0.24134864774E+02  0.48978533251E+02  0.55306812891E+02  0.00000000000E+00 0. -1.
         -5    1    3    3    0  503 -0.59983470868E+02 -0.54464960102E+02 -0.26279078657E+02  0.85306087891E+02  0.47000000000E+01 0.  1.
         13    1    4    4    0    0  0.25433826848E+02  0.34929078775E+02 -0.59077481460E+02  0.73192000300E+02  0.00000000000E+00 0. -1.
        -14    1    4    4    0    0  0.15039115748E+02 -0.60535858916E+01  0.22394137894E+02  0.27646307469E+02  0.00000000000E+00 0.  1.
</event>
<event>
12    1  0.1030140E-001  0.2359121E+03  0.7818608E-02  0.1123538E+00
         21   -1    0    0  501  502  0.00000000000E+00  0.00000000000E+00  0.14772843804E+03  0.14772843804E+03  0.00000000000E+00 0.  1.
         21   -1    0    0  502  503 -0.00000000000E+00 -0.00000000000E+00 -0.94961358082E+03  0.94961358082E+03  0.00000000000E+00 0.  1.
         -6    2    1    2    0  503  0.42937485474E+02 -0.15581087139E+03 -0.82855193645E+03  0.85992755744E+03  0.16387933776E+03 0.  0.
        -24    2    3    3    0    0 -0.19338393345E+02 -0.88058111706E+02 -0.29163616717E+03  0.31516214478E+03  0.78404840448E+02 0.  0.
          6    2    1    2  501    0 -0.42937485474E+02  0.15581087139E+03  0.26666793671E+02  0.23741446142E+03  0.17185416290E+03 0.  0.
         24    2    5    5    0    0 -0.45117127607E+02  0.16429691031E+02  0.28208814447E+02  0.97928504759E+02  0.80552870097E+02 0.  0.
          5    1    5    5  501    0  0.21796421328E+01  0.13938118036E+03 -0.15420207760E+01  0.13948595666E+03  0.47000000000E+01 0. -1.
        -13    1    6    6    0    0 -0.35885396043E+02  0.48531596810E+02  0.19046087390E+02  0.63291634383E+02  0.00000000000E+00 0.  1.
         14    1    6    6    0    0 -0.92317315635E+01 -0.32101905779E+02  0.91627270570E+01  0.34636870375E+02  0.00000000000E+00 0. -1.
         -5    1    3    3    0  503  0.62275878819E+02 -0.67752759683E+02 -0.53691576928E+03  0.54476541266E+03  0.47000000000E+01 0.  1.
         11    1    4    4    0    0  0.26898302162E+02 -0.13810504407E+02 -0.53246174499E+02  0.61232375341E+02  0.00000000000E+00 0. -1.
        -12    1    4    4    0    0 -0.46236695507E+02 -0.74247607299E+02 -0.23838999267E+03  0.25392976944E+03  0.00000000000E+00 0.  1.
</event>
<event>
12    1  0.1030140E-001  0.1922967E+03  0.7818608E-02  0.1156689E+00
         21   -1    0    0  503  502  0.00000000000E+00  0.00000000000E+00  0.22754057904E+03  0.22754057904E+03  0.00000000000E+00 0.  1.
         21   -1    0    0  501  503 -0.00000000000E+00 -0.00000000000E+00 -0.21826911558E+03  0.21826911558E+03  0.00000000000E+00 0.  1.
          6    2    1    2  501    0  0.87415092995E+02  0.44209755292E+01 -0.10909000729E+03  0.22108516099E+03  0.17122229764E+03 0.  0.
         24    2    3    3    0    0  0.39604806255E+02  0.65966028192E+02 -0.80376832114E+02  0.13789770127E+03  0.81457248424E+02 0.  0.
         -6    2    1    2    0  502 -0.87415092995E+02 -0.44209755292E+01  0.11836147075E+03  0.22472453363E+03  0.16979615647E+03 0.  0.
        -24    2    5    5    0    0  0.16906641876E+02  0.12844121047E+02  0.44818368982E+02  0.95837816925E+02  0.82008505472E+02 0.  0.
          5    1    3    3  501    0  0.47810286740E+02 -0.61545052663E+02 -0.28713175174E+02  0.83187459716E+02  0.47000000000E+01 0. -1.
        -11    1    4    4    0    0  0.28214363254E+02  0.24582448757E+02  0.92286261321E+01  0.38542374356E+02  0.00000000000E+00 0.  1.
         12    1    4    4    0    0  0.11390443001E+02  0.41383579435E+02 -0.89605458247E+02  0.99355326914E+02  0.00000000000E+00 0. -1.
         -5    1    5    5    0  502 -0.10432173487E+03 -0.17265096576E+02  0.73543101768E+02  0.12888671671E+03  0.47000000000E+01 0.  1.
         11    1    6    6    0    0  0.25477336998E+02  0.21535689693E+02 -0.13697403610E+02  0.36062438863E+02  0.00000000000E+00 0. -1.
        -12    1    6    6    0    0 -0.85706951220E+01 -0.86915686459E+01  0.58515772592E+02  0.59775378062E+02  0.00000000000E+00 0.  1.
</event>
<event>
12    1  0.1030140E-001  0.2621016E+03  0.7818608E-02  0.1106324E+00
         21   -1    0    0  503  502  0.00000000000E+00  0.00000000000E+00  0.52811939658E+03  0.52811939658E+03  0.00000000000E+00 0.  1.
         21   -1    0    0  501  503 -0.00000000000E+00 -0.00000000000E+00 -0.19616883899E+03  0.19616883899E+03  0.00000000000E+00 0. -1.
          6    2    1    2  501    0  0.18481258275E+03  0.54458953603E+02 -0.47117470105E+02  0.26343055571E+03  0.17336127976E+03 0.  0.
         24    2    3    3    0    0  0.10454271738E+03 -0.12643518704E+02  0.41515465060E+02  0.12623040894E+03  0.55870779299E+02 0.  0.
         -6    2    1    2    0  502 -0.18481258275E+03 -0.54458953603E+02  0.37906802770E+03  0.46085767986E+03  0.17769570364E+03 0.  0.
        -24    2    5    5    0    0 -0.15892134988E+03 -0.96408812808E+02  0.24060698346E+03  0.31380769721E+03  0.77671717527E+02 0.  0.
          5    1    3    3  501    0  0.80269865373E+02  0.67102472307E+02 -0.88632935165E+02  0.13720014677E+03  0.47000000000E+01 0. -1.
        -11    1    4    4    0    0  0.28459239176E+02 -0.23407342977E+02  0.31996928991E+02  0.48802002669E+02  0.00000000000E+00 0.  1.
         12    1    4    4    0    0  0.76083478205E+02  0.10763824273E+02  0.95185360691E+01  0.77428406271E+02  0.00000000000E+00 0. -1.
         -5    1    5    5    0  502 -0.25891232878E+02  0.41949859205E+02  0.13846104424E+03  0.14704998265E+03  0.47000000000E+01 0.  1.
         13    1    6    6    0    0 -0.28602789280E+01  0.28025391068E+01 -0.49743773940E+01  0.63859103853E+01  0.00000000000E+00 0. -1.
        -14    1    6    6    0    0 -0.15606107095E+03 -0.99211351915E+02  0.24558136085E+03  0.30742178682E+03  0.00000000000E+00 0.  1.
</event>
<event>
12    1  0.1030140E-001  0.2071586E+03  0.7818608E-02  0.1146449E+00
         21   -1    0    0  503  502  0.00000000000E+00  0.00000000000E+00  0.23871658882E+03  0.23871658882E+03  0.00000000000E+00 0. -1.
         21   -1    0    0  501  503 -0.00000000000E+00 -0.00000000000E+00 -0.17288737383E+03  0.17288737383E+03  0.00000000000E+00 0. -1.
          6    2    1    2  501    0 -0.33464657627E+02  0.11229503673E+03  0.32831084589E+01  0.20718456821E+03  0.17083503130E+03 0.  0.
         24    2    3    3    0    0 -0.16879528774E+02  0.18506073280E+02 -0.57262800628E+02  0.94227349444E+02  0.70515046675E+02 0.  0.
         -6    2    1    2    0  502  0.33464657627E+02 -0.11229503673E+03  0.62546106534E+02  0.20441939444E+03  0.15538730578E+03 0.  0.
        -24    2    5    5    0    0  0.64206002815E+02 -0.12109816876E+03  0.67857242668E+02  0.17166540835E+03  0.77956588991E+02 0.  0.
          5    1    3    3  501    0 -0.16585128853E+02  0.93788963451E+02  0.60545909087E+02  0.11295721877E+03  0.47000000000E+01 0. -1.
        -11    1    4    4    0    0 -0.43351618264E+01  0.41149038230E+02 -0.54159539509E+02  0.68156384111E+02  0.00000000000E+00 0.  1.
         12    1    4    4    0    0 -0.12544366947E+02 -0.22642964950E+02 -0.31032611191E+01  0.26070965333E+02  0.00000000000E+00 0. -1.
         -5    1    5    5    0  502 -0.30741345188E+02  0.88031320320E+01 -0.53111361339E+01  0.32753986087E+02  0.47000000000E+01 0.  1.
         11    1    6    6    0    0  0.26094075963E+02 -0.20021171970E+02 -0.14384585854E+02  0.35897972612E+02  0.00000000000E+00 0. -1.
        -12    1    6    6    0    0  0.38111926852E+02 -0.10107699679E+03  0.82241828522E+02  0.13576743574E+03  0.00000000000E+00 0.  1.
</event>
<event>
12    1  0.1030140E-001  0.2022809E+03  0.7818608E-02  0.1148065E+00
         21   -1    0    0  501  502  0.00000000000E+00  0.00000000000E+00  0.75015151640E+03  0.75015151640E+03  0.00000000000E+00 0. -1.
         21   -1    0    0  502  503 -0.00000000000E+00 -0.00000000000E+00 -0.34056592195E+03  0.34056592195E+03  0.00000000000E+00 0.  1.
         -6    2    1    2    0  503 -0.89764262597E+02 -0.55946318789E+02 -0.29534674759E+03  0.35733679390E+03  0.17109140698E+03 0.  0.
        -24    2    3    3    0    0 -0.23787366425E+02 -0.84648424863E+02 -0.23539150713E+03  0.26356322310E+03  0.79531228538E+02 0.  0.
          6    2    1    2  501    0  0.89764262597E+02  0.55946318789E+02  0.70493234203E+03  0.73338064445E+03  0.17242374948E+03 0.  0.
         24    2    5    5    0    0  0.55753706954E+02  0.10098524700E+03  0.41934808065E+03  0.44223517686E+03  0.80078979478E+02 0.  0.
          5    1    5    5  501    0  0.34010555643E+02 -0.45038928215E+02  0.28558426138E+03  0.29114546759E+03  0.47000000000E+01 0. -1.
        -11    1    6    6    0    0  0.76304794727E+02  0.76509625184E+02  0.33714353003E+03  0.35403658608E+03  0.00000000000E+00 0.  1.
         12    1    6    6    0    0 -0.20551087773E+02  0.24475621820E+02  0.82204550619E+02  0.88198590774E+02  0.00000000000E+00 0. -1.
         -5    1    3    3    0  503 -0.65976896172E+02  0.28702106074E+02 -0.59955240460E+02  0.93773570798E+02  0.47000000000E+01 0.  1.
         11    1    4    4    0    0 -0.40288193482E+01 -0.95049849256E+02 -0.17519782744E+03  0.19936144052E+03  0.00000000000E+00 0. -1.
        -12    1    4    4    0    0 -0.19758547077E+02  0.10401424393E+02 -0.60193679689E+02  0.64201782581E+02  0.00000000000E+00 0.  1.
</event>
<event>
12    1  0.1030140E-001  0.2798217E+03  0.7818608E-02  0.1095974E+00
         21   -1    0    0  501  502  0.00000000000E+00  0.00000000000E+00  0.15497002987E+03  0.15497002987E+03  0.00000000000E+00 0.  1.
         21   -1    0    0  502  503 -0.00000000000E+00 -0.00000000000E+00 -0.10203452801E+04  0.10203452801E+04  0.00000000000E+00 0.  1.
         -6    2    1    2    0  503 -0.50594653057E+02 -0.21473391108E+03 -0.85174246213E+03  0.89652963029E+03  0.17213275316E+03 0.  0.
        -24    2    3    3    0    0 -0.20140984072E+02 -0.22422536482E+02 -0.22437608043E+03  0.23962647332E+03  0.78535290568E+02 0.  0.
          6    2    1    2  501    0  0.50594653057E+02  0.21473391108E+03 -0.13632788122E+02  0.27878567969E+03  0.16989741259E+03 0.  0.
         24    2    5    5    0    0 -0.93230642754E+01  0.77795043645E+02 -0.53213337708E+02  0.12408889185E+03  0.80171100942E+02 0.  0.
          5    1    5    5  501    0  0.59917717333E+02  0.13693886744E+03  0.39580549586E+02  0.15469678785E+03  0.47000000000E+01 0. -1.
        -13    1    6    6    0    0  0.31419906126E+02  0.59595704977E+02 -0.34641558141E+02  0.75755502131E+02  0.00000000000E+00 0.  1.
         14    1    6    6    0    0 -0.40742970401E+02  0.18199338669E+02 -0.18571779567E+02  0.48333389716E+02  0.00000000000E+00 0. -1.
         -5    1    3    3    0  503 -0.30453668985E+02 -0.19231137460E+03 -0.62736638170E+03  0.65690315697E+03  0.47000000000E+01 0.  1.
         11    1    4    4    0    0 -0.82427111285E-01 -0.11178561294E+02 -0.21418127871E+03  0.21447281220E+03  0.00000000000E+00 0. -1.
        -12    1    4    4    0    0 -0.20058556960E+02 -0.11243975188E+02 -0.10194801728E+02  0.25153661118E+02  0.00000000000E+00 0.  1.
</event>
<event>
12    1  0.1030140E-001  0.2021519E+03  0.7818608E-02  0.1148236E+00
         21   -1    0    0  503  502  0.00000000000E+00  0.00000000000E+00  0.24631438078E+03  0.24631438078E+03  0.00000000000E+00 0. -1.
         21   -1    0    0  501  503 -0.00000000000E+00 -0.00000000000E+00 -0.17262962621E+03  0.17262962621E+03  0.00000000000E+00 0. -1.
          6    2    1    2  501    0 -0.40513311879E+02 -0.95879636342E+02 -0.80890491128E+01  0.20087897409E+03  0.17161787906E+03 0.  0.
         24    2    3    3    0    0 -0.42210899825E+02 -0.13175523494E+03  0.10866150378E+02  0.15999707140E+03  0.79622783399E+02 0.  0.
         -6    2    1    2    0  502  0.40513311879E+02  0.95879636342E+02  0.81773803690E+02  0.21806503290E+03  0.17329503887E+03 0.  0.
        -24    2    5    5    0    0  0.37664434256E+02 -0.14672941699E+02  0.48630932196E+02  0.10252054559E+03  0.80694422836E+02 0.  0.
          5    1    3    3  501    0  0.16975879463E+01  0.35875598597E+02 -0.18955199491E+02  0.40881902686E+02  0.47000000000E+01 0. -1.
        -11    1    4    4    0    0  0.67605454208E+01 -0.77577940463E+02 -0.20486208005E+02  0.80521590516E+02  0.00000000000E+00 0.  1.
         12    1    4    4    0    0 -0.48971445246E+02 -0.54177294476E+02  0.31352358383E+02  0.79475480888E+02  0.00000000000E+00 0. -1.
         -5    1    5    5    0  502  0.28488776230E+01  0.11055257804E+03  0.33142871493E+02  0.11554448730E+03  0.47000000000E+01 0.  1.
         11    1    6    6    0    0  0.18932050783E+02  0.24633053909E+02  0.50103689008E+02  0.58954130848E+02  0.00000000000E+00 0. -1.
        -12    1    6    6    0    0  0.18732383473E+02 -0.39305995608E+02 -0.14727568120E+01  0.43566414747E+02  0.00000000000E+00 0.  1.
</event>
<event>
12    1  0.1030140E-001  0.2776900E+03  0.7818608E-02  0.1097031E+00
         21   -1    0    0  501  502  0.00000000000E+00  0.00000000000E+00  0.23468824140E+03  0.23468824140E+03  0.00000000000E+00 0.  1.
         21   -1    0    0  502  503 -0.00000000000E+00 -0.00000000000E+00 -0.34531930364E+03  0.34531930364E+03  0.00000000000E+00 0. -1.
         -6    2    1    2    0  503 -0.21637368484E+03  0.16661627051E+02  0.97890906454E+01  0.27733154174E+03  0.17240004769E+03 0.  0.
        -24    2    3    3    0    0 -0.22440034167E+03  0.36115937860E+02 -0.18254004854E+02  0.24195637200E+03  0.80930852913E+02 0.  0.
          6    2    1    2  501    0  0.21637368484E+03 -0.16661627051E+02 -0.12042015289E+03  0.30267600330E+03  0.17325290313E+03 0.  0.
         24    2    5    5    0    0  0.13584004137E+03 -0.65716844283E+02 -0.11992983435E+03  0.20825983688E+03  0.78852863165E+02 0.  0.
          5    1    5    5  501    0  0.80533643469E+02  0.49055217231E+02 -0.49031853455E+00  0.94416166413E+02  0.47000000000E+01 0. -1.
        -11    1    6    6    0    0  0.18047277000E+01  0.67662793959E+01  0.70291433367E+01  0.99221184725E+01  0.00000000000E+00 0.  1.
         12    1    6    6    0    0  0.13403531367E+03 -0.72483123678E+02 -0.12695897769E+03  0.19833771841E+03  0.00000000000E+00 0. -1.
         -5    1    3    3    0  503  0.80266568259E+01 -0.19454310809E+02  0.28043095499E+02  0.35375169739E+02  0.47000000000E+01 0.  1.
         13    1    4    4    0    0 -0.44779956623E+02 -0.29613860563E+00 -0.36506365736E+02  0.57775833638E+02  0.00000000000E+00 0. -1.
        -14    1    4    4    0    0 -0.17962038504E+03  0.36412076466E+02  0.18252360882E+02  0.18418053837E+03  0.00000000000E+00 0.  1.
</event>
<event>
12    1  0.1030140E-001  0.2013868E+03  0.7818608E-02  0.1148662E+00
         21   -1    0    0  503  502  0.00000000000E+00  0.00000000000E+00  0.10475227283E+03  0.10475227283E+03  0.00000000000E+00 0. -1.
         21   -1    0    0  501  503 -0.00000000000E+00 -0.00000000000E+00 -0.58288105199E+03  0.58288105199E+03  0.00000000000E+00 0.  1.
          6    2    1    2  501    0 -0.52682784432E+02  0.91458034595E+02 -0.43886698250E+03  0.48286732806E+03  0.17151262434E+03 0.  0.
         24    2    3    3    0    0 -0.79855040808E+02  0.10576896600E+03 -0.41693963602E+03  0.44484059012E+03  0.80502104458E+02 0.  0.
         -6    2    1    2    0  502  0.52682784432E+02 -0.91458034595E+02 -0.39261796657E+02  0.20476599677E+03  0.17101922959E+03 0.  0.
        -24    2    5    5    0    0  0.59350799864E+02 -0.12127016088E+03 -0.29913016480E+01  0.15711241231E+03  0.80289431756E+02 0.  0.
          5    1    3    3  501    0  0.27172256377E+02 -0.14310931409E+02 -0.21927346482E+02  0.38026737937E+02  0.47000000000E+01 0. -1.
        -11    1    4    4    0    0 -0.52918934495E+02  0.30342022703E+02 -0.27667559442E+03  0.28332037787E+03  0.00000000000E+00 0.  1.
         12    1    4    4    0    0 -0.26936106313E+02  0.75426943300E+02 -0.14026404160E+03  0.16152021225E+03  0.00000000000E+00 0. -1.
         -5    1    5    5    0  502 -0.66680154320E+01  0.29812126286E+02 -0.36270495009E+02  0.47653584458E+02  0.47000000000E+01 0.  1.
         11    1    6    6    0    0  0.24746173401E+01 -0.30776790889E+02  0.32174676091E+02  0.44593097784E+02  0.00000000000E+00 0. -1.
        -12    1    6    6    0    0  0.56876182524E+02 -0.90493369993E+02 -0.35165977739E+02  0.11251931453E+03  0.00000000000E+00 0.  1.
</event>
<event>
12    1  0.1030140E-001  0.1997840E+03  0.7818608E-02  0.1151060E+00
         21   -1    0    0  501  502  0.00000000000E+00  0.00000000000E+00  0.46380326390E+02  0.46380326390E+02  0.00000000000E+00 0. -1.
         21   -1    0    0  502  503 -0.00000000000E+00 -0.00000000000E+00 -0.87469374801E+03  0.87469374801E+03  0.00000000000E+00 0. -1.
         -6    2    1    2    0  503  0.88196730317E+02 -0.19652741122E+02 -0.51402024861E+03  0.55148024441E+03  0.17818179064E+03 0.  0.
        -24    2    3    3    0    0  0.82784595118E+02  0.52669675408E+02 -0.35211989182E+03  0.37401577284E+03  0.79195935626E+02 0.  0.
          6    2    1    2  501    0 -0.88196730317E+02  0.19652741122E+02 -0.31429317301E+03  0.36959382999E+03  0.17220484051E+03 0.  0.
         24    2    5    5    0    0 -0.11840262635E+03 -0.11233649660E+02 -0.19030165483E+03  0.23820756027E+03  0.79892084264E+02 0.  0.
          5    1    5    5  501    0  0.30205896035E+02  0.30886390782E+02 -0.12399151818E+03  0.13138626972E+03  0.47000000000E+01 0. -1.
        -11    1    6    6    0    0  0.98825246151E+01 -0.10601781859E+02 -0.13824068123E+02  0.20029152025E+02  0.00000000000E+00 0.  1.
         12    1    6    6    0    0 -0.12828515097E+03 -0.63186780117E+00 -0.17647758671E+03  0.21817840825E+03  0.00000000000E+00 0. -1.
         -5    1    3    3    0  503  0.54121351996E+01 -0.72322416530E+02 -0.16190035679E+03  0.17746447157E+03  0.47000000000E+01 0.  1.
         13    1    4    4    0    0  0.43276742948E+02 -0.29459966704E+01 -0.23070901375E+03  0.23475136720E+03  0.00000000000E+00 0. -1.
        -14    1    4    4    0    0  0.39507852170E+02  0.55615672078E+02 -0.12141087806E+03  0.13926440563E+03  0.00000000000E+00 0.  1.
</event>
<event>
12    1  0.1030140E-001  0.2676131E+03  0.7818608E-02  0.1103136E+00
         21   -1    0    0  501  502  0.00000000000E+00  0.00000000000E+00  0.48827188304E+03  0.48827188304E+03  0.00000000000E+00 0.  1.
         21   -1    0    0  502  503 -0.00000000000E+00 -0.00000000000E+00 -0.77568140557E+03  0.77568140557E+03  0.00000000000E+00 0.  1.
         -6    2    1    2    0  503 -0.14477629531E+02 -0.20394179879E+03 -0.71378660313E+03  0.76230444972E+03  0.17266991688E+03 0.  0.
        -24    2    3    3    0    0 -0.57034384346E+02 -0.17190012473E+03 -0.44152908114E+03  0.48484455255E+03  0.85578833603E+02 0.  0.
          6    2    1    2  501    0  0.14477629531E+02  0.20394179879E+03  0.42637708060E+03  0.50164883890E+03  0.16748815975E+03 0.  0.
         24    2    5    5    0    0 -0.26063222484E+02  0.37480212595E+02  0.15870153115E+03  0.18380404952E+03  0.80707463896E+02 0.  0.
          5    1    5    5  501    0  0.40540852015E+02  0.16646158620E+03  0.26767554944E+03  0.31784478937E+03  0.47000000000E+01 0. -1.
        -13    1    6    6    0    0 -0.23208996241E+02  0.46413622958E+02  0.16469314867E+03  0.17267517228E+03  0.00000000000E+00 0.  1.
         14    1    6    6    0    0 -0.28542262433E+01 -0.89334103630E+01 -0.59916175202E+01  0.11128877242E+02  0.00000000000E+00 0. -1.
         -5    1    3    3    0  503  0.42556754815E+02 -0.32041674061E+02 -0.27225752199E+03  0.27745989717E+03  0.47000000000E+01 0.  1.
         13    1    4    4    0    0  0.71028487755E+00 -0.96917147404E+02 -0.15228525493E+03  0.18051104353E+03  0.00000000000E+00 0. -1.
        -14    1    4    4    0    0 -0.57744669224E+02 -0.74982977329E+02 -0.28924382621E+03  0.30433350902E+03  0.00000000000E+00 0.  1.
</event>
<event>
12    1  0.1030140E-001  0.1880263E+03  0.7818608E-02  0.1160367E+00
         21   -1    0    0  501  502  0.00000000000E+00  0.00000000000E+00  0.71041181612E+02  0.71041181612E+02  0.00000000000E+00 0. -1.
         21   -1    0    0  502  503 -0.00000000000E+00 -0.00000000000E+00 -0.51479130498E+03  0.51479130498E+03  0.00000000000E+00 0. -1.
         -6    2    1    2    0  503 -0.24989232918E+02  0.72161814062E+02 -0.27761376099E+03  0.33529580910E+03  0.17181993521E+03 0.  0.
        -24    2    3    3    0    0 -0.66458208137E+02  0.72321694488E+02 -0.26103497931E+03  0.29038871089E+03  0.80865456566E+02 0.  0.
          6    2    1    2  501    0  0.24989232918E+02 -0.72161814062E+02 -0.16613636237E+03  0.25053667749E+03  0.17127622922E+03 0.  0.
         24    2    5    5    0    0 -0.66716623462E+01 -0.83938697564E+02 -0.48142785780E+02  0.12771289563E+03  0.83082127204E+02 0.  0.
          5    1    5    5  501    0  0.31660895264E+02  0.11776883503E+02 -0.11799357659E+03  0.12282378186E+03  0.47000000000E+01 0. -1.
        -11    1    6    6    0    0 -0.31604598526E+02 -0.15995092018E+01 -0.72867688127E+01  0.32473159339E+02  0.00000000000E+00 0.  1.
         12    1    6    6    0    0  0.24932936180E+02 -0.82339188363E+02 -0.40856016968E+02  0.95239736293E+02  0.00000000000E+00 0. -1.
         -5    1    3    3    0  503  0.41468975219E+02 -0.15988042676E+00 -0.16578781686E+02  0.44907098210E+02  0.47000000000E+01 0.  1.
         11    1    4    4    0    0  0.17937404082E+01  0.53991968242E+02 -0.14236096769E+03  0.15226619868E+03  0.00000000000E+00 0. -1.
        -12    1    4    4    0    0 -0.68251948545E+02  0.18329726247E+02 -0.11867401162E+03  0.13812251221E+03  0.00000000000E+00 0.  1.
</event>
<event>
12    1  0.1030140E-001  0.3092243E+03  0.7818608E-02  0.1081607E+00
         21   -1    0    0  501  502  0.00000000000E+00  0.00000000000E+00  0.15649908359E+04  0.15649908359E+04  0.00000000000E+00 0. -1.
         21   -1    0    0  502  503 -0.00000000000E+00 -0.00000000000E+00 -0.81859729545E+02  0.81859729545E+02  0.00000000000E+00 0.  1.
         -6    2    1    2    0  503 -0.24777393276E+02 -0.24683505200E+03  0.30637467638E+03  0.43014380437E+03  0.17209528756E+03 0.  0.
        -24    2    3    3    0    0 -0.44089692627E+02 -0.21677631131E+03  0.31472121137E+03  0.39315397544E+03  0.81146394746E+02 0.  0.
          6    2    1    2  501    0  0.24777393276E+02  0.24683505200E+03  0.11767564300E+04  0.12167067611E+04  0.18460277584E+03 0.  0.
         24    2    5    5    0    0  0.81443837920E+02  0.20749205654E+03  0.97721416664E+03  0.10055239917E+04  0.80280247043E+02 0.  0.
          5    1    5    5  501    0 -0.56666444644E+02  0.39342995455E+02  0.19954226336E+03  0.21118276944E+03  0.47000000000E+01 0. -1.
        -11    1    6    6    0    0  0.22234368984E+01 -0.17339143851E+01 -0.20574767478E+00  0.28270944169E+01  0.00000000000E+00 0.  1.
         12    1    6    6    0    0  0.79220401021E+02  0.20922597093E+03  0.97741991431E+03  0.10026968972E+04  0.00000000000E+00 0. -1.
         -5    1    3    3    0  503  0.19312299351E+02 -0.30058740688E+02 -0.83465349865E+01  0.36989828929E+02  0.47000000000E+01 0.  1.
         13    1    4    4    0    0 -0.53242131765E+02 -0.17515955011E+03  0.20183882867E+03  0.27249679878E+03  0.00000000000E+00 0. -1.
        -14    1    4    4    0    0  0.91524391384E+01 -0.41616761199E+02  0.11288238270E+03  0.12065717666E+03  0.00000000000E+00 0.  1.
</event>
<event>
12    1  0.1030140E-001  0.2093947E+03  0.7818608E-02  0.1142206E+00
         21   -1    0    0  501  502  0.00000000000E+00  0.00000000000E+00  0.27954442919E+02  0.27954442919E+02  0.00000000000E+00 0.  1.
         21   -1    0    0  502  503 -0.00000000000E+00 -0.00000000000E+00 -0.17172411811E+04  0.17172411811E+04  0.00000000000E+00 0.  1.
         -6    2    1    2    0  503 -0.92660566986E+02 -0.70175291225E+02 -0.58415346547E+03  0.62054926779E+03  0.17417109506E+03 0.  0.
        -24    2    3    3    0    0 -0.55002244963E+02  0.30438309596E+02 -0.25731237829E+03  0.27647306669E+03  0.79220950159E+02 0.  0.
          6    2    1    2  501    0  0.92660566986E+02  0.70175291225E+02 -0.11051332727E+04  0.11246463562E+04  0.17320312920E+03 0.  0.
         24    2    5    5    0    0  0.99629334106E+02 -0.11414808327E+02 -0.67687256637E+03  0.68860182794E+03  0.77199120930E+02 0.  0.
          5    1    5    5  501    0 -0.69687671202E+01  0.81590099552E+02 -0.42826070632E+03  0.43604452827E+03  0.47000000000E+01 0. -1.
        -13    1    6    6    0    0  0.55748884372E+02 -0.25945939043E+02 -0.55260605511E+03  0.55601671019E+03  0.00000000000E+00 0.  1.
         14    1    6    6    0    0  0.43880449734E+02  0.14531130716E+02 -0.12426651126E+03  0.13258511775E+03  0.00000000000E+00 0. -1.
         -5    1    3    3    0  503 -0.37658322023E+02 -0.10061360082E+03 -0.32684108718E+03  0.34407620109E+03  0.47000000000E+01 0.  1.
         13    1    4    4    0    0  0.11778520718E+01  0.36225048069E+02 -0.15913400641E+03  0.16320929336E+03  0.00000000000E+00 0. -1.
        -14    1    4    4    0    0 -0.56180097035E+02 -0.57867384723E+01 -0.98178371882E+02  0.11326377334E+03  0.00000000000E+00 0.  1.
</event>
<event>
12    1  0.1030140E-001  0.1798589E+03  0.7818608E-02  0.1168253E+00
         21   -1    0    0  503  502  0.00000000000E+00  0.00000000000E+00  0.44518200269E+03  0.44518200269E+03  0.00000000000E+00 0. -1.
         21   -1    0    0  501  503 -0.00000000000E+00 -0.00000000000E+00 -0.75624496860E+02  0.75624496860E+02  0.00000000000E+00 0. -1.
          6    2    1    2  501    0 -0.53310660100E+02  0.79822323713E+01  0.24126138108E+03  0.30092569010E+03  0.17159100923E+03 0.  0.
         24    2    3    3    0    0 -0.14204807300E+02  0.64173632294E+02  0.10182035322E+03  0.14551452126E+03  0.80542286640E+02 0.  0.
         -6    2    1    2    0  502  0.53310660100E+02 -0.79822323713E+01  0.12829612475E+03  0.21988080944E+03  0.17024080657E+03 0.  0.
        -24    2    5    5    0    0  0.45493117562E+02  0.99483755588E+00  0.16043224916E+03  0.18529002674E+03  0.80766787690E+02 0.  0.
          5    1    3    3  501    0 -0.39105852800E+02 -0.56191399922E+02  0.13944102786E+03  0.15541116884E+03  0.47000000000E+01 0. -1.
        -13    1    4    4    0    0  0.23323230030E+02 -0.33262817418E+01  0.40690179905E+02  0.47018378853E+02  0.00000000000E+00 0.  1.
         14    1    4    4    0    0 -0.37528037330E+02  0.67499914035E+02  0.61130173314E+02  0.98496142412E+02  0.00000000000E+00 0. -1.
         -5    1    5    5    0  502  0.78175425380E+01 -0.89770699272E+01 -0.32136124410E+02  0.34590782701E+02  0.47000000000E+01 0.  1.
         13    1    6    6    0    0  0.33213881738E+02  0.35471731305E+02  0.53532556016E+02  0.72298964139E+02  0.00000000000E+00 0. -1.
        -14    1    6    6    0    0  0.12279235824E+02 -0.34476893749E+02  0.10689969314E+03  0.11299106260E+03  0.00000000000E+00 0.  1.
</event>
<event>
12    1  0.1030140E-001  0.1815044E+03  0.7818608E-02  0.1166525E+00
         21   -1    0    0  501  502  0.00000000000E+00  0.00000000000E+00  0.65570213186E+03  0.65570213186E+03  0.00000000000E+00 0.  1.
         21   -1    0    0  502  503 -0.00000000000E+00 -0.00000000000E+00 -0.51680570542E+02  0.51680570542E+02  0.00000000000E+00 0.  1.
         -6    2    1    2    0  503 -0.44624929937E+02 -0.35778249665E+02  0.23968315763E+03  0.30065239740E+03  0.17225672843E+03 0.  0.
        -24    2    3    3    0    0  0.35693283823E+02 -0.45668969686E+02  0.11730898115E+03  0.15386557622E+03  0.80954018946E+02 0.  0.
          6    2    1    2  501    0  0.44624929937E+02  0.35778249665E+02  0.36433840369E+03  0.40673030500E+03  0.17150976965E+03 0.  0.
         24    2    5    5    0    0  0.37128618189E+02 -0.73242914127E+01  0.34948648626E+03  0.36029009410E+03  0.78968147353E+02 0.  0.
          5    1    5    5  501    0  0.74963117483E+01  0.43102541077E+02  0.14851917427E+02  0.46440210900E+02  0.47000000000E+01 0. -1.
        -11    1    6    6    0    0  0.50854989354E+02 -0.27333502151E+02  0.17887496843E+03  0.18796171050E+03  0.00000000000E+00 0.  1.
         12    1    6    6    0    0 -0.13726371165E+02  0.20009210738E+02  0.17061151783E+03  0.17232838360E+03  0.00000000000E+00 0. -1.
         -5    1    3    3    0  503 -0.80318213760E+02  0.98907200214E+01  0.12237417648E+03  0.14678682118E+03  0.47000000000E+01 0.  1.
         11    1    4    4    0    0  0.33866372146E+01 -0.11640153960E+02 -0.11541007177E+02  0.16737901377E+02  0.00000000000E+00 0. -1.
        -12    1    4    4    0    0  0.32306646608E+02 -0.34028815727E+02  0.12884998833E+03  0.13712767484E+03  0.00000000000E+00 0.  1.
</event>
<event>
12    1  0.1030140E-001  0.2373993E+03  0.7818608E-02  0.1121594E+00
         21   -1    0    0  503  502  0.00000000000E+00  0.00000000000E+00  0.13647900981E+03  0.13647900981E+03  0.00000000000E+00 0. -1.
         21   -1    0    0  501  503 -0.00000000000E+00 -0.00000000000E+00 -0.45770723089E+03  0.45770723089E+03  0.00000000000E+00 0.  1.
          6    2    1    2  501    0  0.16081450244E+03  0.28559033703E+02 -0.25421901451E+03  0.34783000673E+03  0.17228314963E+03 0.  0.
         24    2    3    3    0    0  0.17133346366E+03  0.59327460019E+02 -0.24184598526E+03  0.31272265058E+03  0.80193966854E+02 0.  0.
         -6    2    1    2    0  502 -0.16081450244E+03 -0.28559033703E+02 -0.67009206567E+02  0.24635623396E+03  0.17182618440E+03 0.  0.
        -24    2    5    5    0    0 -0.21706507697E+02 -0.39864966735E+02 -0.50141668015E+02  0.10569542855E+03  0.81221602394E+02 0.  0.
          5    1    3    3  501    0 -0.10518961219E+02 -0.30768426316E+02 -0.12373029250E+02  0.35107356150E+02  0.47000000000E+01 0. -1.
        -13    1    4    4    0    0  0.73989547056E+01  0.23413827102E+01 -0.63116552236E+02  0.63591868740E+02  0.00000000000E+00 0.  1.
         14    1    4    4    0    0  0.16393450895E+03  0.56986077309E+02 -0.17872943303E+03  0.24913078184E+03  0.00000000000E+00 0. -1.
         -5    1    5    5    0  502 -0.13910799474E+03  0.11305933032E+02 -0.16867538552E+02  0.14066080541E+03  0.47000000000E+01 0.  1.
         11    1    6    6    0    0 -0.39827809621E+02  0.82453519257E+01 -0.14676450567E+02  0.43239316008E+02  0.00000000000E+00 0. -1.
        -12    1    6    6    0    0  0.18121301923E+02 -0.48110318660E+02 -0.35465217447E+02  0.62456112540E+02  0.00000000000E+00 0.  1.
</event>
<event>
12    1  0.1030140E-001  0.2597993E+03  0.7818608E-02  0.1107298E+00
         21   -1    0    0  501  502  0.00000000000E+00  0.00000000000E+00  0.11833162625E+04  0.11833162625E+04  0.00000000000E+00 0.  1.
         21   -1    0    0  502  503 -0.00000000000E+00 -0.00000000000E+00 -0.57147115879E+02  0.57147115879E+02  0.00000000000E+00 0. -1.
         -6    2    1    2    0  503 -0.21713087658E+02 -0.19361041870E+03  0.53070249600E+03  0.59088140886E+03  0.17186985677E+03 0.  0.
        -24    2    3    3    0    0 -0.39181482899E+02 -0.16793517972E+03  0.28129705174E+03  0.33950613491E+03  0.79993569294E+02 0.  0.
          6    2    1    2  501    0  0.21713087658E+02  0.19361041870E+03  0.59546665067E+03  0.64958196957E+03  0.17152186661E+03 0.  0.
         24    2    5    5    0    0  0.72281477610E+02  0.11487766732E+03  0.29614844362E+03  0.33594286602E+03  0.82050095184E+02 0.  0.
          5    1    5    5  501    0 -0.50568389952E+02  0.78732751387E+02  0.29931820705E+03  0.31363910354E+03  0.47000000000E+01 0. -1.
        -11    1    6    6    0    0  0.74281444104E+01  0.68392724392E+02  0.19704839349E+03  0.20871226954E+03  0.00000000000E+00 0.  1.
         12    1    6    6    0    0  0.64853333199E+02  0.46484942925E+02  0.99100050126E+02  0.12723059648E+03  0.00000000000E+00 0. -1.
         -5    1    3    3    0  503  0.17468395241E+02 -0.25675238982E+02  0.24940544426E+03  0.25137527395E+03  0.47000000000E+01 0.  1.
         11    1    4    4    0    0 -0.31233839816E+02 -0.17023415958E+02  0.31295194505E+02  0.47378672835E+02  0.00000000000E+00 0. -1.
        -12    1    4    4    0    0 -0.79476430834E+01 -0.15091176376E+03  0.25000185724E+03  0.29212746207E+03  0.00000000000E+00 0.  1.
</event>
<event>
12    1  0.1030140E-001  0.2310434E+03  0.7818608E-02  0.1126442E+00
         21   -1    0    0  503  502  0.00000000000E+00  0.00000000000E+00  0.36111301455E+03  0.36111301455E+03  0.00000000000E+00 0.  1.
         21   -1    0    0  501  503 -0.00000000000E+00 -0.00000000000E+00 -0.25234376217E+03  0.25234376217E+03  0.00000000000E+00 0.  1.
          6    2    1    2  501    0  0.25779145485E+02  0.14813165596E+03 -0.14504322471E+03  0.27023408935E+03  0.17140995937E+03 0.  0.
         24    2    3    3    0    0  0.19082462307E+02  0.17440854955E+03 -0.99644462659E+02  0.21714493511E+03  0.80252235999E+02 0.  0.
         -6    2    1    2    0  502 -0.25779145485E+02 -0.14813165596E+03  0.25381247710E+03  0.34322268737E+03  0.17542373772E+03 0.  0.
        -24    2    5    5    0    0  0.13109985772E+01 -0.56491177135E+02  0.34074756958E+02  0.10355915465E+03  0.79815021384E+02 0.  0.
          5    1    3    3  501    0  0.66966831777E+01 -0.26276893582E+02 -0.45398762050E+02  0.53089154237E+02  0.47000000000E+01 0. -1.
        -11    1    4    4    0    0 -0.23987858787E+02  0.10998168937E+03 -0.77082751496E+02  0.13642998184E+03  0.00000000000E+00 0.  1.
         12    1    4    4    0    0  0.43070321094E+02  0.64426860173E+02 -0.22561711163E+02  0.80714953270E+02  0.00000000000E+00 0. -1.
         -5    1    5    5    0  502 -0.27090144062E+02 -0.91640478828E+02  0.21973772014E+03  0.23966353272E+03  0.47000000000E+01 0.  1.
         13    1    6    6    0    0 -0.31054747190E+02 -0.15554229682E+02  0.37683954442E+02  0.51248529798E+02  0.00000000000E+00 0. -1.
        -14    1    6    6    0    0  0.32365745768E+02 -0.40936947453E+02 -0.36091974842E+01  0.52310624852E+02  0.00000000000E+00 0.  1.
</event>
<event>
12    1  0.1030140E-001  0.1858712E+03  0.7818608E-02  0.1162255E+00
         21   -1    0    0  501  502  0.00000000000E+00  0.00000000000E+00  0.40617212690E+03  0.40617212690E+03  0.00000000000E+00 0.  1.
         21   -1    0    0  502  503 -0.00000000000E+00 -0.00000000000E+00 -0.10862563087E+03  0.10862563087E+03  0.00000000000E+00 0.  1.
         -6    2    1    2    0  503  0.48056433353E+02 -0.51547040454E+02  0.28776877652E+02  0.18801770556E+03  0.17191867482E+03 0.  0.
        -24    2    3    3    0    0 -0.13739534096E+02 -0.15250628221E+02 -0.37469268659E+02  0.90309911427E+02  0.79564926631E+02 0.  0.
          6    2    1    2  501    0 -0.48056433353E+02  0.51547040454E+02  0.26876961837E+03  0.32678005221E+03  0.17199295508E+03 0.  0.
         24    2    5    5    0    0 -0.61502565089E+02  0.18228334472E+02  0.64935014930E+02  0.11974969167E+03  0.77515126266E+02 0.  0.
          5    1    5    5  501    0  0.13446131736E+02  0.33318705982E+02  0.20383460344E+03  0.20703036055E+03  0.47000000000E+01 0. -1.
        -13    1    6    6    0    0 -0.55937136190E+02  0.12151699518E+02  0.82462010766E+02  0.10038232028E+03  0.00000000000E+00 0.  1.
         14    1    6    6    0    0 -0.55654288995E+01  0.60766349541E+01 -0.17526995835E+02  0.19367371381E+02  0.00000000000E+00 0. -1.
         -5    1    3    3    0  503  0.61795967449E+02 -0.36296412233E+02  0.66246146311E+02  0.97707794136E+02  0.47000000000E+01 0.  1.
         11    1    4    4    0    0 -0.30697070368E+02 -0.40531687666E+02 -0.29736641145E+02  0.58901576047E+02  0.00000000000E+00 0. -1.
        -12    1    4    4    0    0  0.16957536272E+02  0.25281059445E+02 -0.77326275138E+01  0.31408335380E+02  0.00000000000E+00 0.  1.
</event>
<event>
12    1  0.1030140E-001  0.1898545E+03  0.7818608E-02  0.1158648E+00
         21   -1    0    0  503  502  0.00000000000E+00  0.00000000000E+00  0.18676637317E+03  0.18676637317E+03  0.00000000000E+00 0. -1.
         21   -1    0    0  501  503 -0.00000000000E+00 -0.00000000000E+00 -0.41252959435E+03  0.41252959435E+03  0.00000000000E+00 0. -1.
          6    2    1    2  501    0  0.54005266686E+02 -0.59994091415E+02 -0.33163302161E+03  0.38213240850E+03  0.17183962515E+03 0.  0.
         24    2    3    3    0    0  0.30258154905E+02  0.32823359597E+02 -0.12877233538E+03  0.15773643584E+03  0.79407430119E+02 0.  0.
         -6    2    1    2    0  502 -0.54005266686E+02  0.59994091415E+02  0.10586980044E+03  0.21716355902E+03  0.17156846122E+03 0.  0.
        -24    2    5    5    0    0 -0.33765214310E+01 -0.30848577223E+02  0.51716225036E+02  0.99816381719E+02  0.79534310294E+02 0.  0.
          5    1    3    3  501    0  0.23747111780E+02 -0.92817451012E+02 -0.20286068623E+03  0.22439597267E+03  0.47000000000E+01 0. -1.
        -13    1    4    4    0    0  0.53243256186E+02  0.14975644815E+02 -0.10995382344E+03  0.12308110154E+03  0.00000000000E+00 0.  1.
         14    1    4    4    0    0 -0.22985101280E+02  0.17847714782E+02 -0.18818511942E+02  0.34655334301E+02  0.00000000000E+00 0. -1.
         -5    1    5    5    0  502 -0.50628745255E+02  0.90842668639E+02  0.54153575401E+02  0.11734717730E+03  0.47000000000E+01 0.  1.
         11    1    6    6    0    0  0.15813528313E+02  0.15255104720E+02  0.44140624912E+02  0.49307004222E+02  0.00000000000E+00 0. -1.
        -12    1    6    6    0    0 -0.19190049744E+02 -0.46103681943E+02  0.75756001233E+01  0.50509377497E+02  0.00000000000E+00 0.  1.
</event>
<event>
12    1  0.1030140E-001  0.1812773E+03  0.7818608E-02  0.1166942E+00
         21   -1    0    0  501  502  0.00000000000E+00  0.00000000000E+00  0.48698406735E+03  0.48698406735E+03  0.00000000000E+00 0.  1.
         21   -1    0    0  502  503 -0.00000000000E+00 -0.00000000000E+00 -0.81895694048E+02  0.81895694048E+02  0.00000000000E+00 0.  1.
         -6    2    1    2    0  503  0.39894240577E+02  0.30476011594E+02  0.81574964551E+02  0.19878611456E+03  0.17418698799E+03 0.  0.
        -24    2    3    3    0    0 -0.39937762084E+02  0.40948541214E+01  0.73697351670E+02  0.11420916200E+03  0.77463800397E+02 0.  0.
          6    2    1    2  501    0 -0.39894240577E+02 -0.30476011594E+02  0.32351340875E+03  0.37009364684E+03  0.17259213214E+03 0.  0.
         24    2    5    5    0    0  0.12576802689E+02 -0.70851640523E+01  0.29757373244E+03  0.30688526973E+03  0.73621104466E+02 0.  0.
          5    1    5    5  501    0 -0.52471043265E+02 -0.23390847541E+02  0.25939676311E+02  0.63208377112E+02  0.47000000000E+01 0. -1.
        -11    1    6    6    0    0  0.16115041934E+02  0.15447626594E+02  0.25637654893E+02  0.33994309705E+02  0.00000000000E+00 0.  1.
         12    1    6    6    0    0 -0.35382392450E+01 -0.22532790646E+02  0.27193607754E+03  0.27289096002E+03  0.00000000000E+00 0. -1.
         -5    1    3    3    0  503  0.79832002660E+02  0.26381157472E+02  0.78776128818E+01  0.84576952553E+02  0.47000000000E+01 0.  1.
         11    1    4    4    0    0  0.89907468435E+01 -0.13751281777E+02 -0.72471091772E+01  0.17956944917E+02  0.00000000000E+00 0. -1.
        -12    1    4    4    0    0 -0.48928508927E+02  0.17846135899E+02  0.80944460847E+02  0.96252217087E+02  0.00000000000E+00 0.  1.
</event>
<event>
12    1  0.1030140E-001  0.1917085E+03  0.7818608E-02  0.1157287E+00
         21   -1    0    0  503  502  0.00000000000E+00  0.00000000000E+00  0.78748900813E+02  0.78748900813E+02  0.00000000000E+00 0.  1.
         21   -1    0    0  501  503 -0.00000000000E+00 -0.00000000000E+00 -0.54206086899E+03  0.54206086899E+03  0.00000000000E+00 0.  1.
          6    2    1    2  501    0  0.78167889055E+02  0.26014618730E+02 -0.35115912757E+03  0.40008110327E+03  0.17310452637E+03 0.  0.
         24    2    3    3    0    0  0.51562600033E+02  0.44352838949E+02 -0.35216151552E+03  0.36741267040E+03  0.79677232076E+02 0.  0.
         -6    2    1    2    0  502 -0.78167889055E+02 -0.26014618730E+02 -0.11215284060E+03  0.22072866653E+03  0.17133565101E+03 0.  0.
        -24    2    5    5    0    0  0.16642591104E+01 -0.61015367949E+02 -0.67453906954E+02  0.12265568862E+03  0.82272373881E+02 0.  0.
          5    1    3    3  501    0  0.26605289022E+02 -0.18338220219E+02  0.10023879459E+01  0.32668432872E+02  0.47000000000E+01 0. -1.
        -11    1    4    4    0    0 -0.10179457508E+02  0.30996580011E+02 -0.58013977445E+02  0.66558477345E+02  0.00000000000E+00 0.  1.
         12    1    4    4    0    0  0.61742057541E+02  0.13356258938E+02 -0.29414753807E+03  0.30085419305E+03  0.00000000000E+00 0. -1.
         -5    1    5    5    0  502 -0.79832148165E+02  0.35000749220E+02 -0.44698933650E+02  0.98072977910E+02  0.47000000000E+01 0.  1.
         11    1    6    6    0    0 -0.25728917014E+02  0.22180647393E+01 -0.41779424337E+02  0.49116364685E+02  0.00000000000E+00 0. -1.
        -12    1    6    6    0    0  0.27393176125E+02 -0.63233432689E+02 -0.25674482617E+02  0.73539323939E+02  0.00000000000E+00 0.  1.
</event>
<event>
12    1  0.1030140E-001  0.1907760E+03  0.7818608E-02  0.1158043E+00
         21   -1    0    0  501  502  0.00000000000E+00  0.00000000000E+00  0.21900713658E+03  0.21900713658E+03  0.00000000000E+00 0.  1.
         21   -1    0    0  502  503 -0.00000000000E+00 -0.00000000000E+00 -0.17852034761E+03  0.17852034761E+03  0.00000000000E+00 0.  1.
         -6    2    1    2    0  503 -0.93233097189E+01  0.80509948223E+02  0.74792859277E+02  0.20491327722E+03  0.17270409235E+03 0.  0.
        -24    2    3    3    0    0 -0.29693362326E+02  0.36408091546E+02  0.10883944680E+03  0.14540552203E+03  0.84199143455E+02 0.  0.
          6    2    1    2  501    0  0.93233097189E+01 -0.80509948223E+02 -0.34306070307E+02  0.19261420696E+03  0.17133169700E+03 0.  0.
         24    2    5    5    0    0  0.24900800031E+02 -0.21324080836E+02 -0.78391968072E+02  0.11704118609E+03  0.80489578933E+02 0.  0.
          5    1    5    5  501    0 -0.15577490312E+02 -0.59185867387E+02  0.44085897765E+02  0.75573020877E+02  0.47000000000E+01 0. -1.
        -13    1    6    6    0    0  0.14711913238E+02 -0.44646502331E+01  0.15068349171E+02  0.21527392772E+02  0.00000000000E+00 0.  1.
         14    1    6    6    0    0  0.10188886794E+02 -0.16859430603E+02 -0.93460317243E+02  0.95513793315E+02  0.00000000000E+00 0. -1.
         -5    1    3    3    0  503  0.20370052607E+02  0.44101856677E+02 -0.34046587528E+02  0.59507755191E+02  0.47000000000E+01 0.  1.
         11    1    4    4    0    0 -0.89489593006E+01 -0.27443178829E+02  0.26708538116E+02  0.39326300933E+02  0.00000000000E+00 0. -1.
        -12    1    4    4    0    0 -0.20744403025E+02  0.63851270375E+02  0.82130908689E+02  0.10607922109E+03  0.00000000000E+00 0.  1.
</event>
<event>
12    1  0.1030140E-001  0.2692527E+03  0.7818608E-02  0.1101864E+00
         21   -1    0    0  503  502  0.00000000000E+00  0.00000000000E+00  0.43216924327E+03  0.43216924327E+03  0.00000000000E+00 0. -1.
         21   -1    0    0  501  503 -0.00000000000E+00 -0.00000000000E+00 -0.25366342768E+03  0.25366342768E+03  0.00000000000E+00 0.  1.
          6    2    1    2  501    0  0.18161868715E+02  0.20653975213E+03 -0.11097455957E+03  0.29122561640E+03  0.17178033674E+03 0.  0.
         24    2    3    3    0    0  0.48435818112E+02  0.11784079532E+03 -0.78941634315E+01  0.15182807331E+03  0.82200757362E+02 0.  0.
         -6    2    1    2    0  502 -0.18161868715E+02 -0.20653975213E+03  0.28948037515E+03  0.39460705455E+03  0.17008032578E+03 0.  0.
        -24    2    5    5    0    0 -0.59548796092E+02 -0.95339170193E+02  0.20761145178E+03  0.25037440293E+03  0.83361923215E+02 0.  0.
          5    1    3    3  501    0 -0.30273949397E+02  0.88698956806E+02 -0.10308039614E+03  0.13939754309E+03  0.47000000000E+01 0. -1.
        -11    1    4    4    0    0  0.75860389599E+01 -0.55454232827E+01 -0.19188399807E+02  0.21365729420E+02  0.00000000000E+00 0.  1.
         12    1    4    4    0    0  0.40849779152E+02  0.12338621860E+03  0.11294236376E+02  0.13046234389E+03  0.00000000000E+00 0. -1.
         -5    1    5    5    0  502  0.41386927377E+02 -0.11120058194E+03  0.81868923375E+02  0.14423265163E+03  0.47000000000E+01 0.  1.
         13    1    6    6    0    0 -0.17156895494E+02  0.13489235344E+02  0.21394629577E+02  0.30562210455E+02  0.00000000000E+00 0. -1.
        -14    1    6    6    0    0 -0.42391900597E+02 -0.10882840554E+03  0.18621682220E+03  0.21981219247E+03  0.00000000000E+00 0.  1.
</event>
<event>
12    1  0.1030140E-001  0.1837010E+03  0.7818608E-02  0.1164380E+00
         21   -1    0    0  503  502  0.00000000000E+00  0.00000000000E+00  0.32296252551E+02  0.32296252551E+02  0.00000000000E+00 0.  1.
         21   -1    0    0  501  503 -0.00000000000E+00 -0.00000000000E+00 -0.11146734034E+04  0.11146734034E+04  0.00000000000E+00 0.  1.
          6    2    1    2  501    0 -0.23142691674E+02 -0.59401614460E+02 -0.68807591453E+03  0.71217591883E+03  0.17228447179E+03 0.  0.
         24    2    3    3    0    0  0.51822119305E+02 -0.35859960738E+02 -0.32394832458E+03  0.33963743208E+03  0.80247114825E+02 0.  0.
         -6    2    1    2    0  502  0.23142691674E+02  0.59401614460E+02 -0.39430123634E+03  0.43479373715E+03  0.17177890704E+03 0.  0.
        -24    2    5    5    0    0  0.66882478936E+02  0.60962657630E+02 -0.35704132842E+03  0.37712228335E+03  0.80950569974E+02 0.  0.
          5    1    3    3  501    0 -0.74964810979E+02 -0.23541653722E+02 -0.36412758995E+03  0.37253848675E+03  0.47000000000E+01 0. -1.
        -13    1    4    4    0    0 -0.15727275906E+02 -0.94553986596E+01 -0.19946124302E+02  0.27103498776E+02  0.00000000000E+00 0.  1.
         14    1    4    4    0    0  0.67549395211E+02 -0.26404562078E+02 -0.30400220028E+03  0.31253393330E+03  0.00000000000E+00 0. -1.
         -5    1    5    5    0  502 -0.43739787262E+02 -0.15610431696E+01 -0.37259907917E+02  0.57671453801E+02  0.47000000000E+01 0.  1.
         11    1    6    6    0    0  0.63697863874E+02  0.91854209416E+01 -0.25032757846E+03  0.25846796002E+03  0.00000000000E+00 0. -1.
        -12    1    6    6    0    0  0.31846150628E+01  0.51777236688E+02 -0.10671374996E+03  0.11865432332E+03  0.00000000000E+00 0.  1.
</event>
<event>
12    1  0.1030140E-001  0.1920627E+03  0.7818608E-02  0.1159251E+00
         21   -1    0    0  503  502  0.00000000000E+00  0.00000000000E+00  0.80420576217E+03  0.80420576217E+03  0.00000000000E+00 0.  1.
         21   -1    0    0  501  503 -0.00000000000E+00 -0.00000000000E+00 -0.43497530802E+02  0.43497530802E+02  0.00000000000E+00 0.  1.
          6    2    1    2  501    0 -0.68557556085E+01  0.79283101761E+02  0.42880963219E+03  0.46985719390E+03  0.17480065901E+03 0.  0.
         24    2    3    3    0    0 -0.70635849806E+02  0.43247572324E+02  0.21575105474E+03  0.24450744967E+03  0.79847351460E+02 0.  0.
         -6    2    1    2    0  502  0.68557556085E+01 -0.79283101761E+02  0.33189859917E+03  0.37784609907E+03  0.16210546825E+03 0.  0.
        -24    2    5    5    0    0  0.18122534838E+02 -0.62459452976E+02  0.34025807630E+03  0.35544194029E+03  0.79585205245E+02 0.  0.
          5    1    3    3  501    0  0.63780094198E+02  0.36035529436E+02  0.21305857746E+03  0.22534974423E+03  0.47000000000E+01 0. -1.
        -11    1    4    4    0    0  0.16741189406E+02  0.16313908187E+02  0.37882888420E+02  0.44514315204E+02  0.00000000000E+00 0.  1.
         12    1    4    4    0    0 -0.87377039212E+02  0.26933664137E+02  0.17786816632E+03  0.19999313447E+03  0.00000000000E+00 0. -1.
         -5    1    5    5    0  502 -0.11266779230E+02 -0.16823648785E+02 -0.83594771276E+01  0.22404158777E+02  0.47000000000E+01 0.  1.
         13    1    6    6    0    0 -0.11847054860E+02 -0.39600323150E+02  0.61207651195E+02  0.73857395481E+02  0.00000000000E+00 0. -1.
        -14    1    6    6    0    0  0.29969589698E+02 -0.22859129825E+02  0.27905042511E+03  0.28158454481E+03  0.00000000000E+00 0.  1.
</event>
<event>
12    1  0.1030140E-001  0.3122422E+03  0.7818608E-02  0.1079329E+00
         21   -1    0    0  501  502  0.00000000000E+00  0.00000000000E+00  0.14138847348E+03  0.14138847348E+03  0.00000000000E+00 0.  1.
         21   -1    0    0  502  503 -0.00000000000E+00 -0.00000000000E+00 -0.13033524350E+04  0.13033524350E+04  0.00000000000E+00 0. -1.
         -6    2    1    2    0  503 -0.24998739464E+03 -0.73435605849E+02 -0.10773187255E+04  0.11216553962E+04  0.17207180422E+03 0.  0.
        -24    2    3    3    0    0 -0.93298939808E+02 -0.56751401463E+02 -0.29933727806E+03  0.32786269208E+03  0.77238106390E+02 0.  0.
          6    2    1    2  501    0  0.24998739464E+03  0.73435605849E+02 -0.84645236010E+02  0.32308551228E+03  0.17126863864E+03 0.  0.
         24    2    5    5    0    0  0.16174651981E+03  0.10918001391E+03 -0.28316651503E+02  0.21236462838E+03  0.78833308492E+02 0.  0.
          5    1    5    5  501    0  0.88240874828E+02 -0.35744408061E+02 -0.56328584508E+02  0.11072088390E+03  0.47000000000E+01 0. -1.
        -13    1    6    6    0    0  0.23479431401E+02 -0.95613235588E+01 -0.15375222976E+02  0.29649622067E+02  0.00000000000E+00 0.  1.
         14    1    6    6    0    0  0.13826708841E+03  0.11874133747E+03 -0.12941428527E+02  0.18271500631E+03  0.00000000000E+00 0. -1.
         -5    1    3    3    0  503 -0.15668845483E+03 -0.16684204385E+02 -0.77798144745E+03  0.79379270413E+03  0.47000000000E+01 0.  1.
         13    1    4    4    0    0 -0.64264091093E+00  0.56506678096E+01 -0.93441146595E+02  0.93614052957E+02  0.00000000000E+00 0. -1.
        -14    1    4    4    0    0 -0.92656298897E+02 -0.62402069273E+02 -0.20589613147E+03  0.23424863912E+03  0.00000000000E+00 0.  1.
</event>
<event>
12    1  0.1030140E-001  0.1753849E+03  0.7818608E-02  0.1172353E+00
         21   -1    0    0  503  502  0.00000000000E+00  0.00000000000E+00  0.16685140791E+03  0.16685140791E+03  0.00000000000E+00 0. -1.
         21   -1    0    0  501  503 -0.00000000000E+00 -0.00000000000E+00 -0.19113101535E+03  0.19113101535E+03  0.00000000000E+00 0.  1.
          6    2    1    2  501    0 -0.15626159693E+02 -0.27686249170E+02 -0.45913052101E+02  0.18129494567E+03  0.17247940084E+03 0.  0.
         24    2    3    3    0    0  0.28734088998E+02  0.16056347598E+02 -0.73437626634E+02  0.11302387831E+03  0.79359044182E+02 0.  0.
         -6    2    1    2    0  502  0.15626159693E+02  0.27686249170E+02  0.21633444660E+02  0.17668747759E+03  0.17245217758E+03 0.  0.
        -24    2    5    5    0    0  0.44063487398E+02 -0.39724271682E+02  0.28385352141E+02  0.10306317330E+03  0.79351627528E+02 0.  0.
          5    1    3    3  501    0 -0.44360248690E+02 -0.43742596768E+02  0.27524574533E+02  0.68271067365E+02  0.47000000000E+01 0. -1.
        -11    1    4    4    0    0  0.85847820311E+01 -0.29882348700E+02 -0.46910803413E+02  0.56278563621E+02  0.00000000000E+00 0.  1.
         12    1    4    4    0    0  0.20149306967E+02  0.45938696298E+02 -0.26526823221E+02  0.56745314687E+02  0.00000000000E+00 0. -1.
         -5    1    5    5    0  502 -0.28437327706E+02  0.67410520852E+02 -0.67519074818E+01  0.73624304297E+02  0.47000000000E+01 0.  1.
         11    1    6    6    0    0  0.33771787923E+02 -0.18161738807E+02  0.55159427246E+02  0.67178455103E+02  0.00000000000E+00 0. -1.
        -12    1    6    6    0    0  0.10291699475E+02 -0.21562532875E+02 -0.26774075104E+02  0.35884718193E+02  0.00000000000E+00 0.  1.
</event>
<event>
12    1  0.1030140E-001  0.2112557E+03  0.7818608E-02  0.1140691E+00
         21   -1    0    0  501  502  0.00000000000E+00  0.00000000000E+00  0.18905041589E+03  0.18905041589E+03  0.00000000000E+00 0. -1.
         21   -1    0    0  502  503 -0.00000000000E+00 -0.00000000000E+00 -0.26831776741E+03  0.26831776741E+03  0.00000000000E+00 0.  1.
         -6    2    1    2    0  503  0.91062222178E+02 -0.82606713228E+02 -0.11966565796E+03  0.24228451385E+03  0.17107226127E+03 0.  0.
        -24    2    3    3    0    0  0.97550386221E+02 -0.28491013937E+02 -0.13375000211E+03  0.18579501100E+03  0.79390851605E+02 0.  0.
          6    2    1    2  501    0 -0.91062222178E+02  0.82606713228E+02  0.40398306437E+02  0.21508366946E+03  0.17179279474E+03 0.  0.
         24    2    5    5    0    0 -0.35408618485E+02 -0.14494854482E+02 -0.23139715493E+01  0.95198446237E+02  0.87140797748E+02 0.  0.
          5    1    5    5  501    0 -0.55653603693E+02  0.97101567710E+02  0.42712277986E+02  0.11988522322E+03  0.47000000000E+01 0. -1.
        -11    1    6    6    0    0  0.16981919807E+02 -0.33332591839E+02  0.87890917328E+01  0.38427794792E+02  0.00000000000E+00 0.  1.
         12    1    6    6    0    0 -0.52390538292E+02  0.18837737358E+02 -0.11103063282E+02  0.56770651445E+02  0.00000000000E+00 0. -1.
         -5    1    3    3    0  503 -0.64881640433E+01 -0.54115699290E+02  0.14084344153E+02  0.56489502853E+02  0.47000000000E+01 0.  1.
         11    1    4    4    0    0  0.10789452906E+02  0.69355688112E+01  0.85449615947E+01  0.15412033525E+02  0.00000000000E+00 0. -1.
        -12    1    4    4    0    0  0.86760933316E+02 -0.35426582749E+02 -0.14229496371E+03  0.17038297747E+03  0.00000000000E+00 0.  1.
</event>
<event>
12    1  0.1030140E-001  0.2077386E+03  0.7818608E-02  0.1143453E+00
         21   -1    0    0  503  502  0.00000000000E+00  0.00000000000E+00  0.19031762338E+03  0.19031762338E+03  0.00000000000E+00 0. -1.
         21   -1    0    0  501  503 -0.00000000000E+00 -0.00000000000E+00 -0.22860160269E+03  0.22860160269E+03  0.00000000000E+00 0.  1.
          6    2    1    2  501    0 -0.75031780678E+02 -0.89283206303E+02  0.18640462344E+01  0.20774697894E+03  0.17191298250E+03 0.  0.
         24    2    3    3    0    0 -0.10750313123E+03 -0.30880185320E+02  0.17972794996E+02  0.13884935015E+03  0.80284566432E+02 0.  0.
         -6    2    1    2    0  502  0.75031780678E+02  0.89283206303E+02 -0.40148025540E+02  0.21117224713E+03  0.17140768642E+03 0.  0.
        -24    2    5    5    0    0  0.35838010581E+02  0.27323143733E+02 -0.86277142119E+02  0.12442441508E+03  0.77503371735E+02 0.  0.
          5    1    3    3  501    0  0.32471350550E+02 -0.58403020982E+02 -0.16108748761E+02  0.68897628791E+02  0.47000000000E+01 0. -1.
        -13    1    4    4    0    0 -0.67247848880E+01 -0.15129987380E+02 -0.23493131177E+02  0.28741371964E+02  0.00000000000E+00 0.  1.
         14    1    4    4    0    0 -0.10077834634E+03 -0.15750197941E+02  0.41465926173E+02  0.11010797818E+03  0.00000000000E+00 0. -1.
         -5    1    5    5    0  502  0.39193770098E+02  0.61960062569E+02  0.46129116579E+02  0.86747832045E+02  0.47000000000E+01 0.  1.
         11    1    6    6    0    0 -0.15571153497E+02  0.29847436818E+02 -0.15892581952E+02  0.37227737870E+02  0.00000000000E+00 0. -1.
        -12    1    6    6    0    0  0.51409164078E+02 -0.25242930847E+01 -0.70384560167E+02  0.87196677211E+02  0.00000000000E+00 0.  1.
</event>
<event>
12    1  0.1030140E-001  0.1786491E+03  0.7818608E-02  0.1169307E+00
         21   -1    0    0  501  502  0.00000000000E+00  0.00000000000E+00  0.39678778292E+03  0.39678778292E+03  0.00000000000E+00 0. -1.
         21   -1    0    0  502  503 -0.00000000000E+00 -0.00000000000E+00 -0.12143535351E+03  0.12143535351E+03  0.00000000000E+00 0. -1.
         -6    2    1    2    0  503 -0.34140038439E+02 -0.34522870552E+02 -0.13325122932E+02  0.17914537402E+03  0.17192479552E+03 0.  0.
        -24    2    3    3    0    0 -0.78535940132E+02 -0.26392763042E+02 -0.45560541236E+02  0.12348293670E+03  0.79421665205E+02 0.  0.
          6    2    1    2  501    0  0.34140038439E+02  0.34522870552E+02  0.28867755234E+03  0.33907776241E+03  0.17111875678E+03 0.  0.
         24    2    5    5    0    0 -0.55515569096E+01  0.79468296260E+02  0.22444508890E+03  0.25108109547E+03  0.79498985380E+02 0.  0.
          5    1    5    5  501    0  0.39691595349E+02 -0.44945425708E+02  0.64232463441E+02  0.87996666943E+02  0.47000000000E+01 0. -1.
        -11    1    6    6    0    0  0.22817345120E+02  0.65334089621E+02  0.93321295957E+02  0.11618106035E+03  0.00000000000E+00 0.  1.
         12    1    6    6    0    0 -0.28368902029E+02  0.14134206638E+02  0.13112379294E+03  0.13490003512E+03  0.00000000000E+00 0. -1.
         -5    1    3    3    0  503  0.44395901693E+02 -0.81301075098E+01  0.32235418304E+02  0.55662437320E+02  0.47000000000E+01 0.  1.
         13    1    4    4    0    0 -0.79939157077E+00 -0.32054641570E+02  0.20832157871E+01  0.32132209091E+02  0.00000000000E+00 0. -1.
        -14    1    4    4    0    0 -0.77736548561E+02  0.56618785277E+01 -0.47643757023E+02  0.91350727605E+02  0.00000000000E+00 0.  1.
</event>
<event>
12    1  0.1030140E-001  0.1731408E+03  0.7818608E-02  0.1174931E+00
         21   -1    0    0  501  502  0.00000000000E+00  0.00000000000E+00  0.21808041521E+03  0.21808041521E+03  0.00000000000E+00 0.  1.
         21   -1    0    0  502  503 -0.00000000000E+00 -0.00000000000E+00 -0.19360529156E+03  0.19360529156E+03  0.00000000000E+00 0.  1.
         -6    2    1    2    0  503  0.39860499617E+01  0.14854232216E+02 -0.99552716035E+02  0.19972096504E+03  0.17245632432E+03 0.  0.
        -24    2    3    3    0    0  0.60151277255E+02  0.42648670331E+02 -0.47385426710E+02  0.11804734860E+03  0.79074095698E+02 0.  0.
          6    2    1    2  501    0 -0.39860499617E+01 -0.14854232216E+02  0.12402783968E+03  0.21196474174E+03  0.17120049624E+03 0.  0.
         24    2    5    5    0    0 -0.18767991436E+01 -0.71682465918E+02  0.40174116416E+02  0.11053775326E+03  0.73910330613E+02 0.  0.
          5    1    5    5  501    0 -0.21092508181E+01  0.56828233701E+02  0.83853723269E+02  0.10142698847E+03  0.47000000000E+01 0. -1.
        -11    1    6    6    0    0 -0.58627479099E+01  0.14742972260E+02  0.20671336760E+01  0.16000002679E+02  0.00000000000E+00 0.  1.
         12    1    6    6    0    0  0.39859487663E+01 -0.86425438177E+02  0.38106982740E+02  0.94537750583E+02  0.00000000000E+00 0. -1.
         -5    1    3    3    0  503 -0.56165227294E+02 -0.27794438115E+02 -0.52167289326E+02  0.81673616442E+02  0.47000000000E+01 0.  1.
         11    1    4    4    0    0  0.34643842086E+02  0.20573658433E+02 -0.67617390569E+02  0.78712024006E+02  0.00000000000E+00 0. -1.
        -12    1    4    4    0    0  0.25507435169E+02  0.22075011898E+02  0.20231963860E+02  0.39335324593E+02  0.00000000000E+00 0.  1.
</event>
<event>
12    1  0.1030140E-001  0.3154044E+03  0.7818608E-02  0.1079221E+00
         21   -1    0    0  501  502  0.00000000000E+00  0.00000000000E+00  0.14853147957E+03  0.14853147957E+03  0.00000000000E+00 0. -1.
         21   -1    0    0  502  503 -0.00000000000E+00 -0.00000000000E+00 -0.14170287493E+04  0.14170287493E+04  0.00000000000E+00 0.  1.
         -6    2    1    2    0  503 -0.11912783804E+03 -0.23517994207E+03 -0.12065745300E+04  0.12441347568E+04  0.15016041357E+03 0.  0.
        -24    2    3    3    0    0 -0.10359464332E+03 -0.14213786045E+03 -0.96377158903E+03  0.98360938911E+03  0.87731026593E+02 0.  0.
          6    2    1    2  501    0  0.11912783804E+03  0.23517994207E+03 -0.61922739740E+02  0.32142547203E+03  0.17314404819E+03 0.  0.
         24    2    5    5    0    0  0.38367942870E+02  0.65598203821E+02 -0.30872190900E+02  0.13098820362E+03  0.10212538339E+03 0.  0.
          5    1    5    5  501    0  0.80759895171E+02  0.16958173824E+03 -0.31050548840E+02  0.19043726840E+03  0.47000000000E+01 0. -1.
        -13    1    6    6    0    0  0.10948811056E+02  0.23042973641E+00  0.33494562069E+02  0.35239399109E+02  0.00000000000E+00 0.  1.
         14    1    6    6    0    0  0.27419131814E+02  0.65367774085E+02 -0.64366752969E+02  0.95748804515E+02  0.00000000000E+00 0. -1.
         -5    1    3    3    0  503 -0.15533194721E+02 -0.93042081620E+02 -0.24280294096E+03  0.26052536772E+03  0.47000000000E+01 0.  1.
         13    1    4    4    0    0 -0.98479193552E+02 -0.80632258451E+02 -0.50914591044E+03  0.52481355812E+03  0.00000000000E+00 0. -1.
        -14    1    4    4    0    0 -0.51154497675E+01 -0.61505601996E+02 -0.45462567859E+03  0.45879583099E+03  0.00000000000E+00 0.  1.
</event>
<event>
12    1  0.1030140E-001  0.1713742E+03  0.7818608E-02  0.1176630E+00
         21   -1    0    0  501  502  0.00000000000E+00  0.00000000000E+00  0.11101020545E+03  0.11101020545E+03  0.00000000000E+00 0. -1.
         21   -1    0    0  502  503 -0.00000000000E+00 -0.00000000000E+00 -0.41214482977E+03  0.41214482977E+03  0.00000000000E+00 0. -1.
         -6    2    1    2    0  503 -0.87607436322E+01 -0.90887805477E+01 -0.30797574917E+03  0.35244597741E+03  0.17090859650E+03 0.  0.
        -24    2    3    3    0    0 -0.18396276470E+02  0.61877393574E+02 -0.17798302493E+03  0.20395611339E+03  0.75847901762E+02 0.  0.
          6    2    1    2  501    0  0.87607436322E+01  0.90887805477E+01  0.68411248546E+01  0.17070905781E+03  0.17010415888E+03 0.  0.
         24    2    5    5    0    0  0.30454223808E+02 -0.26838709406E+02 -0.49692337453E+02  0.10014338643E+03  0.76886886884E+02 0.  0.
          5    1    5    5  501    0 -0.21693480175E+02  0.35927489954E+02  0.56533462308E+02  0.70565671378E+02  0.47000000000E+01 0. -1.
        -11    1    6    6    0    0  0.47997684750E+02  0.42357849694E+01 -0.15228623777E+02  0.50533460181E+02  0.00000000000E+00 0.  1.
         12    1    6    6    0    0 -0.17543460943E+02 -0.31074494376E+02 -0.34463713676E+02  0.49609926254E+02  0.00000000000E+00 0. -1.
         -5    1    3    3    0  503  0.96355328381E+01 -0.70966174122E+02 -0.12999272423E+03  0.14848986402E+03  0.47000000000E+01 0.  1.
         13    1    4    4    0    0 -0.24889897950E+02  0.65185255547E+02 -0.18249881972E+03  0.19538281337E+03  0.00000000000E+00 0. -1.
        -14    1    4    4    0    0  0.64936214793E+01 -0.33078619731E+01  0.45157947855E+01  0.85733000236E+01  0.00000000000E+00 0.  1.
</event>
<event>
12    1  0.1030140E-001  0.1966470E+03  0.7818608E-02  0.1152819E+00
         21   -1    0    0  503  502  0.00000000000E+00  0.00000000000E+00  0.36819302877E+03  0.36819302877E+03  0.00000000000E+00 0. -1.
         21   -1    0    0  501  503 -0.00000000000E+00 -0.00000000000E+00 -0.14444067171E+03  0.14444067171E+03  0.00000000000E+00 0. -1.
          6    2    1    2  501    0  0.70612205475E+02 -0.60048819861E+02 -0.22723488659E+02  0.19795551039E+03  0.17343033999E+03 0.  0.
         24    2    3    3    0    0  0.10138813565E+03 -0.88792877220E+00 -0.60948928918E+01  0.12906596757E+03  0.79627468862E+02 0.  0.
         -6    2    1    2    0  502 -0.70612205475E+02  0.60048819861E+02  0.24647584572E+03  0.31467819009E+03  0.17227906567E+03 0.  0.
        -24    2    5    5    0    0  0.47141108864E+01  0.47715590563E+01  0.41285525587E+02  0.89168130509E+02  0.78749414336E+02 0.  0.
          5    1    3    3  501    0 -0.30775930175E+02 -0.59160891089E+02 -0.16628595767E+02  0.68889542818E+02  0.47000000000E+01 0. -1.
        -13    1    4    4    0    0  0.20942383486E+02  0.33460712869E+02 -0.12376197135E+02  0.41368744087E+02  0.00000000000E+00 0.  1.
         14    1    4    4    0    0  0.80445752163E+02 -0.34348641641E+02  0.62813042435E+01  0.87697223483E+02  0.00000000000E+00 0. -1.
         -5    1    5    5    0  502 -0.75326316361E+02  0.55277260805E+02  0.20519032013E+03  0.22551005958E+03  0.47000000000E+01 0.  1.
         11    1    6    6    0    0 -0.22819402250E+02 -0.20980106284E+02  0.41086360493E+02  0.51468232894E+02  0.00000000000E+00 0. -1.
        -12    1    6    6    0    0  0.27533513136E+02  0.25751665340E+02  0.19916509396E+00  0.37699897615E+02  0.00000000000E+00 0.  1.
</event>
<event>
12    1  0.1030140E-001  0.2508964E+03  0.7818608E-02  0.1113008E+00
         21   -1    0    0  503  502  0.00000000000E+00  0.00000000000E+00  0.10409514260E+04  0.10409514260E+04  0.00000000000E+00 0.  1.
         21   -1    0    0  501  503 -0.00000000000E+00 -0.00000000000E+00 -0.10602619178E+03  0.10602619178E+03  0.00000000000E+00 0. -1.
          6    2    1    2  501    0  0.17321373163E+03 -0.51386676595E+02  0.88975152504E+02  0.26460550449E+03  0.17162723528E+03 0.  0.
         24    2    3    3    0    0  0.17940828106E+03 -0.60690705154E+02  0.35959415728E+02  0.21022080319E+03  0.83839212241E+02 0.  0.
         -6    2    1    2    0  502 -0.17321373163E+03  0.51386676595E+02  0.84595008174E+03  0.88237211330E+03  0.17408451448E+03 0.  0.
        -24    2    5    5    0    0 -0.18459093792E+03  0.82917469468E+02  0.73417029067E+03  0.76557980442E+03  0.78468465836E+02 0.  0.
          5    1    3    3  501    0 -0.61945494302E+01  0.93040285591E+01  0.53015736776E+02  0.54384701305E+02  0.47000000000E+01 0. -1.
        -13    1    4    4    0    0  0.55004998587E+02 -0.56508999040E+02  0.33615340603E+02  0.85725188631E+02  0.00000000000E+00 0.  1.
         14    1    4    4    0    0  0.12440328247E+03 -0.41817061142E+01  0.23440751249E+01  0.12449561456E+03  0.00000000000E+00 0. -1.
         -5    1    5    5    0  502  0.11377206292E+02 -0.31530792873E+02  0.11177979107E+03  0.11679230888E+03  0.47000000000E+01 0.  1.
         11    1    6    6    0    0 -0.91421404339E+02  0.83040710645E+01  0.23395439446E+03  0.25131949677E+03  0.00000000000E+00 0. -1.
        -12    1    6    6    0    0 -0.93169533582E+02  0.74613398404E+02  0.50021589621E+03  0.51426030765E+03  0.00000000000E+00 0.  1.
</event>
<event>
12    1  0.1030140E-001  0.3314682E+03  0.7818608E-02  0.1070927E+00
         21   -1    0    0  501  502  0.00000000000E+00  0.00000000000E+00  0.68533647704E+03  0.68533647704E+03  0.00000000000E+00 0.  1.
         21   -1    0    0  502  503 -0.00000000000E+00 -0.00000000000E+00 -0.49971457138E+03  0.49971457138E+03  0.00000000000E+00 0. -1.
         -6    2    1    2    0  503 -0.44956823151E+02  0.27505478162E+03 -0.39669580993E+03  0.51695135774E+03  0.17942935048E+03 0.  0.
        -24    2    3    3    0    0 -0.93046168356E+02  0.21839872033E+03 -0.34505440269E+03  0.42633447552E+03  0.79642662606E+02 0.  0.
          6    2    1    2  501    0  0.44956823151E+02 -0.27505478162E+03  0.58231771559E+03  0.66809969068E+03  0.17200879615E+03 0.  0.
         24    2    5    5    0    0  0.69788173184E+02 -0.13277067800E+03  0.41645943211E+03  0.44811691343E+03  0.69798763986E+02 0.  0.
          5    1    5    5  501    0 -0.24831350033E+02 -0.14228410362E+03  0.16585828348E+03  0.21998277725E+03  0.47000000000E+01 0. -1.
        -11    1    6    6    0    0  0.12452661150E+01 -0.53001271325E+02  0.20772145388E+03  0.21438024128E+03  0.00000000000E+00 0.  1.
         12    1    6    6    0    0  0.68542907069E+02 -0.79769406677E+02  0.20873797823E+03  0.23373667215E+03  0.00000000000E+00 0. -1.
         -5    1    3    3    0  503  0.48089345206E+02  0.56656061284E+02 -0.51641407237E+02  0.90616882224E+02  0.47000000000E+01 0.  1.
         11    1    4    4    0    0 -0.54737955861E+02  0.16695244764E+03 -0.19131698001E+03  0.25975286413E+03  0.00000000000E+00 0. -1.
        -12    1    4    4    0    0 -0.38308212496E+02  0.51446272698E+02 -0.15373742268E+03  0.16658161139E+03  0.00000000000E+00 0.  1.
</event>
<event>
12    1  0.1030140E-001  0.2096402E+03  0.7818608E-02  0.1142900E+00
         21   -1    0    0  503  502  0.00000000000E+00  0.00000000000E+00  0.11581207003E+03  0.11581207003E+03  0.00000000000E+00 0. -1.
         21   -1    0    0  501  503 -0.00000000000E+00 -0.00000000000E+00 -0.61760433094E+03  0.61760433094E+03  0.00000000000E+00 0.  1.
          6    2    1    2  501    0 -0.22525757516E+01  0.11673643108E+03 -0.48113195522E+03  0.52276061029E+03  0.16780413850E+03 0.  0.
         24    2    3    3    0    0  0.15069694834E+02  0.14523188496E+03 -0.34905762677E+03  0.38646031614E+03  0.78682609451E+02 0.  0.
         -6    2    1    2    0  502  0.22525757516E+01 -0.11673643108E+03 -0.20660305693E+02  0.21065579068E+03  0.17411647100E+03 0.  0.
        -24    2    5    5    0    0  0.46659986884E+02 -0.10014702505E+03  0.30754461379E+02  0.14056445862E+03  0.81276990170E+02 0.  0.
          5    1    3    3  501    0 -0.17322270586E+02 -0.28495453884E+02 -0.13207432845E+03  0.13630029415E+03  0.47000000000E+01 0. -1.
        -13    1    4    4    0    0 -0.14970202916E+02  0.11308768561E+03 -0.29785441238E+03  0.31895169319E+03  0.00000000000E+00 0.  1.
         14    1    4    4    0    0  0.30039897750E+02  0.32144199353E+02 -0.51203214392E+02  0.67508622953E+02  0.00000000000E+00 0. -1.
         -5    1    5    5    0  502 -0.44407411132E+02 -0.16589406032E+02 -0.51414767072E+02  0.70091332053E+02  0.47000000000E+01 0.  1.
         11    1    6    6    0    0  0.13036077222E+02 -0.10175258282E+03  0.16056037681E+02  0.10383315350E+03  0.00000000000E+00 0. -1.
        -12    1    6    6    0    0  0.33623909662E+02  0.16055577718E+01  0.14698423699E+02  0.36731305122E+02  0.00000000000E+00 0.  1.
</event>
<event>
12    1  0.1030140E-001  0.4093060E+03  0.7818608E-02  0.1040634E+00
         21   -1    0    0  503  502  0.00000000000E+00  0.00000000000E+00  0.12617512828E+04  0.12617512828E+04  0.00000000000E+00 0.  1.
         21   -1    0    0  501  503 -0.00000000000E+00 -0.00000000000E+00 -0.13495477223E+03  0.13495477223E+03  0.00000000000E+00 0. -1.
          6    2    1    2  501    0  0.79139096630E+02  0.36272867841E+03  0.47263092739E+03  0.62522906673E+03  0.17232614892E+03 0.  0.
         24    2    3    3    0    0 -0.20057291648E+02  0.18881501928E+03  0.24584087984E+03  0.32267047745E+03  0.87321774850E+02 0.  0.
         -6    2    1    2    0  502 -0.79139096630E+02 -0.36272867841E+03  0.65416558318E+03  0.77147698830E+03  0.17149064844E+03 0.  0.
        -24    2    5    5    0    0 -0.13153792512E+02 -0.85735451138E+02  0.25251462931E+03  0.27911036976E+03  0.81334928840E+02 0.  0.
          5    1    3    3  501    0  0.99196388278E+02  0.17391365912E+03  0.22679004754E+03  0.30255858927E+03  0.47000000000E+01 0. -1.
        -11    1    4    4    0    0 -0.23029830419E+02  0.42043059241E+02  0.12033456754E+03  0.12953146361E+03  0.00000000000E+00 0.  1.
         12    1    4    4    0    0  0.29725387709E+01  0.14677196004E+03  0.12550631231E+03  0.19313901385E+03  0.00000000000E+00 0. -1.
         -5    1    5    5    0  502 -0.65985304118E+02 -0.27699322727E+03  0.40165095387E+03  0.49236661855E+03  0.47000000000E+01 0.  1.
         11    1    6    6    0    0 -0.41042976162E+02 -0.24073333840E+02  0.71760405768E+02  0.86102306185E+02  0.00000000000E+00 0. -1.
        -12    1    6    6    0    0  0.27889183650E+02 -0.61662117298E+02  0.18075422354E+03  0.19300806357E+03  0.00000000000E+00 0.  1.
</event>
<event>
12    1  0.1030140E-001  0.1843574E+03  0.7818608E-02  0.1163798E+00
         21   -1    0    0  501  502  0.00000000000E+00  0.00000000000E+00  0.16987511439E+03  0.16987511439E+03  0.00000000000E+00 0. -1.
         21   -1    0    0  502  503 -0.00000000000E+00 -0.00000000000E+00 -0.38202723986E+03  0.38202723986E+03  0.00000000000E+00 0. -1.
         -6    2    1    2    0  503  0.42644228453E+02  0.49344017803E+02 -0.29677952685E+03  0.34904907452E+03  0.17176672132E+03 0.  0.
        -24    2    3    3    0    0 -0.23774257620E+02  0.32470881854E+02 -0.24950997042E+03  0.26566670844E+03  0.81877964912E+02 0.  0.
          6    2    1    2  501    0 -0.42644228453E+02 -0.49344017803E+02  0.84627401378E+02  0.20285327973E+03  0.17243634686E+03 0.  0.
         24    2    5    5    0    0 -0.47058544085E+02 -0.83443873848E+02  0.10440568945E+03  0.16290885529E+03  0.80382588205E+02 0.  0.
          5    1    5    5  501    0  0.44143156323E+01  0.34099856045E+02 -0.19778288073E+02  0.39944424441E+02  0.47000000000E+01 0. -1.
        -13    1    6    6    0    0 -0.61555103039E+02 -0.27864921962E+02  0.58683835356E+02  0.89494564741E+02  0.00000000000E+00 0.  1.
         14    1    6    6    0    0  0.14496558954E+02 -0.55578951887E+02  0.45721854094E+02  0.73414290545E+02  0.00000000000E+00 0. -1.
         -5    1    3    3    0  503  0.66418486072E+02  0.16873135949E+02 -0.47269556426E+02  0.83382366083E+02  0.47000000000E+01 0.  1.
         11    1    4    4    0    0 -0.11226691325E+02  0.52566286746E+02 -0.93346378128E+02  0.10771629129E+03  0.00000000000E+00 0. -1.
        -12    1    4    4    0    0 -0.12547566295E+02 -0.20095404893E+02 -0.15616359229E+03  0.15795041714E+03  0.00000000000E+00 0.  1.
</event>
<event>
12    1  0.1030140E-001  0.2965223E+03  0.7818608E-02  0.1087110E+00
         21   -1    0    0  501  502  0.00000000000E+00  0.00000000000E+00  0.16413280602E+03  0.16413280602E+03  0.00000000000E+00 0. -1.
         21   -1    0    0  502  503 -0.00000000000E+00 -0.00000000000E+00 -0.69704981356E+03  0.69704981356E+03  0.00000000000E+00 0. -1.
         -6    2    1    2    0  503  0.74059224497E+02  0.22861345261E+03 -0.57902689754E+02  0.30121470160E+03  0.17212987984E+03 0.  0.
        -24    2    3    3    0    0 -0.11048017188E+02  0.16980737286E+03 -0.13952531600E+02  0.18871979503E+03  0.80398291886E+02 0.  0.
          6    2    1    2  501    0 -0.74059224497E+02 -0.22861345261E+03 -0.47501431779E+03  0.55996791798E+03  0.17371409736E+03 0.  0.
         24    2    5    5    0    0 -0.46557045677E+02 -0.36401812198E+02 -0.12858742453E+03  0.16280879758E+03  0.80494275500E+02 0.  0.
          5    1    5    5  501    0 -0.27502178820E+02 -0.19221164041E+03 -0.34642689325E+03  0.39715912040E+03  0.47000000000E+01 0. -1.
        -11    1    6    6    0    0  0.12395659154E+02 -0.28059335397E+02 -0.14091682207E+02  0.33757283306E+02  0.00000000000E+00 0.  1.
         12    1    6    6    0    0 -0.58952704831E+02 -0.83424768014E+01 -0.11449574233E+03  0.12905151427E+03  0.00000000000E+00 0. -1.
         -5    1    3    3    0  503  0.85107241684E+02  0.58806079750E+02 -0.43950158154E+02  0.11249490657E+03  0.47000000000E+01 0.  1.
         13    1    4    4    0    0  0.22627072633E+02  0.14391272621E+03 -0.91196747747E+01  0.14596583727E+03  0.00000000000E+00 0. -1.
        -14    1    4    4    0    0 -0.33675089821E+02  0.25894646647E+02 -0.48328568254E+01  0.42753957764E+02  0.00000000000E+00 0.  1.
</event>
<event>
12    1  0.1030140E-001  0.1919059E+03  0.7818608E-02  0.1156942E+00
         21   -1    0    0  501  502  0.00000000000E+00  0.00000000000E+00  0.11508146991E+04  0.11508146991E+04  0.00000000000E+00 0.  1.
         21   -1    0    0  502  503 -0.00000000000E+00 -0.00000000000E+00 -0.34295920526E+02  0.34295920526E+02  0.00000000000E+00 0.  1.
         -6    2    1    2    0  503  0.18963307787E+02  0.81285768509E+02  0.40150316041E+03  0.44500861538E+03  0.17280305767E+03 0.  0.
        -24    2    3    3    0    0  0.64553463633E+02  0.59263426591E+02  0.36136737745E+03  0.38022885830E+03  0.79424805960E+02 0.  0.
          6    2    1    2  501    0 -0.18963307787E+02 -0.81285768509E+02  0.71501561814E+03  0.74010200422E+03  0.17186232648E+03 0.  0.
         24    2    5    5    0    0  0.10322255366E+02 -0.95841445001E+02  0.31274559167E+03  0.33647745576E+03  0.78199370757E+02 0.  0.
          5    1    5    5  501    0 -0.29285563154E+02  0.14555676492E+02  0.40227002647E+03  0.40362454846E+03  0.47000000000E+01 0. -1.
        -11    1    6    6    0    0 -0.25568834584E+02 -0.33980672095E+02  0.58236240294E+02  0.72110408829E+02  0.00000000000E+00 0.  1.
         12    1    6    6    0    0  0.35891089950E+02 -0.61860772907E+02  0.25450935138E+03  0.26436704693E+03  0.00000000000E+00 0. -1.
         -5    1    3    3    0  503 -0.45590155846E+02  0.22022341918E+02  0.40135782961E+02  0.64779757081E+02  0.47000000000E+01 0.  1.
         13    1    4    4    0    0  0.19827059487E+02  0.29793729406E+02  0.37026517955E+02  0.51495064149E+02  0.00000000000E+00 0. -1.
        -14    1    4    4    0    0  0.44726404146E+02  0.29469697185E+02  0.32434085949E+03  0.32873379415E+03  0.00000000000E+00 0.  1.
</event>
<event>
12    1  0.1030140E-001  0.1867207E+03  0.7818608E-02  0.1161498E+00
         21   -1    0    0  501  502  0.00000000000E+00  0.00000000000E+00  0.50029173012E+03  0.50029173012E+03  0.00000000000E+00 0.  1.
         21   -1    0    0  502  503 -0.00000000000E+00 -0.00000000000E+00 -0.73554668291E+02  0.73554668291E+02  0.00000000000E+00 0.  1.
         -6    2    1    2    0  503  0.12119410822E+02  0.71644058155E+02  0.27987588773E+03  0.33644486722E+03  0.17200257254E+03 0.  0.
        -24    2    3    3    0    0 -0.23416216774E+02  0.10081543786E+03  0.25574329189E+03  0.28430829269E+03  0.68662232873E+02 0.  0.
          6    2    1    2  501    0 -0.12119410822E+02 -0.71644058155E+02  0.14686117409E+03  0.23740153118E+03  0.17178920619E+03 0.  0.
         24    2    5    5    0    0 -0.58147125228E+01  0.22902789351E+02  0.31035751566E+02  0.87680209731E+02  0.78525490520E+02 0.  0.
          5    1    5    5  501    0 -0.63046982996E+01 -0.94546847506E+02  0.11582542253E+03  0.14972132145E+03  0.47000000000E+01 0. -1.
        -13    1    6    6    0    0 -0.26547151971E+02 -0.10335782400E+02 -0.10707413155E+02  0.30434000263E+02  0.00000000000E+00 0.  1.
         14    1    6    6    0    0  0.20732439448E+02  0.33238571751E+02  0.41743164720E+02  0.57246209468E+02  0.00000000000E+00 0. -1.
         -5    1    3    3    0  503  0.35535627596E+02 -0.29171379704E+02  0.24132595840E+02  0.52136574537E+02  0.47000000000E+01 0.  1.
         13    1    4    4    0    0 -0.13609371739E+02 -0.69698268292E+01  0.22837270613E+02  0.27483347944E+02  0.00000000000E+00 0. -1.
        -14    1    4    4    0    0 -0.98068450354E+01  0.10778526469E+03  0.23290602128E+03  0.25682494474E+03  0.00000000000E+00 0.  1.
</event>
<event>
12    1  0.1030140E-001  0.2289386E+03  0.7818608E-02  0.1128117E+00
         21   -1    0    0  503  502  0.00000000000E+00  0.00000000000E+00  0.25960562939E+03  0.25960562939E+03  0.00000000000E+00 0. -1.
         21   -1    0    0  501  503 -0.00000000000E+00 -0.00000000000E+00 -0.21987789171E+03  0.21987789171E+03  0.00000000000E+00 0. -1.
          6    2    1    2  501    0  0.13340425357E+03  0.64307345763E+02 -0.55367924840E+02  0.23158019417E+03  0.16920889350E+03 0.  0.
         24    2    3    3    0    0  0.28333008288E+01  0.51568596678E+01 -0.13076470646E+02  0.82053571779E+02  0.80790926235E+02 0.  0.
         -6    2    1    2    0  502 -0.13340425357E+03 -0.64307345763E+02  0.95095662523E+02  0.24790332694E+03  0.17458735603E+03 0.  0.
        -24    2    5    5    0    0 -0.15395629013E+03 -0.18004182100E+02  0.51032439448E+02  0.18059785317E+03  0.77360098565E+02 0.  0.
          5    1    3    3  501    0  0.13057095274E+03  0.59150486095E+02 -0.42291454194E+02  0.14952662239E+03  0.47000000000E+01 0. -1.
        -11    1    4    4    0    0 -0.47181918720E+01 -0.89535824809E+01 -0.45117114269E+02  0.46238317160E+02  0.00000000000E+00 0.  1.
         12    1    4    4    0    0  0.75514927009E+01  0.14110442149E+02  0.32040643623E+02  0.35815254619E+02  0.00000000000E+00 0. -1.
         -5    1    5    5    0  502  0.20552036552E+02 -0.46303163663E+02  0.44063223075E+02  0.67305473770E+02  0.47000000000E+01 0.  1.
         11    1    6    6    0    0 -0.13263771087E+03 -0.43766439839E+02  0.38426472766E+02  0.14486151114E+03  0.00000000000E+00 0. -1.
        -12    1    6    6    0    0 -0.21318579254E+02  0.25762257739E+02  0.12605966682E+02  0.35736342024E+02  0.00000000000E+00 0.  1.
</event>
<event>
12    1  0.1030140E-001  0.2280523E+03  0.7818608E-02  0.1128656E+00
         21   -1    0    0  503  502  0.00000000000E+00  0.00000000000E+00  0.76115903311E+02  0.76115903311E+02  0.00000000000E+00 0.  1.
         21   -1    0    0  501  503 -0.00000000000E+00 -0.00000000000E+00 -0.75472730163E+03  0.75472730163E+03  0.00000000000E+00 0. -1.
          6    2    1    2  501    0  0.14277377357E+03  0.46766336450E+02 -0.47866721221E+03  0.53021707434E+03  0.17157040895E+03 0.  0.
         24    2    3    3    0    0  0.60340826862E+02  0.28829152704E+02 -0.11564071736E+03  0.15748760243E+03  0.83411234109E+02 0.  0.
         -6    2    1    2    0  502 -0.14277377357E+03 -0.46766336450E+02 -0.19994418610E+03  0.30062613060E+03  0.16681412470E+03 0.  0.
        -24    2    5    5    0    0 -0.13981609624E+03  0.10568660964E+02 -0.11705140531E+03  0.19968380602E+03  0.80699154514E+02 0.  0.
          5    1    3    3  501    0  0.82432946709E+02  0.17937183746E+02 -0.36302649486E+03  0.37272947191E+03  0.47000000000E+01 0. -1.
        -11    1    4    4    0    0 -0.19346158270E+02 -0.15547499983E+01 -0.35498490960E+02  0.40457804535E+02  0.00000000000E+00 0.  1.
         12    1    4    4    0    0  0.79686985132E+02  0.30383902702E+02 -0.80142226395E+02  0.11702979789E+03  0.00000000000E+00 0. -1.
         -5    1    5    5    0  502 -0.29576773315E+01 -0.57334997414E+02 -0.82892780797E+02  0.10094232458E+03  0.47000000000E+01 0.  1.
         11    1    6    6    0    0 -0.46803386179E+02  0.27157023008E+02 -0.83346451972E+02  0.99371484405E+02  0.00000000000E+00 0. -1.
        -12    1    6    6    0    0 -0.93012710061E+02 -0.16588362044E+02 -0.33704953334E+02  0.10031232161E+03  0.00000000000E+00 0.  1.
</event>
<event>
12    1  0.1030140E-001  0.1737972E+03  0.7818608E-02  0.1174434E+00
         21   -1    0    0  503  502  0.00000000000E+00  0.00000000000E+00  0.96993290975E+02  0.96993290975E+02  0.00000000000E+00 0.  1.
         21   -1    0    0  501  503 -0.00000000000E+00 -0.00000000000E+00 -0.75260775614E+03  0.75260775614E+03  0.00000000000E+00 0.  1.
          6    2    1    2  501    0 -0.31762896960E+02 -0.32004376018E+01 -0.65505893955E+03  0.67772242330E+03  0.17084011337E+03 0.  0.
         24    2    3    3    0    0 -0.51924685071E+01 -0.61578877447E+02 -0.28561707962E+03  0.30272454627E+03  0.79032365952E+02 0.  0.
         -6    2    1    2    0  502  0.31762896960E+02  0.32004376018E+01 -0.55552561354E+00  0.17187862381E+03  0.16888702819E+03 0.  0.
        -24    2    5    5    0    0  0.36453751733E+02 -0.30978633479E+02 -0.52534716308E+02  0.10931554138E+03  0.83074902480E+02 0.  0.
          5    1    3    3  501    0 -0.26570428453E+02  0.58378439845E+02 -0.36944185994E+03  0.37499787703E+03  0.47000000000E+01 0. -1.
        -13    1    4    4    0    0 -0.42049347534E+02 -0.34289033857E+02 -0.16441631366E+03  0.17313754552E+03  0.00000000000E+00 0.  1.
         14    1    4    4    0    0  0.36856879027E+02 -0.27289843590E+02 -0.12120076596E+03  0.12958700075E+03  0.00000000000E+00 0. -1.
         -5    1    5    5    0  502 -0.46908547729E+01  0.34179071081E+02  0.51979190694E+02  0.62563082434E+02  0.47000000000E+01 0.  1.
         11    1    6    6    0    0 -0.20179874240E+01 -0.15102339676E+02 -0.64288006278E+02  0.66068908635E+02  0.00000000000E+00 0. -1.
        -12    1    6    6    0    0  0.38471739157E+02 -0.15876293803E+02  0.11753289971E+02  0.43246632745E+02  0.00000000000E+00 0.  1.
</event>
<event>
12    1  0.1030140E-001  0.1841550E+03  0.7818608E-02  0.1163893E+00
         21   -1    0    0  503  502  0.00000000000E+00  0.00000000000E+00  0.20280012440E+03  0.20280012440E+03  0.00000000000E+00 0. -1.
         21   -1    0    0  501  503 -0.00000000000E+00 -0.00000000000E+00 -0.19667710434E+03  0.19667710434E+03  0.00000000000E+00 0. -1.
          6    2    1    2  501    0  0.24144113585E+02  0.57785902437E+02  0.80620440245E+02  0.20102914990E+03  0.17317885258E+03 0.  0.
         24    2    3    3    0    0  0.55619578794E+02 -0.19714875598E+02  0.43278919634E+02  0.10930371903E+03  0.81191281824E+02 0.  0.
         -6    2    1    2    0  502 -0.24144113585E+02 -0.57785902437E+02 -0.74497420181E+02  0.19844807884E+03  0.17294399568E+03 0.  0.
        -24    2    5    5    0    0 -0.35148199768E+00 -0.82460918891E+02  0.16342676258E+01  0.11482350325E+03  0.79886415517E+02 0.  0.
          5    1    3    3  501    0 -0.31475465209E+02  0.77500778035E+02  0.37341520611E+02  0.91725430867E+02  0.47000000000E+01 0. -1.
        -11    1    4    4    0    0  0.16177313779E+02  0.18771960400E+02 -0.15103045634E+02  0.29020578315E+02  0.00000000000E+00 0.  1.
         12    1    4    4    0    0  0.39442265015E+02 -0.38486835997E+02  0.58381965268E+02  0.80283140716E+02  0.00000000000E+00 0. -1.
         -5    1    5    5    0  502 -0.23792631587E+02  0.24675016454E+02 -0.76131687807E+02  0.83624575593E+02  0.47000000000E+01 0.  1.
         13    1    6    6    0    0 -0.16531352663E+02 -0.25788252835E+02 -0.34148640786E+02  0.45874276808E+02  0.00000000000E+00 0. -1.
        -14    1    6    6    0    0  0.16179870665E+02 -0.56672666056E+02  0.35782908412E+02  0.68949226443E+02  0.00000000000E+00 0.  1.
</event>
<event>
12    1  0.1030140E-001  0.2021538E+03  0.7818608E-02  0.1147961E+00
         21   -1    0    0  503  502  0.00000000000E+00  0.00000000000E+00  0.12461754016E+04  0.12461754016E+04  0.00000000000E+00 0. -1.
         21   -1    0    0  501  503 -0.00000000000E+00 -0.00000000000E+00 -0.36315109172E+02  0.36315109172E+02  0.00000000000E+00 0. -1.
          6    2    1    2  501    0  0.20931081078E+02  0.10477537983E+03  0.40448488114E+03  0.45213171855E+03  0.17146160350E+03 0.  0.
         24    2    3    3    0    0  0.27657064451E+02  0.59655987517E+02  0.98633304991E+02  0.14286116540E+03  0.79731008172E+02 0.  0.
         -6    2    1    2    0  502 -0.20931081078E+02 -0.10477537983E+03  0.80537541125E+03  0.83035879219E+03  0.17161054844E+03 0.  0.
        -24    2    5    5    0    0 -0.32795969480E+02 -0.48271801148E+02  0.21866713432E+03  0.24079783503E+03  0.82234660109E+02 0.  0.
          5    1    3    3  501    0 -0.67259833724E+01  0.45119392315E+02  0.30585157615E+03  0.30927055315E+03  0.47000000000E+01 0. -1.
        -13    1    4    4    0    0 -0.11735599060E+01  0.58627947587E+02  0.97760750500E+02  0.11399902552E+03  0.00000000000E+00 0.  1.
         14    1    4    4    0    0  0.28830624357E+02  0.10280399296E+01  0.87255449136E+00  0.28862139876E+02  0.00000000000E+00 0. -1.
         -5    1    5    5    0  502  0.11864888402E+02 -0.56503578684E+02  0.58670827694E+03  0.58956095716E+03  0.47000000000E+01 0.  1.
         11    1    6    6    0    0 -0.57313010981E+02 -0.45138828982E+02  0.18628389816E+03  0.20005995557E+03  0.00000000000E+00 0. -1.
        -12    1    6    6    0    0  0.24517041501E+02 -0.31329721656E+01  0.32383236155E+02  0.40737879455E+02  0.00000000000E+00 0.  1.
</event>
<event>
12    1  0.1030140E-001  0.2547928E+03  0.7818608E-02  0.1110357E+00
         21   -1    0    0  501  502  0.00000000000E+00  0.00000000000E+00  0.23406239978E+03  0.23406239978E+03  0.00000000000E+00 0. -1.
         21   -1    0    0  502  503 -0.00000000000E+00 -0.00000000000E+00 -0.84836668810E+03  0.84836668810E+03  0.00000000000E+00 0. -1.
         -6    2    1    2    0  503 -0.16024706249E+03  0.98673722775E+02 -0.75134680135E+03  0.79337340913E+03  0.17176648629E+03 0.  0.
        -24    2    3    3    0    0 -0.11932300811E+03  0.39855730417E+01 -0.34014335692E+03  0.36940290704E+03  0.80666842132E+02 0.  0.
          6    2    1    2  501    0  0.16024706249E+03 -0.98673722775E+02  0.13704251303E+03  0.28905567875E+03  0.17133858420E+03 0.  0.
         24    2    5    5    0    0  0.48321130426E+02 -0.10300684566E+03  0.94113900057E+02  0.16900924592E+03  0.82227471837E+02 0.  0.
          5    1    5    5  501    0  0.11192593207E+03  0.43331228817E+01  0.42928612976E+02  0.12004643283E+03  0.47000000000E+01 0. -1.
        -13    1    6    6    0    0  0.58367613164E+02 -0.36936873286E+02  0.26614557923E+02  0.74023277204E+02  0.00000000000E+00 0.  1.
         14    1    6    6    0    0 -0.10046482738E+02 -0.66069972370E+02  0.67499342134E+02  0.94985968716E+02  0.00000000000E+00 0. -1.
         -5    1    3    3    0  503 -0.40924054380E+02  0.94688149733E+02 -0.41120344443E+03  0.42397050208E+03  0.47000000000E+01 0.  1.
         13    1    4    4    0    0 -0.54829644792E+01 -0.20780867841E+02 -0.10261667699E+03  0.10484316746E+03  0.00000000000E+00 0. -1.
        -14    1    4    4    0    0 -0.11384004363E+03  0.24766440883E+02 -0.23752667993E+03  0.26455973958E+03  0.00000000000E+00 0.  1.
</event>
<event>
12    1  0.1030140E-001  0.2352259E+03  0.7818608E-02  0.1123150E+00
         21   -1    0    0  501  502  0.00000000000E+00  0.00000000000E+00  0.34036861591E+03  0.34036861591E+03  0.00000000000E+00 0. -1.
         21   -1    0    0  502  503 -0.00000000000E+00 -0.00000000000E+00 -0.22730105285E+03  0.22730105285E+03  0.00000000000E+00 0.  1.
         -6    2    1    2    0  503  0.82090007243E+02 -0.13671502155E+03 -0.95511093343E+02  0.25387714646E+03  0.17292041562E+03 0.  0.
        -24    2    3    3    0    0  0.10795465819E+03 -0.48713764962E+02 -0.46764778895E+02  0.14989880977E+03  0.79091526110E+02 0.  0.
          6    2    1    2  501    0 -0.82090007243E+02  0.13671502155E+03  0.20857865641E+03  0.31379252230E+03  0.17184564218E+03 0.  0.
         24    2    5    5    0    0 -0.99587952833E+02  0.15694482387E+03  0.16318622745E+03  0.26089653371E+03  0.82992881542E+02 0.  0.
          5    1    5    5  501    0  0.17497945590E+02 -0.20229802321E+02  0.45392428960E+02  0.52895988588E+02  0.47000000000E+01 0. -1.
        -13    1    6    6    0    0 -0.39662605149E+02  0.68768026449E+01  0.19794212347E+02  0.44857814305E+02  0.00000000000E+00 0.  1.
         14    1    6    6    0    0 -0.59925347684E+02  0.15006802122E+03  0.14339201510E+03  0.21603871941E+03  0.00000000000E+00 0. -1.
         -5    1    3    3    0  503 -0.25864650952E+02 -0.88001256586E+02 -0.48746314448E+02  0.10397833669E+03  0.47000000000E+01 0.  1.
         11    1    4    4    0    0  0.70456849683E+02 -0.20058576634E+02  0.12314384905E+02  0.74284306818E+02  0.00000000000E+00 0. -1.
        -12    1    4    4    0    0  0.37497808512E+02 -0.28655188328E+02 -0.59079163800E+02  0.75614502952E+02  0.00000000000E+00 0.  1.
</event>
<event>
12    1  0.1030140E-001  0.2203013E+03  0.7818608E-02  0.1133716E+00
         21   -1    0    0  501  502  0.00000000000E+00  0.00000000000E+00  0.70928924650E+02  0.70928924650E+02  0.00000000000E+00 0.  1.
         21   -1    0    0  502  503 -0.00000000000E+00 -0.00000000000E+00 -0.68343236402E+03  0.68343236402E+03  0.00000000000E+00 0. -1.
         -6    2    1    2    0  503 -0.13927269596E+03 -0.47826489537E+01 -0.31155347068E+03  0.38139538880E+03  0.17022667221E+03 0.  0.
        -24    2    3    3    0    0 -0.14157390719E+03  0.20218850928E+02 -0.31573037700E+03  0.35551282486E+03  0.79067847760E+02 0.  0.
          6    2    1    2  501    0  0.13927269596E+03  0.47826489537E+01 -0.30094996869E+03  0.37296589988E+03  0.17062508973E+03 0.  0.
         24    2    5    5    0    0  0.14836624080E+03 -0.43056392945E+02 -0.23046103736E+03  0.28716353436E+03  0.74055461264E+02 0.  0.
          5    1    5    5  501    0 -0.90935448418E+01  0.47839041899E+02 -0.70488931329E+02  0.85802365512E+02  0.47000000000E+01 0. -1.
        -11    1    6    6    0    0  0.70895303567E+02 -0.49104051605E+02 -0.79104976165E+02  0.11702542120E+03  0.00000000000E+00 0.  1.
         12    1    6    6    0    0  0.77470937234E+02  0.60476586599E+01 -0.15135606120E+03  0.17013811317E+03  0.00000000000E+00 0. -1.
         -5    1    3    3    0  503  0.23012112273E+01 -0.25001499882E+02  0.41769063222E+01  0.25882563936E+02  0.47000000000E+01 0.  1.
         13    1    4    4    0    0 -0.74602799476E+02 -0.22500823331E+02 -0.20439176097E+03  0.21874152942E+03  0.00000000000E+00 0. -1.
        -14    1    4    4    0    0 -0.66971107711E+02  0.42719674259E+02 -0.11133861604E+03  0.13677129544E+03  0.00000000000E+00 0.  1.
</event>
<event>
12    1  0.1030140E-001  0.2133140E+03  0.7818608E-02  0.1138984E+00
         21   -1    0    0  501  502  0.00000000000E+00  0.00000000000E+00  0.10681067063E+03  0.10681067063E+03  0.00000000000E+00 0.  1.
         21   -1    0    0  502  503 -0.00000000000E+00 -0.00000000000E+00 -0.50110623957E+03  0.50110623957E+03  0.00000000000E+00 0. -1.
         -6    2    1    2    0  503 -0.43887126576E+02  0.11815659748E+03 -0.31490516086E+03  0.38030821394E+03  0.17199423201E+03 0.  0.
        -24    2    3    3    0    0 -0.34701023430E+02 -0.77216458694E+01 -0.11636314062E+03  0.14499833220E+03  0.78869201879E+02 0.  0.
          6    2    1    2  501    0  0.43887126576E+02 -0.11815659748E+03 -0.79390408078E+02  0.22760869627E+03  0.17209247606E+03 0.  0.
         24    2    5    5    0    0  0.33459495153E+02 -0.11111500649E+03  0.62532104908E+01  0.14091821869E+03  0.79704198360E+02 0.  0.
          5    1    5    5  501    0  0.10427631423E+02 -0.70415909900E+01 -0.85643618568E+02  0.86690477575E+02  0.47000000000E+01 0. -1.
        -13    1    6    6    0    0  0.22076489012E+02 -0.35260981848E+02  0.39456320424E+02  0.57336806934E+02  0.00000000000E+00 0.  1.
         14    1    6    6    0    0  0.11383006140E+02 -0.75854024638E+02 -0.33203109933E+02  0.83581411760E+02  0.00000000000E+00 0. -1.
         -5    1    3    3    0  503 -0.91861031460E+01  0.12587824335E+03 -0.19854202024E+03  0.23530988173E+03  0.47000000000E+01 0.  1.
         11    1    4    4    0    0 -0.57469757512E+02 -0.19289980817E+02 -0.75714818152E+02  0.96992835179E+02  0.00000000000E+00 0. -1.
        -12    1    4    4    0    0  0.22768734082E+02  0.11568334947E+02 -0.40648322468E+02  0.48005497025E+02  0.00000000000E+00 0.  1.
</event>
<event>
12    1  0.1030140E-001  0.2434172E+03  0.7818608E-02  0.1117774E+00
         21   -1    0    0  503  502  0.00000000000E+00  0.00000000000E+00  0.51063815658E+03  0.51063815658E+03  0.00000000000E+00 0. -1.
         21   -1    0    0  501  503 -0.00000000000E+00 -0.00000000000E+00 -0.14289054908E+03  0.14289054908E+03  0.00000000000E+00 0. -1.
          6    2    1    2  501    0 -0.14031535310E+03  0.89676274552E+02  0.40854902553E+02  0.24682196102E+03  0.17754358576E+03 0.  0.
         24    2    3    3    0    0 -0.16385880495E+03  0.95649064363E+02  0.82137360768E+01  0.20586461623E+03  0.79462716295E+02 0.  0.
         -6    2    1    2    0  502  0.14031535310E+03 -0.89676274552E+02  0.32689270495E+03  0.40670674464E+03  0.17555996996E+03 0.  0.
        -24    2    5    5    0    0  0.62117100652E+02  0.21457733295E+02  0.18145275444E+03  0.20760726300E+03  0.76529112390E+02 0.  0.
          5    1    3    3  501    0  0.23543451852E+02 -0.59727898112E+01  0.32641166476E+02  0.40957344789E+02  0.47000000000E+01 0. -1.
        -13    1    4    4    0    0 -0.41885052065E+01  0.11099151728E+02  0.21654163604E+02  0.24690839320E+02  0.00000000000E+00 0.  1.
         14    1    4    4    0    0 -0.15967029975E+03  0.84549912635E+02 -0.13440427527E+02  0.18117377691E+03  0.00000000000E+00 0. -1.
         -5    1    5    5    0  502  0.78198252450E+02 -0.11113400785E+03  0.14543995050E+03  0.19909948164E+03  0.47000000000E+01 0.  1.
         13    1    6    6    0    0  0.46718585615E+02  0.19117468787E+02  0.18489011346E+03  0.19165713634E+03  0.00000000000E+00 0. -1.
        -14    1    6    6    0    0  0.15398515037E+02  0.23402645078E+01 -0.34373590198E+01  0.15950126656E+02  0.00000000000E+00 0.  1.
</event>
<event>
12    1  0.1030140E-001  0.1821607E+03  0.7818608E-02  0.1166567E+00
         21   -1    0    0  501  502  0.00000000000E+00  0.00000000000E+00  0.28550891968E+02  0.28550891968E+02  0.00000000000E+00 0. -1.
         21   -1    0    0  502  503 -0.00000000000E+00 -0.00000000000E+00 -0.12734114217E+04  0.12734114217E+04  0.00000000000E+00 0.  1.
         -6    2    1    2    0  503  0.20127078545E+02  0.46117530721E+02 -0.82767577685E+03  0.84674190325E+03  0.17144309029E+03 0.  0.
        -24    2    3    3    0    0  0.79325100798E+02  0.33109430215E+02 -0.50244281028E+03  0.51587608595E+03  0.79313633535E+02 0.  0.
          6    2    1    2  501    0 -0.20127078545E+02 -0.46117530721E+02 -0.41718475287E+03  0.45522041040E+03  0.17507306500E+03 0.  0.
         24    2    5    5    0    0  0.81231934272E+00  0.23901418312E+02 -0.99731179061E+02  0.12942910737E+03  0.78953455262E+02 0.  0.
          5    1    5    5  501    0 -0.20939397888E+02 -0.70018949033E+02 -0.31745357381E+03  0.32579130303E+03  0.47000000000E+01 0. -1.
        -11    1    6    6    0    0  0.83520244060E+01 -0.11588186947E+02 -0.90996496672E+02  0.92110828869E+02  0.00000000000E+00 0.  1.
         12    1    6    6    0    0 -0.75397050633E+01  0.35489605259E+02 -0.87346823893E+01  0.37318278502E+02  0.00000000000E+00 0. -1.
         -5    1    3    3    0  503 -0.59198022252E+02  0.13008100506E+02 -0.32523296657E+03  0.33086581730E+03  0.47000000000E+01 0.  1.
         13    1    4    4    0    0  0.36157481811E+02 -0.26368060468E+01 -0.61535607620E+02  0.71420915999E+02  0.00000000000E+00 0. -1.
        -14    1    4    4    0    0  0.43167618987E+02  0.35746236262E+02 -0.44090720266E+03  0.44445516995E+03  0.00000000000E+00 0.  1.
</event>
<event>
12    1  0.1030140E-001  0.2470560E+03  0.7818608E-02  0.1115329E+00
         21   -1    0    0  501  502  0.00000000000E+00  0.00000000000E+00  0.48437882593E+03  0.48437882593E+03  0.00000000000E+00 0. -1.
         21   -1    0    0  502  503 -0.00000000000E+00 -0.00000000000E+00 -0.12817866088E+03  0.12817866088E+03  0.00000000000E+00 0.  1.
         -6    2    1    2    0  503  0.37646082654E+02  0.17192460037E+03  0.22241270328E+03  0.33242150539E+03  0.17338209513E+03 0.  0.
        -24    2    3    3    0    0  0.13163175374E+02  0.67066225932E+02  0.22066205120E+02  0.10492315207E+03  0.76490539183E+02 0.  0.
          6    2    1    2  501    0 -0.37646082654E+02 -0.17192460037E+03  0.13378746176E+03  0.28013598143E+03  0.17205169983E+03 0.  0.
         24    2    5    5    0    0  0.12600387299E+02 -0.10527924012E+03  0.15633956851E+02  0.13539948808E+03  0.82741238833E+02 0.  0.
          5    1    5    5  501    0 -0.50246469953E+02 -0.66645360244E+02  0.11815350491E+03  0.14473649335E+03  0.47000000000E+01 0. -1.
        -13    1    6    6    0    0 -0.25605374944E+02 -0.37603014831E+01  0.55256997680E+00  0.25885911744E+02  0.00000000000E+00 0.  1.
         14    1    6    6    0    0  0.38205762243E+02 -0.10151893864E+03  0.15081386874E+02  0.10951357633E+03  0.00000000000E+00 0. -1.
         -5    1    3    3    0  503  0.24482907280E+02  0.10485837443E+03  0.20034649816E+03  0.22749835332E+03  0.47000000000E+01 0.  1.
         13    1    4    4    0    0  0.53272460804E+01  0.79345040474E+02  0.33612860499E+02  0.86335620630E+02  0.00000000000E+00 0. -1.
        -14    1    4    4    0    0  0.78359292938E+01 -0.12278814542E+02 -0.11546655380E+02  0.18587531437E+02  0.00000000000E+00 0.  1.
</event>
<event>
12    1  0.1030140E-001  0.2079660E+03  0.7818608E-02  0.1143434E+00
         21   -1    0    0  501  502  0.00000000000E+00  0.00000000000E+00  0.23122238783E+03  0.23122238783E+03  0.00000000000E+00 0. -1.
         21   -1    0    0  502  503 -0.00000000000E+00 -0.00000000000E+00 -0.38594912868E+03  0.38594912868E+03  0.00000000000E+00 0. -1.
         -6    2    1    2    0  503  0.11416422869E+03  0.29213472065E+02 -0.29939419985E+03  0.36383666519E+03  0.16986269153E+03 0.  0.
        -24    2    3    3    0    0  0.67567032412E+02  0.37981226841E+02 -0.29536649873E+03  0.31601946534E+03  0.81357583787E+02 0.  0.
          6    2    1    2  501    0 -0.11416422869E+03 -0.29213472065E+02  0.14466745900E+03  0.25333485132E+03  0.17135628128E+03 0.  0.
         24    2    5    5    0    0 -0.63640272092E+02 -0.83687394463E+02  0.10849889950E+03  0.17056811217E+03  0.79169473114E+02 0.  0.
          5    1    5    5  501    0 -0.50523956603E+02  0.54473922398E+02  0.36168559507E+02  0.82766739147E+02  0.47000000000E+01 0. -1.
        -13    1    6    6    0    0 -0.24801219591E+02 -0.62103007072E+02  0.17227715630E+02  0.69055616472E+02  0.00000000000E+00 0.  1.
         14    1    6    6    0    0 -0.38839052501E+02 -0.21584387391E+02  0.91271183867E+02  0.10151249570E+03  0.00000000000E+00 0. -1.
         -5    1    3    3    0  503  0.46597196283E+02 -0.87677547761E+01 -0.40277011131E+01  0.47817199850E+02  0.47000000000E+01 0.  1.
         11    1    4    4    0    0  0.55387796876E+02 -0.10920319893E+02 -0.20409958882E+03  0.21176331974E+03  0.00000000000E+00 0. -1.
        -12    1    4    4    0    0  0.12179235535E+02  0.48901546734E+02 -0.91266909909E+02  0.10425614560E+03  0.00000000000E+00 0.  1.
</event>
<event>
12    1  0.1030140E-001  0.2191885E+03  0.7818608E-02  0.1134584E+00
         21   -1    0    0  501  502  0.00000000000E+00  0.00000000000E+00  0.27249098113E+02  0.27249098113E+02  0.00000000000E+00 0. -1.
         21   -1    0    0  502  503 -0.00000000000E+00 -0.00000000000E+00 -0.21301934408E+04  0.21301934408E+04  0.00000000000E+00 0. -1.
         -6    2    1    2    0  503 -0.11519966595E+03 -0.70660658773E+02 -0.15027252158E+04  0.15186265780E+04  0.17256800820E+03 0.  0.
        -24    2    3    3    0    0 -0.86662122265E+02  0.23633347805E+02 -0.86375376350E+03  0.87208782592E+03  0.79985958746E+02 0.  0.
          6    2    1    2  501    0  0.11519966595E+03  0.70660658773E+02 -0.60021912684E+03  0.63881596087E+03  0.17192713546E+03 0.  0.
         24    2    5    5    0    0  0.15066369829E+03  0.64021378354E+02 -0.50590324362E+03  0.53772514298E+03  0.80074656537E+02 0.  0.
          5    1    5    5  501    0 -0.35464032340E+02  0.66392804195E+01 -0.94315883218E+02  0.10109081789E+03  0.47000000000E+01 0. -1.
        -11    1    6    6    0    0  0.77378334969E+01  0.14150068705E+02 -0.15137451586E+03  0.15223121416E+03  0.00000000000E+00 0.  1.
         12    1    6    6    0    0  0.14292586480E+03  0.49871309649E+02 -0.35452872776E+03  0.38549392882E+03  0.00000000000E+00 0. -1.
         -5    1    3    3    0  503 -0.28537543689E+02 -0.94294006579E+02 -0.63897145231E+03  0.64653875208E+03  0.47000000000E+01 0.  1.
         13    1    4    4    0    0 -0.54039743434E+01 -0.19905773856E+01 -0.43034833733E+03  0.43038686873E+03  0.00000000000E+00 0. -1.
        -14    1    4    4    0    0 -0.81258147922E+02  0.25623925191E+02 -0.43340542617E+03  0.44170095719E+03  0.00000000000E+00 0.  1.
</event>
<event>
12    1  0.1030140E-001  0.2421508E+03  0.7818608E-02  0.1118566E+00
         21   -1    0    0  501  502  0.00000000000E+00  0.00000000000E+00  0.10613961207E+04  0.10613961207E+04  0.00000000000E+00 0.  1.
         21   -1    0    0  502  503 -0.00000000000E+00 -0.00000000000E+00 -0.59403546251E+02  0.59403546251E+02  0.00000000000E+00 0.  1.
         -6    2    1    2    0  503  0.53172340061E+02 -0.16101943734E+03  0.34908302563E+03  0.42484817649E+03  0.17286543128E+03 0.  0.
        -24    2    3    3    0    0  0.99539216288E+02 -0.11344964049E+03  0.21632238163E+03  0.27632123826E+03  0.82335760238E+02 0.  0.
          6    2    1    2  501    0 -0.53172340061E+02  0.16101943734E+03  0.65290954887E+03  0.69595149051E+03  0.17118131087E+03 0.  0.
         24    2    5    5    0    0 -0.25609328944E+02  0.59204886742E+02  0.49178013320E+03  0.50331011154E+03  0.85512061314E+02 0.  0.
          5    1    5    5  501    0 -0.27563011118E+02  0.10181455060E+03  0.16112941567E+03  0.19264137896E+03  0.47000000000E+01 0. -1.
        -13    1    6    6    0    0 -0.19944731936E+02  0.41088943712E+02  0.88566583182E+02  0.99650054109E+02  0.00000000000E+00 0.  1.
         14    1    6    6    0    0 -0.56645970080E+01  0.18115943030E+02  0.40321355002E+03  0.40366005744E+03  0.00000000000E+00 0. -1.
         -5    1    3    3    0  503 -0.46366876227E+02 -0.47569796855E+02  0.13276064400E+03  0.14852693823E+03  0.47000000000E+01 0.  1.
         11    1    4    4    0    0  0.49869705456E+02 -0.23272969557E+01  0.55871948759E+02  0.74927154567E+02  0.00000000000E+00 0. -1.
        -12    1    4    4    0    0  0.49669510832E+02 -0.11112234353E+03  0.16045043287E+03  0.20139408369E+03  0.00000000000E+00 0.  1.
</event>
<event>
12    1  0.1030140E-001  0.2701905E+03  0.7818608E-02  0.1101353E+00
         21   -1    0    0  501  502  0.00000000000E+00  0.00000000000E+00  0.15544997803E+04  0.15544997803E+04  0.00000000000E+00 0.  1.
         21   -1    0    0  502  503 -0.00000000000E+00 -0.00000000000E+00 -0.47611560052E+02  0.47611560052E+02  0.00000000000E+00 0.  1.
         -6    2    1    2    0  503 -0.47485823819E+02  0.20300898747E+03  0.64686321596E+03  0.70102421031E+03  0.17185857797E+03 0.  0.
        -24    2    3    3    0    0  0.33149586585E+02  0.12376899548E+03  0.29532134662E+03  0.33172105349E+03  0.80040616089E+02 0.  0.
          6    2    1    2  501    0  0.47485823819E+02 -0.20300898747E+03  0.86002500427E+03  0.90108713002E+03  0.16984538694E+03 0.  0.
         24    2    5    5    0    0 -0.14467158839E+02 -0.14087584010E+03  0.70281097975E+03  0.72098427172E+03  0.76287258464E+02 0.  0.
          5    1    5    5  501    0  0.61952982658E+02 -0.62133147371E+02  0.15721402452E+03  0.18010285830E+03  0.47000000000E+01 0. -1.
        -11    1    6    6    0    0 -0.20098573499E+02 -0.74057450981E+02  0.20901289593E+03  0.22265410252E+03  0.00000000000E+00 0.  1.
         12    1    6    6    0    0  0.56314146604E+01 -0.66818389121E+02  0.49379808382E+03  0.49833016920E+03  0.00000000000E+00 0. -1.
         -5    1    3    3    0  503 -0.80635410404E+02  0.79239991994E+02  0.35154186934E+03  0.36930315682E+03  0.47000000000E+01 0.  1.
         13    1    4    4    0    0 -0.85153442948E+01 -0.83320294851E+01  0.16082699236E+02  0.20014670083E+02  0.00000000000E+00 0. -1.
        -14    1    4    4    0    0  0.41664930880E+02  0.13210102496E+03  0.27923864739E+03  0.31170638341E+03  0.00000000000E+00 0.  1.
</event>
<event>
12    1  0.1030140E-001  0.2324870E+03  0.7818608E-02  0.1126648E+00
         21   -1    0    0  501  502  0.00000000000E+00  0.00000000000E+00  0.43300659709E+02  0.43300659709E+02  0.00000000000E+00 0.  1.
         21   -1    0    0  502  503 -0.00000000000E+00 -0.00000000000E+00 -0.32043359019E+04  0.32043359019E+04  0.00000000000E+00 0.  1.
         -6    2    1    2    0  503  0.12968266139E+03  0.59668158019E+02 -0.28531990489E+04  0.28618732713E+04  0.17086815654E+03 0.  0.
        -24    2    3    3    0    0  0.11843024252E+03  0.42232081420E+02 -0.13196861348E+04  0.13282127543E+04  0.82270015220E+02 0.  0.
          6    2    1    2  501    0 -0.12968266139E+03 -0.59668158019E+02 -0.30783619329E+03  0.38576329025E+03  0.18350017019E+03 0.  0.
         24    2    5    5    0    0 -0.32461414773E+01 -0.58189256436E+02 -0.88395890001E+02  0.13245613002E+03  0.79588102196E+02 0.  0.
          5    1    5    5  501    0 -0.12643651991E+03 -0.14789015829E+01 -0.21944030328E+03  0.25330716023E+03  0.47000000000E+01 0. -1.
        -13    1    6    6    0    0 -0.29581724364E+02 -0.16037058315E+02 -0.31727966453E+01  0.33798406683E+02  0.00000000000E+00 0.  1.
         14    1    6    6    0    0  0.26335582887E+02 -0.42152198121E+02 -0.85223093355E+02  0.98657723334E+02  0.00000000000E+00 0. -1.
         -5    1    3    3    0  503  0.11252418866E+02  0.17436076599E+02 -0.15335129141E+04  0.15336605170E+04  0.47000000000E+01 0.  1.
         13    1    4    4    0    0  0.35833020767E+02  0.69377428214E+01 -0.12676412993E+03  0.13191392000E+03  0.00000000000E+00 0. -1.
        -14    1    4    4    0    0  0.82597221755E+02  0.35294338599E+02 -0.11929220048E+04  0.11962988343E+04  0.00000000000E+00 0.  1.
</event>
<event>
12    1  0.1030140E-001  0.2137477E+03  0.7818608E-02  0.1138678E+00
         21   -1    0    0  501  502  0.00000000000E+00  0.00000000000E+00  0.38345439634E+03  0.38345439634E+03  0.00000000000E+00 0.  1.
         21   -1    0    0  502  503 -0.00000000000E+00 -0.00000000000E+00 -0.17627490688E+03  0.17627490688E+03  0.00000000000E+00 0. -1.
         -6    2    1    2    0  503  0.75720506115E+02  0.10077410721E+03 -0.55955133851E+02  0.22071910968E+03  0.17232797986E+03 0.  0.
        -24    2    3    3    0    0 -0.69908235246E+00  0.11015434555E+03 -0.33878345879E+02  0.14048559461E+03  0.80336737643E+02 0.  0.
          6    2    1    2  501    0 -0.75720506115E+02 -0.10077410721E+03  0.26313462331E+03  0.33901019354E+03  0.17262405860E+03 0.  0.
         24    2    5    5    0    0  0.21747539706E+02 -0.78817219091E+02  0.14203062246E+03  0.18194207483E+03  0.79026017037E+02 0.  0.
          5    1    5    5  501    0 -0.97468045821E+02 -0.21956888119E+02  0.12110400085E+03  0.15706811871E+03  0.47000000000E+01 0. -1.
        -13    1    6    6    0    0 -0.15300304599E+02 -0.31174481802E+02  0.10624901137E+03  0.11178014159E+03  0.00000000000E+00 0.  1.
         14    1    6    6    0    0  0.37047844304E+02 -0.47642737289E+02  0.35781611089E+02  0.70161933241E+02  0.00000000000E+00 0. -1.
         -5    1    3    3    0  503  0.76419588467E+02 -0.93802383348E+01 -0.22076787972E+02  0.80233515066E+02  0.47000000000E+01 0.  1.
         11    1    4    4    0    0  0.24769334274E+02  0.24138142076E+02 -0.37099613160E+02  0.50720322553E+02  0.00000000000E+00 0. -1.
        -12    1    4    4    0    0 -0.25468416627E+02  0.86016203470E+02  0.32212672804E+01  0.89765272058E+02  0.00000000000E+00 0.  1.
</event>
<event>
12    1  0.1030140E-001  0.1938237E+03  0.7818608E-02  0.1155710E+00
         21   -1    0    0  503  502  0.00000000000E+00  0.00000000000E+00  0.19872489427E+03  0.19872489427E+03  0.00000000000E+00 0.  1.
         21   -1    0    0  501  503 -0.00000000000E+00 -0.00000000000E+00 -0.21342595527E+03  0.21342595527E+03  0.00000000000E+00 0. -1.
          6    2    1    2  501    0  0.87027946122E+02  0.46591264407E+01  0.66227522115E+02  0.20482603297E+03  0.17312437214E+03 0.  0.
         24    2    3    3    0    0  0.59624194356E+02  0.11923616451E+02 -0.28891299047E+02  0.10546095578E+03  0.81179362221E+02 0.  0.
         -6    2    1    2    0  502 -0.87027946122E+02 -0.46591264407E+01 -0.80928583124E+02  0.20732481657E+03  0.16981923665E+03 0.  0.
        -24    2    5    5    0    0 -0.33514625065E+02  0.48464439802E+02 -0.83716049348E+02  0.13172290662E+03  0.82888570932E+02 0.  0.
          5    1    3    3  501    0  0.27403751765E+02 -0.72644900102E+01  0.95118821162E+02  0.99365077191E+02  0.47000000000E+01 0. -1.
        -11    1    4    4    0    0  0.59271706983E+02  0.19754733119E+02  0.12175734818E+02  0.63652441019E+02  0.00000000000E+00 0.  1.
         12    1    4    4    0    0  0.35248737283E+00 -0.78311166677E+01 -0.41067033866E+02  0.41808514756E+02  0.00000000000E+00 0. -1.
         -5    1    5    5    0  502 -0.53513321056E+02 -0.53123566243E+02  0.27874662236E+01  0.75601909955E+02  0.47000000000E+01 0.  1.
         11    1    6    6    0    0 -0.55074960448E+02  0.84880096079E+01 -0.39251203809E+02  0.68161239542E+02  0.00000000000E+00 0. -1.
        -12    1    6    6    0    0  0.21560335382E+02  0.39976430194E+02 -0.44464845539E+02  0.63561667077E+02  0.00000000000E+00 0.  1.
</event>
<event>
12    1  0.1030140E-001  0.2124438E+03  0.7818608E-02  0.1139967E+00
         21   -1    0    0  501  502  0.00000000000E+00  0.00000000000E+00  0.11731314543E+04  0.11731314543E+04  0.00000000000E+00 0. -1.
         21   -1    0    0  502  503 -0.00000000000E+00 -0.00000000000E+00 -0.71058951430E+02  0.71058951430E+02  0.00000000000E+00 0. -1.
         -6    2    1    2    0  503  0.91859211680E+01 -0.12571246032E+03  0.12668914994E+03  0.24593940430E+03  0.16896167035E+03 0.  0.
        -24    2    3    3    0    0 -0.47126437228E+02 -0.37115195590E+02  0.59402482939E+02  0.12115902691E+03  0.86904637349E+02 0.  0.
          6    2    1    2  501    0 -0.91859211680E+01  0.12571246032E+03  0.97538335297E+03  0.99825100147E+03  0.17100986189E+03 0.  0.
         24    2    5    5    0    0 -0.17750185453E+01 -0.95971459942E+01  0.30485032758E+03  0.31414557160E+03  0.75222749424E+02 0.  0.
          5    1    5    5  501    0 -0.74109026226E+01  0.13530960631E+03  0.67053302539E+03  0.68410542986E+03  0.47000000000E+01 0. -1.
        -13    1    6    6    0    0  0.32572944783E+01  0.19717036621E+02  0.21944366288E+02  0.29680409569E+02  0.00000000000E+00 0.  1.
         14    1    6    6    0    0 -0.50323130237E+01 -0.29314182615E+02  0.28290596129E+03  0.28446516204E+03  0.00000000000E+00 0. -1.
         -5    1    3    3    0  503  0.56312358396E+02 -0.88597264725E+02  0.67286667001E+02  0.12478037739E+03  0.47000000000E+01 0.  1.
         13    1    4    4    0    0 -0.47709127976E+02 -0.55937513284E+02  0.68283612351E+02  0.10033851703E+03  0.00000000000E+00 0. -1.
        -14    1    4    4    0    0  0.58269074796E+00  0.18822317694E+02 -0.88811294116E+01  0.20820509876E+02  0.00000000000E+00 0.  1.
</event>
<event>
12    1  0.1030140E-001  0.2079249E+03  0.7818608E-02  0.1143672E+00
         21   -1    0    0  503  502  0.00000000000E+00  0.00000000000E+00  0.14589956590E+03  0.14589956590E+03  0.00000000000E+00 0. -1.
         21   -1    0    0  501  503 -0.00000000000E+00 -0.00000000000E+00 -0.30640479393E+03  0.30640479393E+03  0.00000000000E+00 0.  1.
          6    2    1    2  501    0 -0.10528954225E+03 -0.48910153580E+02 -0.32775485147E+02  0.20828045617E+03  0.16978935527E+03 0.  0.
         24    2    3    3    0    0 -0.56352594490E+02  0.34932603034E+02  0.38355146056E+01  0.10442051203E+03  0.80579342890E+02 0.  0.
         -6    2    1    2    0  502  0.10528954225E+03  0.48910153580E+02 -0.12772974288E+03  0.24402390367E+03  0.17249547099E+03 0.  0.
        -24    2    5    5    0    0  0.16328826644E+02 -0.31403236332E+02 -0.57446330962E+02  0.10500556850E+03  0.80456787432E+02 0.  0.
          5    1    3    3  501    0 -0.48936947760E+02 -0.83842756613E+02 -0.36610999753E+02  0.10385994413E+03  0.47000000000E+01 0. -1.
        -11    1    4    4    0    0 -0.39991433603E+02  0.37446529864E+02 -0.33055376752E+02  0.63986055455E+02  0.00000000000E+00 0.  1.
         12    1    4    4    0    0 -0.16361160887E+02 -0.25139268305E+01  0.36890891357E+02  0.40434456579E+02  0.00000000000E+00 0. -1.
         -5    1    5    5    0  502  0.88960715606E+02  0.80313389912E+02 -0.70283411923E+02  0.13901833516E+03  0.47000000000E+01 0.  1.
         13    1    6    6    0    0  0.14638149181E+02  0.60097827650E+01 -0.64915960095E+02  0.66816725267E+02  0.00000000000E+00 0. -1.
        -14    1    6    6    0    0  0.16906774625E+01 -0.37413019097E+02  0.74696291337E+01  0.38188843235E+02  0.00000000000E+00 0.  1.
</event>
<event>
12    1  0.1030140E-001  0.3020389E+03  0.7818608E-02  0.1085363E+00
         21   -1    0    0  503  502  0.00000000000E+00  0.00000000000E+00  0.14204653411E+04  0.14204653411E+04  0.00000000000E+00 0. -1.
         21   -1    0    0  501  503 -0.00000000000E+00 -0.00000000000E+00 -0.16372198511E+03  0.16372198511E+03  0.00000000000E+00 0.  1.
          6    2    1    2  501    0  0.20367048738E+03  0.12070036417E+03  0.86508357063E+01  0.30216275693E+03  0.18755598998E+03 0.  0.
         24    2    3    3    0    0  0.29066207911E+02  0.59527853555E+02 -0.38896292918E+02  0.11108280010E+03  0.80237504222E+02 0.  0.
         -6    2    1    2    0  502 -0.20367048738E+03 -0.12070036417E+03  0.12480925203E+04  0.12820245693E+04  0.17263201243E+03 0.  0.
        -24    2    5    5    0    0 -0.13507835314E+03 -0.87918435963E+02  0.11076735937E+04  0.11222775798E+04  0.81181051681E+02 0.  0.
          5    1    3    3  501    0  0.17460427947E+03  0.61172510611E+02  0.47547128624E+02  0.19107995683E+03  0.47000000000E+01 0. -1.
        -13    1    4    4    0    0  0.40195945042E+02  0.58101465420E+02 -0.52206466636E-01  0.70650527297E+02  0.00000000000E+00 0.  1.
         14    1    4    4    0    0 -0.11129737131E+02  0.14263881349E+01 -0.38844086451E+02  0.40432272802E+02  0.00000000000E+00 0. -1.
         -5    1    5    5    0  502 -0.68592134233E+02 -0.32781928203E+02  0.14041892663E+03  0.15974698949E+03  0.47000000000E+01 0.  1.
         13    1    6    6    0    0 -0.56304988196E+02  0.53501313992E+01  0.42882438574E+03  0.43253812480E+03  0.00000000000E+00 0. -1.
        -14    1    6    6    0    0 -0.78773364947E+02 -0.93268567362E+02  0.67884920795E+03  0.68973945502E+03  0.00000000000E+00 0.  1.
</event>
<event>
12    1  0.1030140E-001  0.2395264E+03  0.7818608E-02  0.1120242E+00
         21   -1    0    0  501  502  0.00000000000E+00  0.00000000000E+00  0.45534420096E+02  0.45534420096E+02  0.00000000000E+00 0.  1.
         21   -1    0    0  502  503 -0.00000000000E+00 -0.00000000000E+00 -0.12702377411E+04  0.12702377411E+04  0.00000000000E+00 0.  1.
         -6    2    1    2    0  503  0.81689461161E+02  0.14450783682E+03 -0.68150138716E+03  0.72210454074E+03  0.17156673364E+03 0.  0.
        -24    2    3    3    0    0  0.89316277187E+02  0.67756005754E+02 -0.56666494240E+03  0.58369026785E+03  0.83766927556E+02 0.  0.
          6    2    1    2  501    0 -0.81689461161E+02 -0.14450783682E+03 -0.54320193382E+03  0.59366762043E+03  0.17267663326E+03 0.  0.
         24    2    5    5    0    0 -0.39017332017E+02 -0.36383114613E+02 -0.11560029091E+03  0.15052303773E+03  0.80297412177E+02 0.  0.
          5    1    5    5  501    0 -0.42672129144E+02 -0.10812472220E+03 -0.42760164291E+03  0.44314458270E+03  0.47000000000E+01 0. -1.
        -11    1    6    6    0    0 -0.28618639399E+02 -0.58511936271E+02 -0.55265027016E+02  0.85421873184E+02  0.00000000000E+00 0.  1.
         12    1    6    6    0    0 -0.10398692618E+02  0.22128821657E+02 -0.60335263894E+02  0.65101164546E+02  0.00000000000E+00 0. -1.
         -5    1    3    3    0  503 -0.76268160263E+01  0.76751831064E+02 -0.11483644475E+03  0.13841427288E+03  0.47000000000E+01 0.  1.
         11    1    4    4    0    0  0.12807667493E+02 -0.19847960574E+02 -0.98947991958E+02  0.10172847683E+03  0.00000000000E+00 0. -1.
        -12    1    4    4    0    0  0.76508609695E+02  0.87603966327E+02 -0.46771695044E+03  0.48196179102E+03  0.00000000000E+00 0.  1.
</event>
<event>
12    1  0.1030140E-001  0.1968039E+03  0.7818608E-02  0.1152717E+00
         21   -1    0    0  503  502  0.00000000000E+00  0.00000000000E+00  0.91047499044E+03  0.91047499044E+03  0.00000000000E+00 0. -1.
         21   -1    0    0  501  503 -0.00000000000E+00 -0.00000000000E+00 -0.48869388761E+02  0.48869388761E+02  0.00000000000E+00 0. -1.
          6    2    1    2  501    0  0.87418670243E+02  0.37756177614E+02  0.25364638280E+03  0.32032468472E+03  0.17089137860E+03 0.  0.
         24    2    3    3    0    0  0.20728412439E+02 -0.42017882362E+02  0.13260259718E+03  0.16068390307E+03  0.77721930011E+02 0.  0.
         -6    2    1    2    0  502 -0.87418670243E+02 -0.37756177614E+02  0.60795921888E+03  0.63901969448E+03  0.17223299700E+03 0.  0.
        -24    2    5    5    0    0 -0.57820261555E+02 -0.88447835240E+02  0.48678699968E+03  0.50429587827E+03  0.78654609347E+02 0.  0.
          5    1    3    3  501    0  0.66690257805E+02  0.79774059977E+02  0.12104378561E+03  0.15964078165E+03  0.47000000000E+01 0. -1.
        -13    1    4    4    0    0  0.42695352255E+02 -0.44222727193E+02  0.64533884295E+02  0.89124435071E+02  0.00000000000E+00 0.  1.
         14    1    4    4    0    0 -0.21966939816E+02  0.22048448309E+01  0.68068712887E+02  0.71559467995E+02  0.00000000000E+00 0. -1.
         -5    1    5    5    0  502 -0.29598408688E+02  0.50691657625E+02  0.12117221920E+03  0.13472381621E+03  0.47000000000E+01 0.  1.
         11    1    6    6    0    0 -0.71664253049E+01 -0.77675731526E+02  0.24889866767E+03  0.26083600918E+03  0.00000000000E+00 0. -1.
        -12    1    6    6    0    0 -0.50653836250E+02 -0.10772103714E+02  0.23788833202E+03  0.24345986908E+03  0.00000000000E+00 0.  1.
</event>
<event>
12    1  0.1030140E-001  0.1801636E+03  0.7818608E-02  0.1167768E+00
         21   -1    0    0  503  502  0.00000000000E+00  0.00000000000E+00  0.70831168165E+02  0.70831168165E+02  0.00000000000E+00 0. -1.
         21   -1    0    0  501  503 -0.00000000000E+00 -0.00000000000E+00 -0.48288031656E+03  0.48288031656E+03  0.00000000000E+00 0. -1.
          6    2    1    2  501    0 -0.24722186493E+02  0.45056494745E+02 -0.26989249402E+03  0.32421763901E+03  0.17214483696E+03 0.  0.
         24    2    3    3    0    0  0.37839148842E+02  0.68253216446E+02 -0.17001839355E+03  0.20401391810E+03  0.81394851749E+02 0.  0.
         -6    2    1    2    0  502  0.24722186493E+02 -0.45056494745E+02 -0.14215665437E+03  0.22949384571E+03  0.17267784054E+03 0.  0.
        -24    2    5    5    0    0  0.17217225069E+02 -0.94232640342E+02 -0.69516145835E+02  0.14132723513E+03  0.77231272889E+02 0.  0.
          5    1    3    3  501    0 -0.62561335335E+02 -0.23196721701E+02 -0.99874100468E+02  0.12020372091E+03  0.47000000000E+01 0. -1.
        -13    1    4    4    0    0  0.42196166280E+02 -0.15231979956E+01 -0.53840340613E+02  0.68422356421E+02  0.00000000000E+00 0.  1.
         14    1    4    4    0    0 -0.43570174378E+01  0.69776414442E+02 -0.11617805294E+03  0.13559156168E+03  0.00000000000E+00 0. -1.
         -5    1    5    5    0  502  0.75049614239E+01  0.49176145596E+02 -0.72640508537E+02  0.88166610586E+02  0.47000000000E+01 0.  1.
         11    1    6    6    0    0  0.25406860256E+02  0.27901322907E+01 -0.17037429406E+02  0.30717542008E+02  0.00000000000E+00 0. -1.
        -12    1    6    6    0    0 -0.81896351873E+01 -0.97022772632E+02 -0.52478716429E+02  0.11060969312E+03  0.00000000000E+00 0.  1.
</event>
<event>
12    1  0.1030140E-001  0.3175081E+03  0.7818608E-02  0.1076832E+00
         21   -1    0    0  501  502  0.00000000000E+00  0.00000000000E+00  0.11437086081E+03  0.11437086081E+03  0.00000000000E+00 0. -1.
         21   -1    0    0  502  503 -0.00000000000E+00 -0.00000000000E+00 -0.91295159089E+03  0.91295159089E+03  0.00000000000E+00 0.  1.
         -6    2    1    2    0  503  0.99667163466E+02  0.24715801111E+03 -0.49595561039E+03  0.58888317155E+03  0.17260010524E+03 0.  0.
        -24    2    3    3    0    0  0.26019123509E+02  0.14567857512E+03 -0.16761031976E+03  0.23737950216E+03  0.79728079849E+02 0.  0.
          6    2    1    2  501    0 -0.99667163466E+02 -0.24715801111E+03 -0.30262511969E+03  0.43843928015E+03  0.17212325054E+03 0.  0.
         24    2    5    5    0    0 -0.14582249310E+02 -0.63997361666E+02 -0.48256195726E+02  0.11361177884E+03  0.79187572075E+02 0.  0.
          5    1    5    5  501    0 -0.85084914156E+02 -0.18316064945E+03 -0.25436892397E+03  0.32482750130E+03  0.47000000000E+01 0. -1.
        -13    1    6    6    0    0 -0.38787172099E+02 -0.15457178304E+02 -0.11467773710E+01  0.41769416789E+02  0.00000000000E+00 0.  1.
         14    1    6    6    0    0  0.24204922789E+02 -0.48540183361E+02 -0.47109418355E+02  0.71842362056E+02  0.00000000000E+00 0. -1.
         -5    1    3    3    0  503  0.73648039957E+02  0.10147943599E+03 -0.32834529063E+03  0.35150366939E+03  0.47000000000E+01 0.  1.
         13    1    4    4    0    0  0.47784530912E+02  0.13555794277E+03 -0.13793792222E+03  0.19921392428E+03  0.00000000000E+00 0. -1.
        -14    1    4    4    0    0 -0.21765407403E+02  0.10120632355E+02 -0.29672397544E+02  0.38165577877E+02  0.00000000000E+00 0.  1.
</event>
<event>
12    1  0.1030140E-001  0.1884748E+03  0.7818608E-02  0.1160163E+00
         21   -1    0    0  501  502  0.00000000000E+00  0.00000000000E+00  0.70034176421E+02  0.70034176421E+02  0.00000000000E+00 0.  1.
         21   -1    0    0  502  503 -0.00000000000E+00 -0.00000000000E+00 -0.50647919985E+03  0.50647919985E+03  0.00000000000E+00 0.  1.
         -6    2    1    2    0  503  0.68427715434E+02  0.32519750690E+02 -0.19684547581E+03  0.27252683844E+03  0.17257708393E+03 0.  0.
        -24    2    3    3    0    0 -0.11935219262E+02  0.33961425851E+01 -0.16099866767E+03  0.17971805935E+03  0.78892500416E+02 0.  0.
          6    2    1    2  501    0 -0.68427715434E+02 -0.32519750690E+02 -0.23959954762E+03  0.30398653783E+03  0.17105550426E+03 0.  0.
         24    2    5    5    0    0 -0.40421887911E+01 -0.35006959001E+02 -0.40890112050E+02  0.95038668661E+02  0.78220974224E+02 0.  0.
          5    1    5    5  501    0 -0.64385526643E+02  0.24872083106E+01 -0.19870943557E+03  0.20894786917E+03  0.47000000000E+01 0. -1.
        -13    1    6    6    0    0 -0.29271062293E+02  0.90795456240E+01 -0.30409744286E+02  0.43173901654E+02  0.00000000000E+00 0.  1.
         14    1    6    6    0    0  0.25228873501E+02 -0.44086504625E+02 -0.10480367764E+02  0.51864767007E+02  0.00000000000E+00 0. -1.
         -5    1    3    3    0  503  0.80362934696E+02  0.29123608105E+02 -0.35846808138E+02  0.92808779088E+02  0.47000000000E+01 0.  1.
         11    1    4    4    0    0 -0.31310075970E+02  0.30299868595E+02 -0.65859277611E+02  0.78967381504E+02  0.00000000000E+00 0. -1.
        -12    1    4    4    0    0  0.19374856708E+02 -0.26903726010E+02 -0.95139390059E+02  0.10075067785E+03  0.00000000000E+00 0.  1.
</event>
<event>
12    1  0.1030140E-001  0.1881712E+03  0.7818608E-02  0.1160294E+00
         21   -1    0    0  501  502  0.00000000000E+00  0.00000000000E+00  0.50309366357E+03  0.50309366357E+03  0.00000000000E+00 0. -1.
         21   -1    0    0  502  503 -0.00000000000E+00 -0.00000000000E+00 -0.11367303846E+03  0.11367303846E+03  0.00000000000E+00 0.  1.
         -6    2    1    2    0  503 -0.12581140011E+02  0.77204072465E+02  0.35400301886E+01  0.18745068873E+03  0.17031287386E+03 0.  0.
        -24    2    3    3    0    0 -0.60600167118E+02  0.61290466028E+02  0.43009442363E+02  0.12311567236E+03  0.76673040679E+02 0.  0.
          6    2    1    2  501    0  0.12581140011E+02 -0.77204072465E+02  0.38588059493E+03  0.42931601330E+03  0.17114219773E+03 0.  0.
         24    2    5    5    0    0  0.17635649252E+02 -0.99978780313E+02  0.38448535828E+03  0.40547755557E+03  0.79223006173E+02 0.  0.
          5    1    5    5  501    0 -0.50545092409E+01  0.22774707848E+02  0.13952366473E+01  0.23838457721E+02  0.47000000000E+01 0. -1.
        -13    1    6    6    0    0 -0.14306813475E+02 -0.60116820557E+01  0.15071154853E+03  0.15150840272E+03  0.00000000000E+00 0.  1.
         14    1    6    6    0    0  0.31942462726E+02 -0.93967098257E+02  0.23377380974E+03  0.25396915286E+03  0.00000000000E+00 0. -1.
         -5    1    3    3    0  503  0.48019027107E+02  0.15913606438E+02 -0.39469412175E+02  0.64335016372E+02  0.47000000000E+01 0.  1.
         13    1    4    4    0    0 -0.74528689651E+01  0.21521561798E+02  0.51388749294E+02  0.56209664935E+02  0.00000000000E+00 0. -1.
        -14    1    4    4    0    0 -0.53147298153E+02  0.39768904229E+02 -0.83793069311E+01  0.66906007422E+02  0.00000000000E+00 0.  1.
</event>
<event>
12    1  0.1030140E-001  0.1850015E+03  0.7818608E-02  0.1165901E+00
         21   -1    0    0  501  502  0.00000000000E+00  0.00000000000E+00  0.32687480294E+03  0.32687480294E+03  0.00000000000E+00 0.  1.
         21   -1    0    0  502  503 -0.00000000000E+00 -0.00000000000E+00 -0.15471782481E+03  0.15471782481E+03  0.00000000000E+00 0.  1.
         -6    2    1    2    0  503 -0.28610533481E+02  0.53818798821E+01 -0.57692568738E+02  0.19378854524E+03  0.18269658049E+03 0.  0.
        -24    2    3    3    0    0 -0.20024815236E+02 -0.58739753541E+02 -0.76210101826E+02  0.12633272665E+03  0.79376484748E+02 0.  0.
          6    2    1    2  501    0  0.28610533481E+02 -0.53818798821E+01  0.22984954687E+03  0.28780408251E+03  0.17074205240E+03 0.  0.
         24    2    5    5    0    0  0.22975978355E+01  0.38150291432E+01  0.62271727369E+02  0.11785888751E+03  0.99965573732E+02 0.  0.
          5    1    5    5  501    0  0.26312935646E+02 -0.91969090253E+01  0.16757781950E+03  0.16994519501E+03  0.47000000000E+01 0. -1.
        -11    1    6    6    0    0 -0.44176103211E+02  0.35003448751E+01  0.55298346567E+02  0.70863866972E+02  0.00000000000E+00 0.  1.
         12    1    6    6    0    0  0.46473701047E+02  0.31468426806E+00  0.69733808016E+01  0.46995020534E+02  0.00000000000E+00 0. -1.
         -5    1    3    3    0  503 -0.85857182453E+01  0.64121633423E+02  0.18517533088E+02  0.67455818595E+02  0.47000000000E+01 0.  1.
         13    1    4    4    0    0 -0.24875607070E+02 -0.31980257748E+02  0.48753990143E+01  0.40808114735E+02  0.00000000000E+00 0. -1.
        -14    1    4    4    0    0  0.48507918335E+01 -0.26759495793E+02 -0.81085500840E+02  0.85524611914E+02  0.00000000000E+00 0.  1.
</event>
<event>
12    1  0.1030140E-001  0.1866885E+03  0.7818608E-02  0.1161593E+00
         21   -1    0    0  501  502  0.00000000000E+00  0.00000000000E+00  0.10862524074E+03  0.10862524074E+03  0.00000000000E+00 0. -1.
         21   -1    0    0  502  503 -0.00000000000E+00 -0.00000000000E+00 -0.47728825866E+03  0.47728825866E+03  0.00000000000E+00 0. -1.
         -6    2    1    2    0  503  0.68836836360E+02 -0.17075460359E+02 -0.16331376413E+02  0.18740145376E+03  0.17269195010E+03 0.  0.
        -24    2    3    3    0    0  0.50795143891E+02 -0.48440283440E+00  0.56884237321E+02  0.11004913025E+03  0.79338599211E+02 0.  0.
          6    2    1    2  501    0 -0.68836836360E+02  0.17075460359E+02 -0.35233164150E+03  0.39851204565E+03  0.17217486325E+03 0.  0.
         24    2    5    5    0    0 -0.41516824408E+02  0.58960105598E+01 -0.68960194680E+02  0.11356848979E+03  0.79899210092E+02 0.  0.
          5    1    5    5  501    0 -0.27320011953E+02  0.11179449799E+02 -0.28337144682E+03  0.28494355586E+03  0.47000000000E+01 0. -1.
        -11    1    6    6    0    0  0.86317442277E+01  0.32099471125E+02 -0.20359134207E+02  0.38979191892E+02  0.00000000000E+00 0.  1.
         12    1    6    6    0    0 -0.50148568635E+02 -0.26203460565E+02 -0.48601060473E+02  0.74589297897E+02  0.00000000000E+00 0. -1.
         -5    1    3    3    0  503  0.18041692469E+02 -0.16591057525E+02 -0.73215613734E+02  0.77352323504E+02  0.47000000000E+01 0.  1.
         13    1    4    4    0    0  0.57555995727E+02 -0.12308755946E+02  0.69783040712E+02  0.91290037179E+02  0.00000000000E+00 0. -1.
        -14    1    4    4    0    0 -0.67608518360E+01  0.11824353112E+02 -0.12898803391E+02  0.18759093074E+02  0.00000000000E+00 0.  1.
</event>
<event>
12    1  0.1030140E-001  0.1727146E+03  0.7818608E-02  0.1176287E+00
         21   -1    0    0  501  502  0.00000000000E+00  0.00000000000E+00  0.55879653709E+03  0.55879653709E+03  0.00000000000E+00 0.  1.
         21   -1    0    0  502  503 -0.00000000000E+00 -0.00000000000E+00 -0.57226430009E+02  0.57226430009E+02  0.00000000000E+00 0.  1.
         -6    2    1    2    0  503 -0.18754073548E+02 -0.92287017403E+00  0.15374761582E+03  0.22767929191E+03  0.16687409515E+03 0.  0.
        -24    2    3    3    0    0  0.20325189173E+02  0.43810911409E+02  0.45587936952E+02  0.10419283062E+03  0.80283103351E+02 0.  0.
          6    2    1    2  501    0  0.18754073548E+02  0.92287017403E+00  0.34782249126E+03  0.38834367518E+03  0.17169087823E+03 0.  0.
         24    2    5    5    0    0 -0.16004504946E+02  0.33935230388E+01  0.34197549866E+03  0.35269903706E+03  0.84744963740E+02 0.  0.
          5    1    5    5  501    0  0.34758578494E+02 -0.24706528648E+01  0.58469925928E+01  0.35644638122E+02  0.47000000000E+01 0. -1.
        -13    1    6    6    0    0 -0.32922898443E+01  0.37351098447E+02  0.26466625229E+03  0.26730912597E+03  0.00000000000E+00 0.  1.
         14    1    6    6    0    0 -0.12712215101E+02 -0.33957575408E+02  0.77309246375E+02  0.85389911087E+02  0.00000000000E+00 0. -1.
         -5    1    3    3    0  503 -0.39079262721E+02 -0.44733781583E+02  0.10815967887E+03  0.12348646129E+03  0.47000000000E+01 0.  1.
         13    1    4    4    0    0  0.13144634175E+02  0.20671575142E+02  0.67324884878E+02  0.71643112371E+02  0.00000000000E+00 0. -1.
        -14    1    4    4    0    0  0.71805549977E+01  0.23139336267E+02 -0.21736947926E+02  0.32549718249E+02  0.00000000000E+00 0.  1.
</event>
<event>
12    1  0.1030140E-001  0.1788840E+03  0.7818608E-02  0.1169743E+00
         21   -1    0    0  501  502  0.00000000000E+00  0.00000000000E+00  0.41313835901E+03  0.41313835901E+03  0.00000000000E+00 0.  1.
         21   -1    0    0  502  503 -0.00000000000E+00 -0.00000000000E+00 -0.17890386350E+03  0.17890386350E+03  0.00000000000E+00 0.  1.
         -6    2    1    2    0  503 -0.32045028946E+02  0.15882766872E+02 -0.10694200620E+03  0.20841324470E+03  0.17527219321E+03 0.  0.
        -24    2    3    3    0    0  0.30207493220E+02  0.43369946193E+02 -0.11172034009E+02  0.90833913536E+02  0.73024246828E+02 0.  0.
          6    2    1    2  501    0  0.32045028946E+02 -0.15882766872E+02  0.34117650171E+03  0.38362897781E+03  0.17172839350E+03 0.  0.
         24    2    5    5    0    0  0.82948894201E+02 -0.32770826659E+02  0.20671904435E+03  0.23879352669E+03  0.79593586192E+02 0.  0.
          5    1    5    5  501    0 -0.50903865255E+02  0.16888059787E+02  0.13445745737E+03  0.14483545113E+03  0.47000000000E+01 0. -1.
        -13    1    6    6    0    0  0.37198234211E+02 -0.21701463084E+02  0.17912837786E+03  0.18423256467E+03  0.00000000000E+00 0.  1.
         14    1    6    6    0    0  0.45750659991E+02 -0.11069363575E+02  0.27590666485E+02  0.54560962021E+02  0.00000000000E+00 0. -1.
         -5    1    3    3    0  503 -0.62252522166E+02 -0.27487179321E+02 -0.95769972190E+02  0.11757933116E+03  0.47000000000E+01 0.  1.
         11    1    4    4    0    0  0.27429833188E+01  0.32699413089E+02  0.27082994416E+02  0.42547199207E+02  0.00000000000E+00 0. -1.
        -12    1    4    4    0    0  0.27464509901E+02  0.10670533104E+02 -0.38255028425E+02  0.48286714328E+02  0.00000000000E+00 0.  1.
</event>
<event>
12    1  0.1030140E-001  0.2373767E+03  0.7818608E-02  0.1121689E+00
         21   -1    0    0  503  502  0.00000000000E+00  0.00000000000E+00  0.70382776151E+02  0.70382776151E+02  0.00000000000E+00 0.  1.
         21   -1    0    0  501  503 -0.00000000000E+00 -0.00000000000E+00 -0.88685818060E+03  0.88685818060E+03  0.00000000000E+00 0.  1.
          6    2    1    2  501    0  0.16244320067E+03 -0.23402874707E+02 -0.55921859615E+03  0.60719986734E+03  0.17038413255E+03 0.  0.
         24    2    3    3    0    0  0.15136766302E+03  0.32445314436E+02 -0.40525848303E+03  0.44298204188E+03  0.89631375787E+02 0.  0.
         -6    2    1    2    0  502 -0.16244320067E+03  0.23402874707E+02 -0.25725680830E+03  0.35004108942E+03  0.17149988593E+03 0.  0.
        -24    2    5    5    0    0 -0.10603844197E+03 -0.18462548127E+02 -0.24310849817E+03  0.27823248887E+03  0.82015602914E+02 0.  0.
          5    1    3    3  501    0  0.11075537647E+02 -0.55848189143E+02 -0.15396011312E+03  0.16421782546E+03  0.47000000000E+01 0. -1.
        -11    1    4    4    0    0  0.13753831769E+03  0.19206002916E+02 -0.24530473671E+03  0.28188663188E+03  0.00000000000E+00 0.  1.
         12    1    4    4    0    0  0.13829345332E+02  0.13239311520E+02 -0.15995374632E+03  0.16109541000E+03  0.00000000000E+00 0. -1.
         -5    1    5    5    0  502 -0.56404758698E+02  0.41865422834E+02 -0.14148310129E+02  0.71808600545E+02  0.47000000000E+01 0.  1.
         13    1    6    6    0    0  0.13394554364E+02 -0.67119115962E+01 -0.21331532190E+02  0.26067184532E+02  0.00000000000E+00 0. -1.
        -14    1    6    6    0    0 -0.11943299633E+03 -0.11750636531E+02 -0.22177696598E+03  0.25216530434E+03  0.00000000000E+00 0.  1.
</event>
<event>
12    1  0.1030140E-001  0.2989687E+03  0.7818608E-02  0.1085983E+00
         21   -1    0    0  503  502  0.00000000000E+00  0.00000000000E+00  0.12572469133E+03  0.12572469133E+03  0.00000000000E+00 0. -1.
         21   -1    0    0  501  503 -0.00000000000E+00 -0.00000000000E+00 -0.11936071546E+04  0.11936071546E+04  0.00000000000E+00 0.  1.
          6    2    1    2  501    0  0.88558903808E+02  0.22848975387E+03 -0.95622906939E+03  0.10018764075E+04  0.17126603767E+03 0.  0.
         24    2    3    3    0    0 -0.17028065826E+02  0.91734636981E+02 -0.47965738345E+03  0.49493140850E+03  0.78617396149E+02 0.  0.
         -6    2    1    2    0  502 -0.88558903808E+02 -0.22848975387E+03 -0.11165339390E+03  0.31745543846E+03  0.16811076103E+03 0.  0.
        -24    2    5    5    0    0 -0.26945047636E+02 -0.22014162358E+03 -0.10172310074E+03  0.25431544105E+03  0.71696473448E+02 0.  0.
          5    1    3    3  501    0  0.10558696963E+03  0.13675511689E+03 -0.47657168594E+03  0.50694499898E+03  0.47000000000E+01 0. -1.
        -11    1    4    4    0    0 -0.84432763080E+01  0.35065609792E+02 -0.51033778950E+02  0.62492659559E+02  0.00000000000E+00 0.  1.
         12    1    4    4    0    0 -0.85847895182E+01  0.56669027189E+02 -0.42862360450E+03  0.43243874894E+03  0.00000000000E+00 0. -1.
         -5    1    5    5    0  502 -0.61613856173E+02 -0.83481302923E+01 -0.99302931564E+01  0.63139997419E+02  0.47000000000E+01 0.  1.
         11    1    6    6    0    0 -0.44913579162E+02 -0.20352336299E+03 -0.94119217080E+02  0.22868628271E+03  0.00000000000E+00 0. -1.
        -12    1    6    6    0    0  0.17968531527E+02 -0.16618260591E+02 -0.76038836639E+01  0.25629158337E+02  0.00000000000E+00 0.  1.
</event>
<event>
12    1  0.1030140E-001  0.2582216E+03  0.7818608E-02  0.1108462E+00
         21   -1    0    0  501  502  0.00000000000E+00  0.00000000000E+00  0.12062842236E+03  0.12062842236E+03  0.00000000000E+00 0. -1.
         21   -1    0    0  502  503 -0.00000000000E+00 -0.00000000000E+00 -0.61625453349E+03  0.61625453349E+03  0.00000000000E+00 0. -1.
         -6    2    1    2    0  503 -0.13417791346E+03 -0.13665350975E+03 -0.36855801598E+03  0.44909018971E+03  0.17078961668E+03 0.  0.
        -24    2    3    3    0    0 -0.14485261480E+03 -0.55596555538E+02 -0.26223286358E+03  0.31488397857E+03  0.79451798111E+02 0.  0.
          6    2    1    2  501    0  0.13417791346E+03  0.13665350975E+03 -0.12706809515E+03  0.28779276615E+03  0.17320647002E+03 0.  0.
         24    2    5    5    0    0  0.24916253157E+02  0.42456028759E+00 -0.53711573942E+02  0.98320588014E+02  0.78492069213E+02 0.  0.
          5    1    5    5  501    0  0.10926166030E+03  0.13622894946E+03 -0.73356521211E+02  0.18947217813E+03  0.47000000000E+01 0. -1.
        -11    1    6    6    0    0  0.10144676421E+02 -0.29728036931E+02  0.38860355876E+01  0.31650780592E+02  0.00000000000E+00 0.  1.
         12    1    6    6    0    0  0.14771576735E+02  0.30152597219E+02 -0.57597609530E+02  0.66669807423E+02  0.00000000000E+00 0. -1.
         -5    1    3    3    0  503  0.10674701337E+02 -0.81056954209E+02 -0.10632515240E+03  0.13420621114E+03  0.47000000000E+01 0.  1.
         11    1    4    4    0    0 -0.10320958072E+02 -0.20154377524E+02 -0.93451841478E+02  0.96155955534E+02  0.00000000000E+00 0. -1.
        -12    1    4    4    0    0 -0.13453165672E+03 -0.35442178014E+02 -0.16878102210E+03  0.21872802304E+03  0.00000000000E+00 0.  1.
</event>
<event>
12    1  0.1030140E-001  0.2206156E+03  0.7818608E-02  0.1133553E+00
         21   -1    0    0  503  502  0.00000000000E+00  0.00000000000E+00  0.59565923131E+02  0.59565923131E+02  0.00000000000E+00 0.  1.
         21   -1    0    0  501  503 -0.00000000000E+00 -0.00000000000E+00 -0.83927549072E+03  0.83927549072E+03  0.00000000000E+00 0.  1.
          6    2    1    2  501    0  0.12881466970E+03  0.51210336682E+02 -0.46640914623E+03  0.51565948353E+03  0.17073808467E+03 0.  0.
         24    2    3    3    0    0  0.23773334172E+02  0.29963115586E+02 -0.33302579927E+03  0.34449192288E+03  0.79407444451E+02 0.  0.
         -6    2    1    2    0  502 -0.12881466970E+03 -0.51210336682E+02 -0.31330042135E+03  0.38318193031E+03  0.17162610520E+03 0.  0.
        -24    2    5    5    0    0 -0.43876446163E+02  0.39340884963E+01 -0.24337039989E+03  0.26002468388E+03  0.80268705652E+02 0.  0.
          5    1    3    3  501    0  0.10504133553E+03  0.21247221096E+02 -0.13338334696E+03  0.17116756065E+03  0.47000000000E+01 0. -1.
        -11    1    4    4    0    0  0.52257347109E+02  0.22542047110E+02 -0.25020398213E+03  0.25659502506E+03  0.00000000000E+00 0.  1.
         12    1    4    4    0    0 -0.28484012938E+02  0.74210684762E+01 -0.82821817145E+02  0.87896897815E+02  0.00000000000E+00 0. -1.
         -5    1    5    5    0  502 -0.84938223539E+02 -0.55144425178E+02 -0.69930021467E+02  0.12315724643E+03  0.47000000000E+01 0.  1.
         13    1    6    6    0    0  0.17260701430E+02 -0.15493559836E+02 -0.34875847801E+02  0.41884447831E+02  0.00000000000E+00 0. -1.
        -14    1    6    6    0    0 -0.61137147592E+02  0.19427648332E+02 -0.20849455209E+03  0.21814023605E+03  0.00000000000E+00 0.  1.
</event>
<event>
12    1  0.1030140E-001  0.2304168E+03  0.7818608E-02  0.1126638E+00
         21   -1    0    0  503  502  0.00000000000E+00  0.00000000000E+00  0.17531234297E+03  0.17531234297E+03  0.00000000000E+00 0. -1.
         21   -1    0    0  501  503 -0.00000000000E+00 -0.00000000000E+00 -0.54830442694E+03  0.54830442694E+03  0.00000000000E+00 0.  1.
          6    2    1    2  501    0  0.12724820356E+03 -0.87287942133E+02  0.56281751565E+02  0.23719095537E+03  0.17111581925E+03 0.  0.
         24    2    3    3    0    0  0.56788274032E+02  0.51218097375E+01  0.70002905808E+02  0.12008192932E+03  0.79171471655E+02 0.  0.
         -6    2    1    2    0  502 -0.12724820356E+03  0.87287942133E+02 -0.42927383554E+03  0.48642581453E+03  0.16888681717E+03 0.  0.
        -24    2    5    5    0    0 -0.52967459669E+02 -0.48734469711E+01 -0.10911080552E+03  0.14504947331E+03  0.79403271708E+02 0.  0.
          5    1    3    3  501    0  0.70459929529E+02 -0.92409751870E+02 -0.13721154243E+02  0.11710902606E+03  0.47000000000E+01 0. -1.
        -13    1    4    4    0    0 -0.13988802227E+02 -0.56599148985E+01 -0.54726406439E+01  0.16052134438E+02  0.00000000000E+00 0.  1.
         14    1    4    4    0    0  0.70777076260E+02  0.10781724636E+02  0.75475546452E+02  0.10402979488E+03  0.00000000000E+00 0. -1.
         -5    1    5    5    0  502 -0.74280743893E+02  0.92161389104E+02 -0.32016303001E+03  0.34137634122E+03  0.47000000000E+01 0.  1.
         13    1    6    6    0    0  0.39205612657E+01 -0.28170248712E+01  0.11065467009E+02  0.12072737465E+02  0.00000000000E+00 0. -1.
        -14    1    6    6    0    0 -0.56888020934E+02 -0.20564220998E+01 -0.12017627253E+03  0.13297673585E+03  0.00000000000E+00 0.  1.
</event>
<event>
12    1  0.1030140E-001  0.1882105E+03  0.7818608E-02  0.1160276E+00
         21   -1    0    0  503  502  0.00000000000E+00  0.00000000000E+00  0.16481458547E+03  0.16481458547E+03  0.00000000000E+00 0. -1.
         21   -1    0    0  501  503 -0.00000000000E+00 -0.00000000000E+00 -0.30474914284E+03  0.30474914284E+03  0.00000000000E+00 0. -1.
          6    2    1    2  501    0  0.63012818498E+02 -0.39022427822E+02 -0.19821171270E+03  0.27333324255E+03  0.17300235047E+03 0.  0.
         24    2    3    3    0    0  0.51202604607E+02 -0.44883610334E+01 -0.27545936508E+02  0.98745212944E+02  0.79686801654E+02 0.  0.
         -6    2    1    2    0  502 -0.63012818498E+02  0.39022427822E+02  0.58277155334E+02  0.19623048575E+03  0.17209535594E+03 0.  0.
        -24    2    5    5    0    0  0.24607851341E+02 -0.48561690470E+01 -0.78294053641E+01  0.77930526269E+02  0.73367149398E+02 0.  0.
          5    1    3    3  501    0  0.11810213891E+02 -0.34534066788E+02 -0.17066577619E+03  0.17458802961E+03  0.47000000000E+01 0. -1.
        -13    1    4    4    0    0  0.69058449319E+02  0.41114274360E+01 -0.35050269183E+02  0.77553172905E+02  0.00000000000E+00 0.  1.
         14    1    4    4    0    0 -0.17855844712E+02 -0.85997884694E+01  0.75043326748E+01  0.21192040038E+02  0.00000000000E+00 0. -1.
         -5    1    5    5    0  502 -0.87620669839E+02  0.43878596868E+02  0.66106560698E+02  0.11829995948E+03  0.47000000000E+01 0.  1.
         13    1    6    6    0    0 -0.68926493483E-01  0.31878137282E+02  0.39876361664E+01  0.32126649835E+02  0.00000000000E+00 0. -1.
        -14    1    6    6    0    0  0.24676777835E+02 -0.36734306329E+02 -0.11817041531E+02  0.45803876434E+02  0.00000000000E+00 0.  1.
</event>
<event>
12    1  0.1030140E-001  0.2070953E+03  0.7818608E-02  0.1144080E+00
         21   -1    0    0  503  502  0.00000000000E+00  0.00000000000E+00  0.12018436476E+04  0.12018436476E+04  0.00000000000E+00 0. -1.
         21   -1    0    0  501  503 -0.00000000000E+00 -0.00000000000E+00 -0.35728890852E+02  0.35728890852E+02  0.00000000000E+00 0.  1.
          6    2    1    2  501    0  0.59814759093E+02  0.99447292089E+02  0.53454819295E+03  0.57291866745E+03  0.17037153406E+03 0.  0.
         24    2    3    3    0    0 -0.23666649578E+01  0.32780830829E+01  0.13148256093E+03  0.15387327615E+03  0.79830911002E+02 0.  0.
         -6    2    1    2    0  502 -0.59814759093E+02 -0.99447292089E+02  0.63156656379E+03  0.66465387100E+03  0.17152514224E+03 0.  0.
        -24    2    5    5    0    0 -0.28230199802E+02 -0.84478830086E+02  0.20939013633E+03  0.24100700727E+03  0.79413672923E+02 0.  0.
          5    1    3    3  501    0  0.62181424051E+02  0.96169209006E+02  0.40306563202E+03  0.41904539131E+03  0.47000000000E+01 0. -1.
        -13    1    4    4    0    0  0.37619685785E+02  0.23624382487E+01  0.81989214512E+02  0.90238867287E+02  0.00000000000E+00 0.  1.
         14    1    4    4    0    0 -0.39986350742E+02  0.91564483421E+00  0.49493346420E+02  0.63634408860E+02  0.00000000000E+00 0. -1.
         -5    1    5    5    0  502 -0.31584559291E+02 -0.14968462003E+02  0.42217642747E+03  0.42364686373E+03  0.47000000000E+01 0.  1.
         11    1    6    6    0    0 -0.22441262130E+02 -0.72925787245E+02  0.21407158547E+03  0.22726289710E+03  0.00000000000E+00 0. -1.
        -12    1    6    6    0    0 -0.57889376724E+01 -0.11553042841E+02 -0.46814491436E+01  0.13744110170E+02  0.00000000000E+00 0.  1.
</event>
<event>
12    1  0.1030140E-001  0.1902264E+03  0.7818608E-02  0.1158659E+00
         21   -1    0    0  503  502  0.00000000000E+00  0.00000000000E+00  0.91345155849E+03  0.91345155849E+03  0.00000000000E+00 0.  1.
         21   -1    0    0  501  503 -0.00000000000E+00 -0.00000000000E+00 -0.85594200950E+02  0.85594200950E+02  0.00000000000E+00 0.  1.
          6    2    1    2  501    0  0.70397354001E+02 -0.41171407128E+02  0.47241165807E+02  0.19600466285E+03  0.17185816215E+03 0.  0.
         24    2    3    3    0    0  0.37337188036E+02 -0.92384454185E+02  0.39211473422E+02  0.13434173458E+03  0.81124651109E+02 0.  0.
         -6    2    1    2    0  502 -0.70397354001E+02  0.41171407128E+02  0.78061619173E+03  0.80304109659E+03  0.16988964595E+03 0.  0.
        -24    2    5    5    0    0 -0.22438850137E+02  0.17025862525E+02  0.70615143855E+03  0.71111659016E+03  0.79016255500E+02 0.  0.
          5    1    3    3  501    0  0.33060165964E+02  0.51213047057E+02  0.80296923845E+01  0.61662928265E+02  0.47000000000E+01 0. -1.
        -11    1    4    4    0    0 -0.14272982825E+02 -0.58619341406E+02  0.40481384860E+02  0.72654578284E+02  0.00000000000E+00 0.  1.
         12    1    4    4    0    0  0.51610170861E+02 -0.33765112779E+02 -0.12699114375E+01  0.61687156300E+02  0.00000000000E+00 0. -1.
         -5    1    5    5    0  502 -0.47958503863E+02  0.24145544603E+02  0.74464753175E+02  0.91924506430E+02  0.47000000000E+01 0.  1.
         13    1    6    6    0    0 -0.48970417914E+02  0.23187097282E+02  0.54420204287E+03  0.54689268305E+03  0.00000000000E+00 0. -1.
        -14    1    6    6    0    0  0.26531567776E+02 -0.61612347563E+01  0.16194939568E+03  0.16422390710E+03  0.00000000000E+00 0.  1.
</event>
<event>
12    1  0.1030140E-001  0.2063822E+03  0.7818608E-02  0.1144511E+00
         21   -1    0    0  503  502  0.00000000000E+00  0.00000000000E+00  0.83669332015E+02  0.83669332015E+02  0.00000000000E+00 0. -1.
         21   -1    0    0  501  503 -0.00000000000E+00 -0.00000000000E+00 -0.52709714717E+03  0.52709714717E+03  0.00000000000E+00 0. -1.
          6    2    1    2  501    0 -0.10134047941E+03 -0.53107612579E+02 -0.27896916577E+03  0.34687206844E+03  0.17148214231E+03 0.  0.
         24    2    3    3    0    0 -0.70616352059E+02  0.34981292128E+02 -0.16606506152E+03  0.20033519973E+03  0.79663213693E+02 0.  0.
         -6    2    1    2    0  502  0.10134047941E+03  0.53107612579E+02 -0.16445864938E+03  0.26389441075E+03  0.17176525081E+03 0.  0.
        -24    2    5    5    0    0  0.51524359862E+02 -0.94316676937E+01 -0.15804270497E+03  0.18354478918E+03  0.77249446753E+02 0.  0.
          5    1    3    3  501    0 -0.30724127350E+02 -0.88088904707E+02 -0.11290410425E+03  0.14653686871E+03  0.47000000000E+01 0. -1.
        -11    1    4    4    0    0  0.97979213577E+01  0.34185512018E+01 -0.71512894629E+02  0.72261883822E+02  0.00000000000E+00 0.  1.
         12    1    4    4    0    0 -0.80414273416E+02  0.31562740926E+02 -0.94552166894E+02  0.12807331591E+03  0.00000000000E+00 0. -1.
         -5    1    5    5    0  502  0.49816119546E+02  0.62539280272E+02 -0.64159444056E+01  0.80349621569E+02  0.47000000000E+01 0.  1.
         13    1    6    6    0    0  0.38235206390E+02  0.18465904595E+02 -0.30416794018E+02  0.52231235851E+02  0.00000000000E+00 0. -1.
        -14    1    6    6    0    0  0.13289153472E+02 -0.27897572288E+02 -0.12762591096E+03  0.13131355333E+03  0.00000000000E+00 0.  1.
</event>
<event>
12    1  0.1030140E-001  0.2091986E+03  0.7818608E-02  0.1142353E+00
         21   -1    0    0  503  502  0.00000000000E+00  0.00000000000E+00  0.52356585580E+03  0.52356585580E+03  0.00000000000E+00 0. -1.
         21   -1    0    0  501  503 -0.00000000000E+00 -0.00000000000E+00 -0.10266180453E+03  0.10266180453E+03  0.00000000000E+00 0.  1.
          6    2    1    2  501    0  0.57322671493E+01 -0.11613602998E+03  0.74118753793E+02  0.22122878759E+03  0.17299754464E+03 0.  0.
         24    2    3    3    0    0 -0.43588052226E+02 -0.47981066541E+02 -0.92572185216E+01  0.10269087929E+03  0.79105117105E+02 0.  0.
         -6    2    1    2    0  502 -0.57322671493E+01  0.11613602998E+03  0.34678529748E+03  0.40499887274E+03  0.17390689471E+03 0.  0.
        -24    2    5    5    0    0  0.14542518107E+02  0.99261838525E+02  0.12040055508E+03  0.17703407975E+03  0.82343028285E+02 0.  0.
          5    1    3    3  501    0  0.49320319375E+02 -0.68154963438E+02  0.83375972314E+02  0.11853790830E+03  0.47000000000E+01 0. -1.
        -13    1    4    4    0    0 -0.14712105805E+01 -0.29376614446E+02  0.30124841324E+02  0.42102921534E+02  0.00000000000E+00 0.  1.
         14    1    4    4    0    0 -0.42116841645E+02 -0.18604452095E+02 -0.39382059846E+02  0.60587957761E+02  0.00000000000E+00 0. -1.
         -5    1    5    5    0  502 -0.20274785257E+02  0.16874191455E+02  0.22638474240E+03  0.22796479299E+03  0.47000000000E+01 0.  1.
         13    1    6    6    0    0 -0.20583055200E+02  0.59428619552E+02  0.10384502840E+03  0.12140516013E+03  0.00000000000E+00 0. -1.
        -14    1    6    6    0    0  0.35125573307E+02  0.39833218973E+02  0.16555526685E+02  0.55628919617E+02  0.00000000000E+00 0.  1.
</event>
<event>
12    1  0.1030140E-001  0.2506138E+03  0.7818608E-02  0.1112977E+00
         21   -1    0    0  501  502  0.00000000000E+00  0.00000000000E+00  0.13379936213E+03  0.13379936213E+03  0.00000000000E+00 0. -1.
         21   -1    0    0  502  503 -0.00000000000E+00 -0.00000000000E+00 -0.49066006782E+03  0.49066006782E+03  0.00000000000E+00 0.  1.
         -6    2    1    2    0  503 -0.17900190248E+03  0.32471287672E+02 -0.24435236135E+03  0.34974977361E+03  0.17181607034E+03 0.  0.
        -24    2    3    3    0    0 -0.57845124217E+02  0.42422344483E+01 -0.19012785977E+03  0.21396232597E+03  0.79165768633E+02 0.  0.
          6    2    1    2  501    0  0.17900190248E+03 -0.32471287672E+02 -0.11250834433E+03  0.27470965634E+03  0.17236937700E+03 0.  0.
         24    2    5    5    0    0  0.18028010331E+03 -0.64252657502E+02 -0.12196249757E+03  0.24119607284E+03  0.81678486129E+02 0.  0.
          5    1    5    5  501    0 -0.12782008222E+01  0.31781369830E+02  0.94541532388E+01  0.33513583501E+02  0.47000000000E+01 0. -1.
        -11    1    6    6    0    0  0.49569829174E+02  0.18836901326E+02 -0.35480703030E+02  0.63803425483E+02  0.00000000000E+00 0.  1.
         12    1    6    6    0    0  0.13071027413E+03 -0.83089558827E+02 -0.86481794544E+02  0.17739264736E+03  0.00000000000E+00 0. -1.
         -5    1    3    3    0  503 -0.12115677827E+03  0.28229053223E+02 -0.54224501582E+02  0.13578744764E+03  0.47000000000E+01 0.  1.
         13    1    4    4    0    0  0.12765901649E+02 -0.16333341624E+02 -0.20872105550E+02  0.29417530209E+02  0.00000000000E+00 0. -1.
        -14    1    4    4    0    0 -0.70611025866E+02  0.20575576072E+02 -0.16925575422E+03  0.18454479576E+03  0.00000000000E+00 0.  1.
</event>
<event>
12    1  0.1030140E-001  0.1829088E+03  0.7818608E-02  0.1165218E+00
         21   -1    0    0  501  502  0.00000000000E+00  0.00000000000E+00  0.23077347712E+02  0.23077347712E+02  0.00000000000E+00 0.  1.
         21   -1    0    0  502  503 -0.00000000000E+00 -0.00000000000E+00 -0.16417228939E+04  0.16417228939E+04  0.00000000000E+00 0.  1.
         -6    2    1    2    0  503  0.50128997456E+02 -0.45799741676E+02 -0.11005699951E+04  0.11156656931E+04  0.16983842880E+03 0.  0.
        -24    2    3    3    0    0  0.15505205431E+02  0.29265978008E+01 -0.95883217225E+03  0.96176714353E+03  0.73402502993E+02 0.  0.
          6    2    1    2  501    0 -0.50128997456E+02  0.45799741676E+02 -0.51807555103E+03  0.54913454847E+03  0.16892585066E+03 0.  0.
         24    2    5    5    0    0  0.36389092090E+01  0.84445448278E+02 -0.34476786055E+03  0.36354865459E+03  0.78475927468E+02 0.  0.
          5    1    5    5  501    0 -0.53767906665E+02 -0.38645706602E+02 -0.17330769049E+03  0.18558589388E+03  0.47000000000E+01 0. -1.
        -11    1    6    6    0    0  0.58081035296E+01 -0.55545043624E+01 -0.89455268955E+00  0.80862110927E+01  0.00000000000E+00 0.  1.
         12    1    6    6    0    0 -0.21691943205E+01  0.89999952641E+02 -0.34387330786E+03  0.35546244349E+03  0.00000000000E+00 0. -1.
         -5    1    3    3    0  503  0.34623792025E+02 -0.48726339477E+02 -0.14173782288E+03  0.15389854960E+03  0.47000000000E+01 0.  1.
         13    1    4    4    0    0 -0.19866239095E+02  0.11881808778E+02 -0.12426112841E+03  0.12639886419E+03  0.00000000000E+00 0. -1.
        -14    1    4    4    0    0  0.35371444526E+02 -0.89552109771E+01 -0.83457104385E+03  0.83536827933E+03  0.00000000000E+00 0.  1.
</event>
<event>
12    1  0.1030140E-001  0.3639512E+03  0.7818608E-02  0.1057054E+00
         21   -1    0    0  501  502  0.00000000000E+00  0.00000000000E+00  0.71052722288E+03  0.71052722288E+03  0.00000000000E+00 0.  1.
         21   -1    0    0  502  503 -0.00000000000E+00 -0.00000000000E+00 -0.22361869675E+03  0.22361869675E+03  0.00000000000E+00 0.  1.
         -6    2    1    2    0  503  0.39356251658E+02  0.31832383159E+03  0.52720727439E+02  0.36774984031E+03  0.17199271393E+03 0.  0.
        -24    2    3    3    0    0  0.70104164615E+02  0.11875713094E+03  0.36557976319E+02  0.16512795926E+03  0.83143894843E+02 0.  0.
          6    2    1    2  501    0 -0.39356251658E+02 -0.31832383159E+03  0.43418779869E+03  0.56639607932E+03  0.17148322899E+03 0.  0.
         24    2    5    5    0    0 -0.40767988888E+02 -0.21791641756E+03  0.39138283488E+03  0.45713493928E+03  0.81499909918E+02 0.  0.
          5    1    5    5  501    0  0.14117372305E+01 -0.10040741403E+03  0.42804963820E+02  0.10926114003E+03  0.47000000000E+01 0. -1.
        -13    1    6    6    0    0 -0.23511276742E+01 -0.17554222674E+02  0.99244909124E+02  0.10081284899E+03  0.00000000000E+00 0.  1.
         14    1    6    6    0    0 -0.38416861214E+02 -0.20036219489E+03  0.29213792575E+03  0.35632209029E+03  0.00000000000E+00 0. -1.
         -5    1    3    3    0  503 -0.30747912957E+02  0.19956670065E+03  0.16162751121E+02  0.20262188106E+03  0.47000000000E+01 0.  1.
         13    1    4    4    0    0 -0.65280095784E+01 -0.75170148229E+01  0.11666814881E+02  0.15337372342E+02  0.00000000000E+00 0. -1.
        -14    1    4    4    0    0  0.76632174194E+02  0.12627414577E+03  0.24891161438E+02  0.14979058692E+03  0.00000000000E+00 0.  1.
</event>
<event>
12    1  0.1030140E-001  0.1787657E+03  0.7818608E-02  0.1169072E+00
         21   -1    0    0  503  502  0.00000000000E+00  0.00000000000E+00  0.88995281730E+03  0.88995281730E+03  0.00000000000E+00 0.  1.
         21   -1    0    0  501  503 -0.00000000000E+00 -0.00000000000E+00 -0.38559875812E+02  0.38559875812E+02  0.00000000000E+00 0.  1.
          6    2    1    2  501    0 -0.13222349325E+02 -0.44747004628E+02  0.30298326301E+03  0.35178973581E+03  0.17256893004E+03 0.  0.
         24    2    3    3    0    0  0.59233021040E+02 -0.28904541780E+02  0.19054387388E+03  0.21701039559E+03  0.80265313825E+02 0.  0.
         -6    2    1    2    0  502  0.13222349325E+02  0.44747004628E+02  0.54840967848E+03  0.57672295729E+03  0.17227614193E+03 0.  0.
        -24    2    5    5    0    0 -0.17044151037E+02  0.84795364740E+02  0.39419318448E+03  0.41447392274E+03  0.94443681522E+02 0.  0.
          5    1    3    3  501    0 -0.72455370365E+02 -0.15842462848E+02  0.11243938912E+03  0.13477934022E+03  0.47000000000E+01 0. -1.
        -13    1    4    4    0    0 -0.77149140129E+01 -0.34728923065E+02  0.51684091096E+02  0.62744428182E+02  0.00000000000E+00 0.  1.
         14    1    4    4    0    0  0.66947935053E+02  0.58243812845E+01  0.13885978279E+03  0.15426596741E+03  0.00000000000E+00 0. -1.
         -5    1    5    5    0  502  0.30266500361E+02 -0.40048360112E+02  0.15421649400E+03  0.16224903455E+03  0.47000000000E+01 0.  1.
         11    1    6    6    0    0  0.20483483488E+02 -0.79403243750E+01  0.32708373906E+02  0.39401263565E+02  0.00000000000E+00 0. -1.
        -12    1    6    6    0    0 -0.37527634524E+02  0.92735689115E+02  0.36148481057E+03  0.37507265918E+03  0.00000000000E+00 0.  1.
</event>
<event>
12    1  0.1030140E-001  0.4154649E+03  0.7818608E-02  0.1038918E+00
         21   -1    0    0  503  502  0.00000000000E+00  0.00000000000E+00  0.17680622354E+03  0.17680622354E+03  0.00000000000E+00 0.  1.
         21   -1    0    0  501  503 -0.00000000000E+00 -0.00000000000E+00 -0.96704738717E+03  0.96704738717E+03  0.00000000000E+00 0. -1.
          6    2    1    2  501    0  0.35575675755E+03 -0.11102409444E+03 -0.37804104972E+03  0.56171709753E+03  0.18363507912E+03 0.  0.
         24    2    3    3    0    0  0.23570662669E+03  0.54262072987E+01 -0.18461223291E+03  0.30596427961E+03  0.62812469042E+02 0.  0.
         -6    2    1    2    0  502 -0.35575675755E+03  0.11102409444E+03 -0.41220011391E+03  0.58213651318E+03  0.17344960645E+03 0.  0.
        -24    2    5    5    0    0 -0.16459883347E+03  0.11810835935E+03 -0.24867021212E+03  0.33043101557E+03  0.79406681866E+02 0.  0.
          5    1    3    3  501    0  0.12005013086E+03 -0.11645030174E+03 -0.19342881682E+03  0.25575281791E+03  0.47000000000E+01 0. -1.
        -11    1    4    4    0    0  0.20528385237E+03 -0.17234791568E+02 -0.15359433988E+03  0.25696248623E+03  0.00000000000E+00 0.  1.
         12    1    4    4    0    0  0.30422774317E+02  0.22660998867E+02 -0.31017893030E+02  0.49001793383E+02  0.00000000000E+00 0. -1.
         -5    1    5    5    0  502 -0.19115792408E+03 -0.70842649044E+01 -0.16352990178E+03  0.25170549760E+03  0.47000000000E+01 0.  1.
         13    1    6    6    0    0 -0.13705281362E+03  0.56974710960E+02 -0.19170895199E+03  0.24244981684E+03  0.00000000000E+00 0. -1.
        -14    1    6    6    0    0 -0.27546019854E+02  0.61133648388E+02 -0.56961260131E+02  0.87981198734E+02  0.00000000000E+00 0.  1.
</event>
<event>
12    1  0.1030140E-001  0.1888909E+03  0.7818608E-02  0.1160285E+00
         21   -1    0    0  503  502  0.00000000000E+00  0.00000000000E+00  0.14984349012E+03  0.14984349012E+03  0.00000000000E+00 0.  1.
         21   -1    0    0  501  503 -0.00000000000E+00 -0.00000000000E+00 -0.44674111778E+03  0.44674111778E+03  0.00000000000E+00 0.  1.
          6    2    1    2  501    0  0.92343546963E+01  0.65672093898E+02 -0.35520634326E+03  0.40230747311E+03  0.17686621893E+03 0.  0.
         24    2    3    3    0    0  0.12678592683E+02  0.59765252394E+02 -0.37123723476E+03  0.38425662730E+03  0.78124509899E+02 0.  0.
         -6    2    1    2    0  502 -0.92343546963E+01 -0.65672093898E+02  0.58308715603E+02  0.19427713479E+03  0.17304797475E+03 0.  0.
        -24    2    5    5    0    0 -0.23453905017E+02 -0.78538426031E+02  0.98122707600E+02  0.14983636441E+03  0.78131301844E+02 0.  0.
          5    1    3    3  501    0 -0.34442379868E+01  0.59068415047E+01  0.16030891500E+02  0.18050845802E+02  0.47000000000E+01 0. -1.
        -11    1    4    4    0    0  0.17200061307E+01 -0.17497522905E+02 -0.11696938824E+03  0.11828338647E+03  0.00000000000E+00 0.  1.
         12    1    4    4    0    0  0.10958586552E+02  0.77262775299E+02 -0.25426784653E+03  0.26597324084E+03  0.00000000000E+00 0. -1.
         -5    1    5    5    0  502  0.14219550320E+02  0.12866332133E+02 -0.39813991997E+02  0.44440770387E+02  0.47000000000E+01 0.  1.
         11    1    6    6    0    0 -0.39198409262E+02 -0.41535689879E+02  0.17485412064E+02  0.59728288586E+02  0.00000000000E+00 0. -1.
        -12    1    6    6    0    0  0.15744504246E+02 -0.37002736153E+02  0.80637295536E+02  0.90108075821E+02  0.00000000000E+00 0.  1.
</event>
<event>
12    1  0.1030140E-001  0.2036458E+03  0.7818608E-02  0.1149912E+00
         21   -1    0    0  503  502  0.00000000000E+00  0.00000000000E+00  0.14331792230E+04  0.14331792230E+04  0.00000000000E+00 0.  1.
         21   -1    0    0  501  503 -0.00000000000E+00 -0.00000000000E+00 -0.26891396114E+02  0.26891396114E+02  0.00000000000E+00 0. -1.
          6    2    1    2  501    0  0.73151455177E+02  0.35301072935E+02  0.75914877311E+03  0.78598886130E+03  0.18674669804E+03 0.  0.
         24    2    3    3    0    0 -0.30863750596E+02  0.45780687718E+02  0.42791510486E+03  0.43861756378E+03  0.78902394262E+02 0.  0.
         -6    2    1    2    0  502 -0.73151455177E+02 -0.35301072935E+02  0.64713905373E+03  0.67408175777E+03  0.17029374665E+03 0.  0.
        -24    2    5    5    0    0 -0.80655075516E+01  0.13778410087E+02  0.14865426494E+03  0.16895390179E+03  0.78692016420E+02 0.  0.
          5    1    3    3  501    0  0.10401520577E+03 -0.10479614783E+02  0.33123366825E+03  0.34737129752E+03  0.47000000000E+01 0. -1.
        -11    1    4    4    0    0  0.83331523109E+01  0.17297851782E+02  0.31700168066E+03  0.31758262334E+03  0.00000000000E+00 0.  1.
         12    1    4    4    0    0 -0.39196902907E+02  0.28482835936E+02  0.11091342419E+03  0.12103494044E+03  0.00000000000E+00 0. -1.
         -5    1    5    5    0  502 -0.65085947625E+02 -0.49079483022E+02  0.49848478879E+03  0.50512785598E+03  0.47000000000E+01 0.  1.
         11    1    6    6    0    0 -0.22998824583E+02 -0.11086922653E+02  0.10199389813E+02  0.27493514484E+02  0.00000000000E+00 0. -1.
        -12    1    6    6    0    0  0.14933317032E+02  0.24865332741E+02  0.13845487513E+03  0.14146038731E+03  0.00000000000E+00 0.  1.
</event>
<event>
12    1  0.1030140E-001  0.2702777E+03  0.7818608E-02  0.1101155E+00
         21   -1    0    0  501  502  0.00000000000E+00  0.00000000000E+00  0.14604896183E+04  0.14604896183E+04  0.00000000000E+00 0.  1.
         21   -1    0    0  502  503 -0.00000000000E+00 -0.00000000000E+00 -0.55107529956E+02  0.55107529956E+02  0.00000000000E+00 0. -1.
         -6    2    1    2    0  503  0.28305548063E+02 -0.20682837861E+03  0.47111311789E+03  0.54301885220E+03  0.17129717378E+03 0.  0.
        -24    2    3    3    0    0  0.18056300599E+02 -0.51053996887E+02  0.27793376506E+03  0.29460174845E+03  0.81304808224E+02 0.  0.
          6    2    1    2  501    0 -0.28305548063E+02  0.20682837861E+03  0.93426897042E+03  0.97257829602E+03  0.17167076211E+03 0.  0.
         24    2    5    5    0    0 -0.31179924790E+02  0.21780091234E+03  0.93102675280E+03  0.95987945698E+03  0.78411302553E+02 0.  0.
          5    1    5    5  501    0  0.28743767267E+01 -0.10972533732E+02  0.32422176149E+01  0.12698839047E+02  0.47000000000E+01 0. -1.
        -13    1    6    6    0    0  0.17571478121E+02  0.10502034277E+02  0.72368780770E+02  0.75208310694E+02  0.00000000000E+00 0.  1.
         14    1    6    6    0    0 -0.48751402911E+02  0.20729887806E+03  0.85865797203E+03  0.88467114628E+03  0.00000000000E+00 0. -1.
         -5    1    3    3    0  503  0.10249247464E+02 -0.15577438172E+03  0.19317935284E+03  0.24841710375E+03  0.47000000000E+01 0.  1.
         11    1    4    4    0    0  0.17731069484E+00  0.19578379066E+02  0.27318601575E+02  0.33610271614E+02  0.00000000000E+00 0. -1.
        -12    1    4    4    0    0  0.17878989904E+02 -0.70632375954E+02  0.25061516348E+03  0.26099147684E+03  0.00000000000E+00 0.  1.
</event>
<event>
12    1  0.1030140E-001  0.2184338E+03  0.7818608E-02  0.1135110E+00
         21   -1    0    0  501  502  0.00000000000E+00  0.00000000000E+00  0.24459943149E+03  0.24459943149E+03  0.00000000000E+00 0. -1.
         21   -1    0    0  502  503 -0.00000000000E+00 -0.00000000000E+00 -0.21427083775E+03  0.21427083775E+03  0.00000000000E+00 0.  1.
         -6    2    1    2    0  503 -0.16405930746E+01 -0.13274800047E+03 -0.53967632871E+02  0.22500181393E+03  0.17346062290E+03 0.  0.
        -24    2    3    3    0    0 -0.43077696571E+02 -0.14766952606E+03 -0.53138817424E+02  0.18070212536E+03  0.78533733671E+02 0.  0.
          6    2    1    2  501    0  0.16405930746E+01  0.13274800047E+03  0.84296226610E+02  0.23386845532E+03  0.17310077238E+03 0.  0.
         24    2    5    5    0    0  0.64877440470E+01  0.30378371157E+02 -0.19629680319E+02  0.87835171411E+02  0.79779425483E+02 0.  0.
          5    1    5    5  501    0 -0.48471509724E+01  0.10236962931E+03  0.10392590693E+03  0.14603328391E+03  0.47000000000E+01 0. -1.
        -11    1    6    6    0    0  0.11439388965E+02 -0.13964967120E+02 -0.36028553483E+02  0.40298096638E+02  0.00000000000E+00 0.  1.
         12    1    6    6    0    0 -0.49516449182E+01  0.44343338277E+02  0.16398873164E+02  0.47537074773E+02  0.00000000000E+00 0. -1.
         -5    1    3    3    0  503  0.41437103496E+02  0.14921525589E+02 -0.82881544723E+00  0.44299688567E+02  0.47000000000E+01 0.  1.
         11    1    4    4    0    0  0.12226151812E+02  0.18539252116E+01 -0.89597764569E+01  0.15270671923E+02  0.00000000000E+00 0. -1.
        -12    1    4    4    0    0 -0.55303848383E+02 -0.14952345127E+03 -0.44179040967E+02  0.16543145344E+03  0.00000000000E+00 0.  1.
</event>
<event>
12    1  0.1030140E-001  0.1881906E+03  0.7818608E-02  0.1161453E+00
         21   -1    0    0  503  502  0.00000000000E+00  0.00000000000E+00  0.43268924095E+03  0.43268924095E+03  0.00000000000E+00 0.  1.
         21   -1    0    0  501  503 -0.00000000000E+00 -0.00000000000E+00 -0.84094893198E+02  0.84094893198E+02  0.00000000000E+00 0.  1.
          6    2    1    2  501    0 -0.47018381534E+02 -0.50124321178E+02  0.11545452736E+03  0.22078370240E+03  0.17519280688E+03 0.  0.
         24    2    3    3    0    0  0.43916563693E+01  0.23981493927E+02  0.98298921606E+02  0.12885400841E+03  0.79663534928E+02 0.  0.
         -6    2    1    2    0  502  0.47018381534E+02  0.50124321178E+02  0.23313982039E+03  0.29600043174E+03  0.16893461446E+03 0.  0.
        -24    2    5    5    0    0 -0.32665969980E+02  0.90564272798E+01  0.71366757685E+02  0.11099021148E+03  0.77952090873E+02 0.  0.
          5    1    3    3  501    0 -0.51410037903E+02 -0.74105815105E+02  0.17155605753E+02  0.91929693996E+02  0.47000000000E+01 0. -1.
        -11    1    4    4    0    0 -0.26105150536E+02  0.26992323876E+02  0.89364083149E+02  0.96932986077E+02  0.00000000000E+00 0.  1.
         12    1    4    4    0    0  0.30496806905E+02 -0.30108299489E+01  0.89348384570E+01  0.31921022331E+02  0.00000000000E+00 0. -1.
         -5    1    5    5    0  502  0.79684351514E+02  0.41067893898E+02  0.16177306270E+03  0.18501022026E+03  0.47000000000E+01 0.  1.
         11    1    6    6    0    0  0.54990575277E+01 -0.28059251259E+02  0.40102360964E+02  0.49252010820E+02  0.00000000000E+00 0. -1.
        -12    1    6    6    0    0 -0.38165027508E+02  0.37115678539E+02  0.31264396721E+02  0.61738200657E+02  0.00000000000E+00 0.  1.
</event>
<event>
12    1  0.1030140E-001  0.1745206E+03  0.7818608E-02  0.1174421E+00
         21   -1    0    0  501  502  0.00000000000E+00  0.00000000000E+00  0.63193155765E+02  0.63193155765E+02  0.00000000000E+00 0. -1.
         21   -1    0    0  502  503 -0.00000000000E+00 -0.00000000000E+00 -0.49863611743E+03  0.49863611743E+03  0.00000000000E+00 0. -1.
         -6    2    1    2    0  503  0.31775946989E+02 -0.14558347369E+02 -0.28337042942E+03  0.33034819000E+03  0.16616097642E+03 0.  0.
        -24    2    3    3    0    0 -0.76315133156E+01  0.41923478145E+02 -0.21461273636E+03  0.23291690706E+03  0.79848863306E+02 0.  0.
          6    2    1    2  501    0 -0.31775946989E+02  0.14558347369E+02 -0.15207253225E+03  0.23148108319E+03  0.17098473770E+03 0.  0.
         24    2    5    5    0    0 -0.86293718627E+02  0.10032078673E+02 -0.86530869806E+02  0.14597977298E+03  0.79216502148E+02 0.  0.
          5    1    5    5  501    0  0.54517771638E+02  0.45262686966E+01 -0.65541662440E+02  0.85501310213E+02  0.47000000000E+01 0. -1.
        -11    1    6    6    0    0  0.17723296912E+00 -0.10322476375E+02 -0.48088743865E+02  0.49184471295E+02  0.00000000000E+00 0.  1.
         12    1    6    6    0    0 -0.86470951596E+02  0.20354555048E+02 -0.38442125941E+02  0.96795301683E+02  0.00000000000E+00 0. -1.
         -5    1    3    3    0  503  0.39407460304E+02 -0.56481825514E+02 -0.68757693055E+02  0.97431282940E+02  0.47000000000E+01 0.  1.
         11    1    4    4    0    0 -0.41068109771E+02  0.64851236123E+01 -0.10672564219E+03  0.11453824326E+03  0.00000000000E+00 0. -1.
        -12    1    4    4    0    0  0.33436596455E+02  0.35438354533E+02 -0.10788709417E+03  0.11837866380E+03  0.00000000000E+00 0.  1.
</event>
<event>
12    1  0.1030140E-001  0.2102694E+03  0.7818608E-02  0.1141788E+00
         21   -1    0    0  503  502  0.00000000000E+00  0.00000000000E+00  0.63930271517E+03  0.63930271517E+03  0.00000000000E+00 0.  1.
         21   -1    0    0  501  503 -0.00000000000E+00 -0.00000000000E+00 -0.71779607605E+02  0.71779607605E+02  0.00000000000E+00 0.  1.
          6    2    1    2  501    0 -0.12015620704E+03  0.79740518959E+00  0.35903163608E+03  0.41497101802E+03  0.16987960486E+03 0.  0.
         24    2    3    3    0    0 -0.14346085558E+03  0.24932089355E+02  0.30893779661E+03  0.35449728508E+03  0.94990193117E+02 0.  0.
         -6    2    1    2    0  502  0.12015620704E+03 -0.79740518959E+00  0.20849147149E+03  0.29611130475E+03  0.17255451653E+03 0.  0.
        -24    2    5    5    0    0  0.15343826690E+03  0.10266797631E+02  0.18654936418E+03  0.25447408384E+03  0.79420936692E+02 0.  0.
          5    1    3    3  501    0  0.23304648545E+02 -0.24134684165E+02  0.50093839467E+02  0.60473732943E+02  0.47000000000E+01 0. -1.
        -13    1    4    4    0    0 -0.54874336549E+02  0.27195017098E+02  0.22224213946E+03  0.23052620310E+03  0.00000000000E+00 0.  1.
         14    1    4    4    0    0 -0.88586519035E+02 -0.22629277434E+01  0.86695657155E+02  0.12397108198E+03  0.00000000000E+00 0. -1.
         -5    1    5    5    0  502 -0.33282059862E+02 -0.11064202820E+02  0.21942107309E+02  0.41637220919E+02  0.47000000000E+01 0.  1.
         11    1    6    6    0    0 -0.53575229756E+01  0.14576696673E+01  0.32801339979E+02  0.33267938886E+02  0.00000000000E+00 0. -1.
        -12    1    6    6    0    0  0.15879578988E+03  0.88091279633E+01  0.15374802420E+03  0.22120614495E+03  0.00000000000E+00 0.  1.
</event>
<event>
12    1  0.1030140E-001  0.2091026E+03  0.7818608E-02  0.1142556E+00
         21   -1    0    0  501  502  0.00000000000E+00  0.00000000000E+00  0.30581499192E+03  0.30581499192E+03  0.00000000000E+00 0.  1.
         21   -1    0    0  502  503 -0.00000000000E+00 -0.00000000000E+00 -0.22133701954E+03  0.22133701954E+03  0.00000000000E+00 0.  1.
         -6    2    1    2    0  503  0.60641080806E+01  0.11704082953E+03 -0.11562799051E+03  0.23772793915E+03  0.17149172481E+03 0.  0.
        -24    2    3    3    0    0 -0.18739403287E+01  0.17701890630E+02  0.18325612162E+01  0.83616587824E+02  0.81679292936E+02 0.  0.
          6    2    1    2  501    0 -0.60641080806E+01 -0.11704082953E+03  0.20010596290E+03  0.28942407231E+03  0.17317207644E+03 0.  0.
         24    2    5    5    0    0 -0.44935289233E+02 -0.23869398191E+02  0.49153020580E+02  0.10776294510E+03  0.81289018427E+02 0.  0.
          5    1    5    5  501    0  0.38871181152E+02 -0.93171431341E+02  0.15095294232E+03  0.18166112720E+03  0.47000000000E+01 0. -1.
        -11    1    6    6    0    0 -0.47429761016E+02 -0.46284447527E+02  0.53032846181E+02  0.84878236828E+02  0.00000000000E+00 0.  1.
         12    1    6    6    0    0  0.24944717837E+01  0.22415049336E+02 -0.38798256006E+01  0.22884708276E+02  0.00000000000E+00 0. -1.
         -5    1    3    3    0  503  0.79380484092E+01  0.99338938902E+02 -0.11746055173E+03  0.15411135133E+03  0.47000000000E+01 0.  1.
         13    1    4    4    0    0  0.13972382175E+02  0.35644082372E+02  0.28539465746E+02  0.47751745276E+02  0.00000000000E+00 0. -1.
        -14    1    4    4    0    0 -0.15846322504E+02 -0.17942191743E+02 -0.26706904530E+02  0.35864842548E+02  0.00000000000E+00 0.  1.
</event>
<event>
12    1  0.1030140E-001  0.2066249E+03  0.7818608E-02  0.1146308E+00
         21   -1    0    0  503  502  0.00000000000E+00  0.00000000000E+00  0.34634094325E+03  0.34634094325E+03  0.00000000000E+00 0. -1.
         21   -1    0    0  501  503 -0.00000000000E+00 -0.00000000000E+00 -0.23830681466E+03  0.23830681466E+03  0.00000000000E+00 0.  1.
          6    2    1    2  501    0  0.72058906964E+02  0.62478131552E+02 -0.15475900982E+03  0.25035137943E+03  0.17213209772E+03 0.  0.
         24    2    3    3    0    0  0.91042350241E+02  0.32947560561E+02 -0.41981001865E+02  0.13214226463E+03  0.79529380110E+02 0.  0.
         -6    2    1    2    0  502 -0.72058906964E+02 -0.62478131552E+02  0.26279313841E+03  0.33429637849E+03  0.18329711422E+03 0.  0.
        -24    2    5    5    0    0 -0.83898768186E+02 -0.10773415812E+03  0.21871160146E+03  0.26984824311E+03  0.79609406264E+02 0.  0.
          5    1    3    3  501    0 -0.18983443277E+02  0.29530570990E+02 -0.11277800795E+03  0.11820911479E+03  0.47000000000E+01 0. -1.
        -13    1    4    4    0    0  0.61663908665E+02 -0.12623420569E+02 -0.45717290285E+02  0.77793695180E+02  0.00000000000E+00 0.  1.
         14    1    4    4    0    0  0.29378441576E+02  0.45570981130E+02  0.37362884197E+01  0.54348569454E+02  0.00000000000E+00 0. -1.
         -5    1    5    5    0  502  0.11839861222E+02  0.45256026569E+02  0.44081536943E+02  0.64448135379E+02  0.47000000000E+01 0.  1.
         11    1    6    6    0    0 -0.24030197080E+01 -0.47141761209E+02  0.31137494490E+02  0.56547888703E+02  0.00000000000E+00 0. -1.
        -12    1    6    6    0    0 -0.81495748478E+02 -0.60592396912E+02  0.18757410697E+03  0.21330035441E+03  0.00000000000E+00 0.  1.
</event>
<event>
12    1  0.1030140E-001  0.1811667E+03  0.7818608E-02  0.1167025E+00
         21   -1    0    0  503  502  0.00000000000E+00  0.00000000000E+00  0.10607581358E+04  0.10607581358E+04  0.00000000000E+00 0. -1.
         21   -1    0    0  501  503 -0.00000000000E+00 -0.00000000000E+00 -0.37046135119E+02  0.37046135119E+02  0.00000000000E+00 0. -1.
          6    2    1    2  501    0  0.48411135976E+02  0.15863046537E+02  0.74078589588E+03  0.76261728725E+03  0.17385657576E+03 0.  0.
         24    2    3    3    0    0  0.33896370490E+02  0.57000158360E+02  0.67792753610E+03  0.68596088646E+03  0.80985255266E+02 0.  0.
         -6    2    1    2    0  502 -0.48411135976E+02 -0.15863046537E+02  0.28292610481E+03  0.33518698369E+03  0.17235967892E+03 0.  0.
        -24    2    5    5    0    0 -0.60710911330E+02  0.48027915537E+02  0.14304946483E+03  0.18084676235E+03  0.79056351043E+02 0.  0.
          5    1    3    3  501    0  0.14514765486E+02 -0.41137111824E+02  0.62858359787E+02  0.76656400786E+02  0.47000000000E+01 0. -1.
        -13    1    4    4    0    0  0.28643934411E+02  0.44139299951E+02  0.17260268596E+03  0.18044511625E+03  0.00000000000E+00 0.  1.
         14    1    4    4    0    0  0.52524360791E+01  0.12860858410E+02  0.50532485014E+03  0.50551577021E+03  0.00000000000E+00 0. -1.
         -5    1    5    5    0  502  0.12299775354E+02 -0.63890962074E+02  0.13987663998E+03  0.15434022133E+03  0.47000000000E+01 0.  1.
         13    1    6    6    0    0  0.33515329256E+01 -0.11769634635E+02 -0.95340570118E+00  0.12274610170E+02  0.00000000000E+00 0. -1.
        -14    1    6    6    0    0 -0.64062444255E+02  0.59797550172E+02  0.14400287053E+03  0.16857215218E+03  0.00000000000E+00 0.  1.
</event>
<event>
12    1  0.1030140E-001  0.2110375E+03  0.7818608E-02  0.1141063E+00
         21   -1    0    0  501  502  0.00000000000E+00  0.00000000000E+00  0.88553192434E+02  0.88553192434E+02  0.00000000000E+00 0.  1.
         21   -1    0    0  502  503 -0.00000000000E+00 -0.00000000000E+00 -0.86309529914E+03  0.86309529914E+03  0.00000000000E+00 0. -1.
         -6    2    1    2    0  503  0.48154702811E+02  0.11185355844E+03 -0.69540711518E+03  0.72626180232E+03  0.17039675976E+03 0.  0.
        -24    2    3    3    0    0  0.58379875701E+02  0.43626095121E+01 -0.27314533359E+03  0.29038801273E+03  0.79306887648E+02 0.  0.
          6    2    1    2  501    0 -0.48154702811E+02 -0.11185355844E+03 -0.79134991533E+02  0.22538668926E+03  0.17235637171E+03 0.  0.
         24    2    5    5    0    0 -0.92346249549E+02 -0.53179734258E+02 -0.73730184321E+02  0.15158416634E+03  0.78649255971E+02 0.  0.
          5    1    5    5  501    0  0.44191546738E+02 -0.58673824182E+02 -0.54048072126E+01  0.73802522912E+02  0.47000000000E+01 0. -1.
        -11    1    6    6    0    0  0.64686948639E+01  0.11886832404E+02 -0.34299129800E+01  0.13960841697E+02  0.00000000000E+00 0.  1.
         12    1    6    6    0    0 -0.98814944412E+02 -0.65066566662E+02 -0.70300271341E+02  0.13762332465E+03  0.00000000000E+00 0. -1.
         -5    1    3    3    0  503 -0.10225172891E+02  0.10749094893E+03 -0.42226178159E+03  0.43587378959E+03  0.47000000000E+01 0.  1.
         11    1    4    4    0    0  0.51726910487E+02  0.34873589815E+02 -0.22071864637E+03  0.22936556278E+03  0.00000000000E+00 0. -1.
        -12    1    4    4    0    0  0.66529652147E+01 -0.30510980303E+02 -0.52426687226E+02  0.61022449956E+02  0.00000000000E+00 0.  1.
</event>
<event>
12    1  0.1030140E-001  0.3324864E+03  0.7818608E-02  0.1070088E+00
         21   -1    0    0  501  502  0.00000000000E+00  0.00000000000E+00  0.26487458273E+03  0.26487458273E+03  0.00000000000E+00 0.  1.
         21   -1    0    0  502  503 -0.00000000000E+00 -0.00000000000E+00 -0.44307520354E+03  0.44307520354E+03  0.00000000000E+00 0.  1.
         -6    2    1    2    0  503 -0.61109054018E+01  0.28415767898E+03 -0.28962030763E+01  0.33207901858E+03  0.17171242499E+03 0.  0.
        -24    2    3    3    0    0  0.60065939724E+02  0.17199783133E+03 -0.24571662586E+02  0.19997632443E+03  0.78712086951E+02 0.  0.
          6    2    1    2  501    0  0.61109054018E+01 -0.28415767898E+03 -0.17530441773E+03  0.37587076769E+03  0.17252323160E+03 0.  0.
         24    2    5    5    0    0  0.31394110549E+02 -0.23821430803E+03 -0.77214663165E+02  0.26454366521E+03  0.79306997612E+02 0.  0.
          5    1    5    5  501    0 -0.25283205147E+02 -0.45943370956E+02 -0.98089754561E+02  0.11132710248E+03  0.47000000000E+01 0. -1.
        -11    1    6    6    0    0 -0.16784322716E+02 -0.12832119407E+03 -0.62302866874E+02  0.14363039218E+03  0.00000000000E+00 0.  1.
         12    1    6    6    0    0  0.48178433265E+02 -0.10989311396E+03 -0.14911796291E+02  0.12091327304E+03  0.00000000000E+00 0. -1.
         -5    1    3    3    0  503 -0.66176845126E+02  0.11215984765E+03  0.21675459510E+02  0.13210269415E+03  0.47000000000E+01 0.  1.
         11    1    4    4    0    0  0.15243321231E+02  0.40464018536E+02 -0.41567555582E+02  0.59979640840E+02  0.00000000000E+00 0. -1.
        -12    1    4    4    0    0  0.44822618494E+02  0.13153381280E+03  0.16995892996E+02  0.13999668359E+03  0.00000000000E+00 0.  1.
</event>
<event>
12    1  0.1030140E-001  0.3624868E+03  0.7818608E-02  0.1057634E+00
         21   -1    0    0  503  502  0.00000000000E+00  0.00000000000E+00  0.81705002489E+03  0.81705002489E+03  0.00000000000E+00 0.  1.
         21   -1    0    0  501  503 -0.00000000000E+00 -0.00000000000E+00 -0.25350314134E+03  0.25350314134E+03  0.00000000000E+00 0. -1.
          6    2    1    2  501    0 -0.17822818673E+03 -0.26452502115E+03 -0.42053562724E+02  0.36491808939E+03  0.17221479747E+03 0.  0.
         24    2    3    3    0    0 -0.74121408737E+02 -0.70895456177E+02 -0.63217116332E+02  0.14400947558E+03  0.78880772815E+02 0.  0.
         -6    2    1    2    0  502  0.17822818673E+03  0.26452502115E+03  0.60560044627E+03  0.70563507683E+03  0.17155228873E+03 0.  0.
        -24    2    5    5    0    0  0.63513514594E+02  0.13560045507E+03  0.18472691599E+03  0.25073111088E+03  0.79502242245E+02 0.  0.
          5    1    3    3  501    0 -0.10410677800E+03 -0.19362956497E+03  0.21163553607E+02  0.22090861381E+03  0.47000000000E+01 0. -1.
        -13    1    4    4    0    0 -0.57108783962E+02 -0.71222948465E+00 -0.30155208797E+02  0.64585269946E+02  0.00000000000E+00 0.  1.
         14    1    4    4    0    0 -0.17012624775E+02 -0.70183226692E+02 -0.33061907535E+02  0.79424205634E+02  0.00000000000E+00 0. -1.
         -5    1    5    5    0  502  0.11471467214E+03  0.12892456608E+03  0.42087353029E+03  0.45490396595E+03  0.47000000000E+01 0.  1.
         13    1    6    6    0    0  0.56076809294E+02  0.13592841842E+03  0.19096697419E+03  0.24101769376E+03  0.00000000000E+00 0. -1.
        -14    1    6    6    0    0  0.74367053001E+01 -0.32796335208E+00 -0.62400582049E+01  0.97134171166E+01  0.00000000000E+00 0.  1.
</event>
<event>
12    1  0.1030140E-001  0.2569331E+03  0.7818608E-02  0.1109030E+00
         21   -1    0    0  503  502  0.00000000000E+00  0.00000000000E+00  0.66069160258E+03  0.66069160258E+03  0.00000000000E+00 0. -1.
         21   -1    0    0  501  503 -0.00000000000E+00 -0.00000000000E+00 -0.12032053931E+03  0.12032053931E+03  0.00000000000E+00 0.  1.
          6    2    1    2  501    0  0.17629673035E+03 -0.73874825570E+02  0.10916088623E+03  0.27916075596E+03  0.17168751148E+03 0.  0.
         24    2    3    3    0    0  0.50794120383E+02  0.13085726820E+02  0.44229689622E+01  0.93944222962E+02  0.77811795132E+02 0.  0.
         -6    2    1    2    0  502 -0.17629673035E+03  0.73874825570E+02  0.43121017704E+03  0.50185138593E+03  0.17139010996E+03 0.  0.
        -24    2    5    5    0    0 -0.19905779516E+03  0.55582694072E+02  0.40578800700E+03  0.46285081060E+03  0.82786016668E+02 0.  0.
          5    1    3    3  501    0  0.12550260996E+03 -0.86960552390E+02  0.10473791727E+03  0.18521653299E+03  0.47000000000E+01 0. -1.
        -13    1    4    4    0    0  0.49028678699E+02 -0.23337187232E+02 -0.90904592415E+01  0.55055173164E+02  0.00000000000E+00 0.  1.
         14    1    4    4    0    0  0.17654416842E+01  0.36422914053E+02  0.13513428204E+02  0.38889049799E+02  0.00000000000E+00 0. -1.
         -5    1    5    5    0  502  0.22761064815E+02  0.18292131497E+02  0.25422170045E+02  0.39000575329E+02  0.47000000000E+01 0.  1.
         11    1    6    6    0    0 -0.34316799852E+02  0.37175243979E+02  0.54194835011E+02  0.74139879005E+02  0.00000000000E+00 0. -1.
        -12    1    6    6    0    0 -0.16474099531E+03  0.18407450093E+02  0.35159317198E+03  0.38871093159E+03  0.00000000000E+00 0.  1.
</event>
<event>
12    1  0.1030140E-001  0.2220432E+03  0.7818608E-02  0.1133279E+00
         21   -1    0    0  501  502  0.00000000000E+00  0.00000000000E+00  0.61429215720E+03  0.61429215720E+03  0.00000000000E+00 0.  1.
         21   -1    0    0  502  503 -0.00000000000E+00 -0.00000000000E+00 -0.79072045356E+02  0.79072045356E+02  0.00000000000E+00 0.  1.
         -6    2    1    2    0  503 -0.10577634068E+03 -0.91734199166E+02  0.29991723212E+03  0.37316688253E+03  0.17233507637E+03 0.  0.
        -24    2    3    3    0    0 -0.11892067226E+03 -0.27635952611E+02  0.25395340261E+03  0.29306618161E+03  0.80557953918E+02 0.  0.
          6    2    1    2  501    0  0.10577634068E+03  0.91734199166E+02  0.23530287972E+03  0.32019732003E+03  0.16599723191E+03 0.  0.
         24    2    5    5    0    0  0.10495439513E+03  0.11885979060E+03  0.23204994170E+03  0.29246385810E+03  0.80900296481E+02 0.  0.
          5    1    5    5  501    0  0.82194554961E+00 -0.27125591429E+02  0.32529380231E+01  0.27733461930E+02  0.47000000000E+01 0. -1.
        -11    1    6    6    0    0  0.81953214587E+02  0.93157798351E+02  0.22546406112E+03  0.25734946596E+03  0.00000000000E+00 0.  1.
         12    1    6    6    0    0  0.23001180546E+02  0.25701992244E+02  0.65858805811E+01  0.35114392133E+02  0.00000000000E+00 0. -1.
         -5    1    3    3    0  503  0.13144331577E+02 -0.64098246555E+02  0.45963829506E+02  0.80100700914E+02  0.47000000000E+01 0.  1.
         13    1    4    4    0    0 -0.57645244075E+02  0.16098449847E+02  0.58827224517E+02  0.83921252352E+02  0.00000000000E+00 0. -1.
        -14    1    4    4    0    0 -0.61275428185E+02 -0.43734402458E+02  0.19512617810E+03  0.20914492926E+03  0.00000000000E+00 0.  1.
</event>
<event>
12    1  0.1030140E-001  0.3293096E+03  0.7818608E-02  0.1071461E+00
         21   -1    0    0  503  502  0.00000000000E+00  0.00000000000E+00  0.56770884969E+03  0.56770884969E+03  0.00000000000E+00 0. -1.
         21   -1    0    0  501  503 -0.00000000000E+00 -0.00000000000E+00 -0.26184390517E+03  0.26184390517E+03  0.00000000000E+00 0.  1.
          6    2    1    2  501    0  0.27704752265E+03 -0.48417307753E+02 -0.62954435441E+02  0.33511107503E+03  0.17098715206E+03 0.  0.
         24    2    3    3    0    0  0.14060152686E+03 -0.96554726497E+02 -0.39288926669E+02  0.18842478679E+03  0.69775898101E+02 0.  0.
         -6    2    1    2    0  502 -0.27704752265E+03  0.48417307753E+02  0.36881937996E+03  0.49444167983E+03  0.17130462407E+03 0.  0.
        -24    2    5    5    0    0 -0.25930009845E+03  0.79436518234E+02  0.35895755931E+03  0.45707179903E+03  0.80730406911E+02 0.  0.
          5    1    3    3  501    0  0.13644599579E+03  0.48137418743E+02 -0.23665508772E+02  0.14668628823E+03  0.47000000000E+01 0. -1.
        -13    1    4    4    0    0  0.10927017401E+03 -0.56365585964E+02 -0.55572694307E+02  0.13492729362E+03  0.00000000000E+00 0.  1.
         14    1    4    4    0    0  0.31331352844E+02 -0.40189140533E+02  0.16283767638E+02  0.53497493178E+02  0.00000000000E+00 0. -1.
         -5    1    5    5    0  502 -0.17747424199E+02 -0.31019210480E+02  0.98618206454E+01  0.37369880799E+02  0.47000000000E+01 0.  1.
         11    1    6    6    0    0 -0.18498972723E+03  0.36502775024E+02  0.19063480158E+03  0.26813295086E+03  0.00000000000E+00 0. -1.
        -12    1    6    6    0    0 -0.74310371214E+02  0.42933743210E+02  0.16832275774E+03  0.18893884817E+03  0.00000000000E+00 0.  1.
</event>
<event>
12    1  0.1030140E-001  0.1860714E+03  0.7818608E-02  0.1163935E+00
         21   -1    0    0  501  502  0.00000000000E+00  0.00000000000E+00  0.25986636266E+03  0.25986636266E+03  0.00000000000E+00 0. -1.
         21   -1    0    0  502  503 -0.00000000000E+00 -0.00000000000E+00 -0.29944538397E+03  0.29944538397E+03  0.00000000000E+00 0. -1.
         -6    2    1    2    0  503 -0.37177672870E+02  0.24340953039E+02 -0.23143069287E+03  0.29204850692E+03  0.17250363311E+03 0.  0.
        -24    2    3    3    0    0 -0.86164899315E+02 -0.95039789251E+01 -0.14155710978E+03  0.18413845775E+03  0.79710982946E+02 0.  0.
          6    2    1    2  501    0  0.37177672870E+02 -0.24340953039E+02  0.19185167157E+03  0.26726323971E+03  0.18068733786E+03 0.  0.
         24    2    5    5    0    0 -0.47375186623E+02 -0.11472856282E+02  0.65179808553E+02  0.11434945733E+03  0.80320334967E+02 0.  0.
          5    1    5    5  501    0  0.84552859492E+02 -0.12868096756E+02  0.12667186302E+03  0.15291378238E+03  0.47000000000E+01 0. -1.
        -13    1    6    6    0    0 -0.18488393870E+02 -0.45166628511E+02  0.26821470940E+02  0.55688745203E+02  0.00000000000E+00 0.  1.
         14    1    6    6    0    0 -0.28886792753E+02  0.33693772228E+02  0.38358337614E+02  0.58660712125E+02  0.00000000000E+00 0. -1.
         -5    1    3    3    0  503  0.48987226446E+02  0.33844931964E+02 -0.89873583092E+02  0.10791004917E+03  0.47000000000E+01 0.  1.
         13    1    4    4    0    0 -0.42796542006E+02  0.33322648340E+02 -0.85950055904E+02  0.10163343451E+03  0.00000000000E+00 0. -1.
        -14    1    4    4    0    0 -0.43368357310E+02 -0.42826627265E+02 -0.55607053877E+02  0.82505023238E+02  0.00000000000E+00 0.  1.
</event>
<event>
12    1  0.1030140E-001  0.2839716E+03  0.7818608E-02  0.1093766E+00
         21   -1    0    0  501  502  0.00000000000E+00  0.00000000000E+00  0.18335659457E+03  0.18335659457E+03  0.00000000000E+00 0.  1.
         21   -1    0    0  502  503 -0.00000000000E+00 -0.00000000000E+00 -0.51576975896E+03  0.51576975896E+03  0.00000000000E+00 0. -1.
         -6    2    1    2    0  503 -0.18042776868E+03 -0.13261431517E+03 -0.30306708738E+03  0.41531859703E+03  0.17464003345E+03 0.  0.
        -24    2    3    3    0    0 -0.97859788198E+02 -0.91525621382E+02 -0.82928683600E+02  0.17659541219E+03  0.79720107427E+02 0.  0.
          6    2    1    2  501    0  0.18042776868E+03  0.13261431517E+03 -0.29346077010E+02  0.28380775650E+03  0.17188634069E+03 0.  0.
         24    2    5    5    0    0  0.19899880868E+03  0.10930173255E+03  0.14320001640E+01  0.24070624760E+03  0.79937803418E+02 0.  0.
          5    1    5    5  501    0 -0.18571039998E+02  0.23312582620E+02 -0.30778077174E+02  0.43101508901E+02  0.47000000000E+01 0. -1.
        -13    1    6    6    0    0  0.11271977645E+03  0.41090484836E+02  0.36264370507E+02  0.12533666868E+03  0.00000000000E+00 0.  1.
         14    1    6    6    0    0  0.86279032226E+02  0.68211247712E+02 -0.34832370343E+02  0.11536957892E+03  0.00000000000E+00 0. -1.
         -5    1    3    3    0  503 -0.82567980485E+02 -0.41088693786E+02 -0.22013840378E+03  0.23872318483E+03  0.47000000000E+01 0.  1.
         11    1    4    4    0    0 -0.12928935486E+02 -0.12244249725E+02 -0.54005152246E+02  0.56865063908E+02  0.00000000000E+00 0. -1.
        -12    1    4    4    0    0 -0.84930852712E+02 -0.79281371657E+02 -0.28923531353E+02  0.11973034828E+03  0.00000000000E+00 0.  1.
</event>
<event>
12    1  0.1030140E-001  0.2714368E+03  0.7818608E-02  0.1100713E+00
         21   -1    0    0  501  502  0.00000000000E+00  0.00000000000E+00  0.34531585347E+03  0.34531585347E+03  0.00000000000E+00 0. -1.
         21   -1    0    0  502  503 -0.00000000000E+00 -0.00000000000E+00 -0.21315888110E+03  0.21315888110E+03  0.00000000000E+00 0. -1.
         -6    2    1    2    0  503 -0.20877048963E+03  0.20044896666E+02  0.45477711632E+02  0.27522016268E+03  0.17231076714E+03 0.  0.
        -24    2    3    3    0    0 -0.11581042078E+03 -0.54338303010E+02  0.43308792959E+02  0.15605125314E+03  0.78176961590E+02 0.  0.
          6    2    1    2  501    0  0.20877048963E+03 -0.20044896666E+02  0.86679260739E+02  0.28325457188E+03  0.16950794385E+03 0.  0.
         24    2    5    5    0    0  0.61707885304E+02 -0.49596404697E+02  0.70288387094E+02  0.13228619123E+03  0.79319055485E+02 0.  0.
          5    1    5    5  501    0  0.14706260432E+03  0.29551508031E+02  0.16390873645E+02  0.15096838065E+03  0.47000000000E+01 0. -1.
        -13    1    6    6    0    0  0.50812842353E+02 -0.70730927407E+02  0.46823209990E+02  0.98879836335E+02  0.00000000000E+00 0.  1.
         14    1    6    6    0    0  0.10895042951E+02  0.21134522709E+02  0.23465177104E+02  0.33406354898E+02  0.00000000000E+00 0. -1.
         -5    1    3    3    0  503 -0.92960068842E+02  0.74383199676E+02  0.21689186728E+01  0.11916890954E+03  0.47000000000E+01 0.  1.
         11    1    4    4    0    0 -0.10630294255E+03 -0.42341590912E+02  0.47033460802E+01  0.11452182054E+03  0.00000000000E+00 0. -1.
        -12    1    4    4    0    0 -0.95074782357E+01 -0.11996712098E+02  0.38605446879E+02  0.41529432602E+02  0.00000000000E+00 0.  1.
</event>
<event>
12    1  0.1030140E-001  0.2142232E+03  0.7818608E-02  0.1138570E+00
         21   -1    0    0  503  502  0.00000000000E+00  0.00000000000E+00  0.44331946899E+03  0.44331946899E+03  0.00000000000E+00 0.  1.
         21   -1    0    0  501  503 -0.00000000000E+00 -0.00000000000E+00 -0.13504094475E+03  0.13504094475E+03  0.00000000000E+00 0.  1.
          6    2    1    2  501    0  0.12230913921E+03  0.23984702942E+02  0.13183068338E+02  0.21462844797E+03  0.17423198868E+03 0.  0.
         24    2    3    3    0    0  0.92541698155E+02 -0.37757555269E+02  0.49445620783E+02  0.13694144967E+03  0.79488944796E+02 0.  0.
         -6    2    1    2    0  502 -0.12230913921E+03 -0.23984702942E+02  0.29509545590E+03  0.36373196577E+03  0.17229284176E+03 0.  0.
        -24    2    5    5    0    0  0.16803420347E+02 -0.26721148594E+01  0.69065187652E+02  0.97427060068E+02  0.66577299095E+02 0.  0.
          5    1    3    3  501    0  0.29767441057E+02  0.61742258211E+02 -0.36262552445E+02  0.77686998307E+02  0.47000000000E+01 0. -1.
        -13    1    4    4    0    0  0.14921345835E+02  0.13398765310E+02 -0.13942786561E+02  0.24424880153E+02  0.00000000000E+00 0.  1.
         14    1    4    4    0    0  0.77620352320E+02 -0.51156320579E+02  0.63388407344E+02  0.11251656951E+03  0.00000000000E+00 0. -1.
         -5    1    5    5    0  502 -0.13911255956E+03 -0.21312588083E+02  0.22603026825E+03  0.26630490570E+03  0.47000000000E+01 0.  1.
         13    1    6    6    0    0 -0.12142350137E+02 -0.27605339137E+02  0.25595116134E+02  0.39555042480E+02  0.00000000000E+00 0. -1.
        -14    1    6    6    0    0  0.28945770485E+02  0.24933224278E+02  0.43470071518E+02  0.57872017587E+02  0.00000000000E+00 0.  1.
</event>
<event>
12    1  0.1030140E-001  0.2119171E+03  0.7818608E-02  0.1140085E+00
         21   -1    0    0  501  502  0.00000000000E+00  0.00000000000E+00  0.36653681560E+02  0.36653681560E+02  0.00000000000E+00 0.  1.
         21   -1    0    0  502  503 -0.00000000000E+00 -0.00000000000E+00 -0.12312553099E+04  0.12312553099E+04  0.00000000000E+00 0.  1.
         -6    2    1    2    0  503 -0.97527584510E+02 -0.75898492876E+02 -0.64487910250E+03  0.67880625657E+03  0.17215303121E+03 0.  0.
        -24    2    3    3    0    0 -0.13460046286E+03 -0.63047152228E+02 -0.47259850782E+03  0.50205148699E+03  0.81327227851E+02 0.  0.
          6    2    1    2  501    0  0.97527584510E+02  0.75898492876E+02 -0.54972252583E+03  0.58910273488E+03  0.17197373602E+03 0.  0.
         24    2    5    5    0    0  0.11086096809E+03  0.58920079129E+01 -0.40939696470E+03  0.43164785194E+03  0.79931992211E+02 0.  0.
          5    1    5    5  501    0 -0.13333383585E+02  0.70006484963E+02 -0.14032556113E+03  0.15745488294E+03  0.47000000000E+01 0. -1.
        -13    1    6    6    0    0  0.67402450619E+02 -0.36018965291E+02 -0.22790900997E+03  0.24038089157E+03  0.00000000000E+00 0.  1.
         14    1    6    6    0    0  0.43458517476E+02  0.41910973204E+02 -0.18148795473E+03  0.19126696037E+03  0.00000000000E+00 0. -1.
         -5    1    3    3    0  503  0.37072878346E+02 -0.12851340647E+02 -0.17228059468E+03  0.17675476958E+03  0.47000000000E+01 0.  1.
         11    1    4    4    0    0 -0.32993863282E+02 -0.55697566649E+02 -0.14086254342E+03  0.15502603035E+03  0.00000000000E+00 0. -1.
        -12    1    4    4    0    0 -0.10160659957E+03 -0.73495855788E+01 -0.33173596440E+03  0.34702545665E+03  0.00000000000E+00 0.  1.
</event>
<event>
12    1  0.1030140E-001  0.1778739E+03  0.7818608E-02  0.1171151E+00
         21   -1    0    0  503  502  0.00000000000E+00  0.00000000000E+00  0.94125960939E+02  0.94125960939E+02  0.00000000000E+00 0.  1.
         21   -1    0    0  501  503 -0.00000000000E+00 -0.00000000000E+00 -0.82401207382E+03  0.82401207382E+03  0.00000000000E+00 0.  1.
          6    2    1    2  501    0  0.18054468801E+02  0.44165453212E+01 -0.71950937644E+03  0.73996171048E+03  0.17176763515E+03 0.  0.
         24    2    3    3    0    0 -0.25111271172E+01 -0.59148743940E+02 -0.33806215595E+03  0.35267943391E+03  0.81190406737E+02 0.  0.
         -6    2    1    2    0  502 -0.18054468801E+02 -0.44165453212E+01 -0.10376736448E+02  0.17817632428E+03  0.17690013046E+03 0.  0.
        -24    2    5    5    0    0 -0.44705612911E+02  0.30179915080E+02  0.49767794251E+02  0.10370046827E+03  0.73263460711E+02 0.  0.
          5    1    3    3  501    0  0.20565595918E+02  0.63565289261E+02 -0.38144722049E+03  0.38728227658E+03  0.47000000000E+01 0. -1.
        -13    1    4    4    0    0 -0.95969777072E+01 -0.50065650582E+02 -0.33730408399E+03  0.34113445506E+03  0.00000000000E+00 0.  1.
         14    1    4    4    0    0  0.70858505900E+01 -0.90830933573E+01 -0.75807195686E+00  0.11544978849E+02  0.00000000000E+00 0. -1.
         -5    1    5    5    0  502  0.26651144110E+02 -0.34596460401E+02 -0.60144530699E+02  0.74475856005E+02  0.47000000000E+01 0.  1.
         13    1    6    6    0    0 -0.15718283183E+02  0.39310264746E+02 -0.33863014605E+01  0.42471500776E+02  0.00000000000E+00 0. -1.
        -14    1    6    6    0    0 -0.28987329728E+02 -0.91303496661E+01  0.53154095711E+02  0.61228967496E+02  0.00000000000E+00 0.  1.
</event>
<event>
12    1  0.1030140E-001  0.2595447E+03  0.7818608E-02  0.1107430E+00
         21   -1    0    0  503  502  0.00000000000E+00  0.00000000000E+00  0.37829166959E+03  0.37829166959E+03  0.00000000000E+00 0. -1.
         21   -1    0    0  501  503 -0.00000000000E+00 -0.00000000000E+00 -0.17827176005E+03  0.17827176005E+03  0.00000000000E+00 0. -1.
          6    2    1    2  501    0 -0.17305177634E+03 -0.89069487041E+02  0.89439235529E+02  0.27444371378E+03  0.17157996493E+03 0.  0.
         24    2    3    3    0    0 -0.17297928367E+03 -0.46552602283E+02  0.30647622551E+02  0.20173721818E+03  0.87576544093E+02 0.  0.
         -6    2    1    2    0  502  0.17305177634E+03  0.89069487041E+02  0.11058067401E+03  0.28211971586E+03  0.17170660382E+03 0.  0.
        -24    2    5    5    0    0  0.12166767429E+03 -0.87261058164E+01  0.83663126845E+02  0.16831748271E+03  0.80324892157E+02 0.  0.
          5    1    3    3  501    0 -0.72492668167E-01 -0.42516884758E+02  0.58791612978E+02  0.72706495592E+02  0.47000000000E+01 0. -1.
        -11    1    4    4    0    0 -0.36651521690E+02 -0.26960448290E+02 -0.26465286765E+02  0.52636595803E+02  0.00000000000E+00 0.  1.
         12    1    4    4    0    0 -0.13632776198E+03 -0.19592153993E+02  0.57112909316E+02  0.14910062238E+03  0.00000000000E+00 0. -1.
         -5    1    5    5    0  502  0.51384102042E+02  0.97795592858E+02  0.26917547168E+02  0.11380223315E+03  0.47000000000E+01 0.  1.
         13    1    6    6    0    0  0.46979573657E+02 -0.77160622989E+01  0.80537761052E+02  0.93557195949E+02  0.00000000000E+00 0. -1.
        -14    1    6    6    0    0  0.74688100637E+02 -0.10100435176E+01  0.31253657925E+01  0.74760286757E+02  0.00000000000E+00 0.  1.
</event>
<event>
12    1  0.1030140E-001  0.1768074E+03  0.7818608E-02  0.1171199E+00
         21   -1    0    0  501  502  0.00000000000E+00  0.00000000000E+00  0.61896281055E+03  0.61896281055E+03  0.00000000000E+00 0.  1.
         21   -1    0    0  502  503 -0.00000000000E+00 -0.00000000000E+00 -0.13262050466E+03  0.13262050466E+03  0.00000000000E+00 0.  1.
         -6    2    1    2    0  503  0.11299220067E+02  0.32709807932E+02 -0.53369724393E+02  0.18364851781E+03  0.17228130108E+03 0.  0.
        -24    2    3    3    0    0  0.35117150380E+02  0.90364655147E+00  0.57797511196E+01  0.11223650089E+03  0.10644057395E+03 0.  0.
          6    2    1    2  501    0 -0.11299220067E+02 -0.32709807932E+02  0.53971203029E+03  0.56793479740E+03  0.17338758478E+03 0.  0.
         24    2    5    5    0    0 -0.13791674016E+02  0.25605163874E+02  0.46744480071E+03  0.47492140732E+03  0.78739232507E+02 0.  0.
          5    1    5    5  501    0  0.24924539496E+01 -0.58314971805E+02  0.72267229579E+02  0.93013390081E+02  0.47000000000E+01 0. -1.
        -11    1    6    6    0    0  0.92086612297E+01  0.28126215888E+02  0.60815890290E+02  0.67634724613E+02  0.00000000000E+00 0.  1.
         12    1    6    6    0    0 -0.23000335246E+02 -0.25210520143E+01  0.40662891042E+03  0.40728668271E+03  0.00000000000E+00 0. -1.
         -5    1    3    3    0  503 -0.23817930314E+02  0.31806161380E+02 -0.59149475513E+02  0.71412016913E+02  0.47000000000E+01 0.  1.
         11    1    4    4    0    0 -0.18607654386E+02  0.15343211886E+01  0.42997744852E+02  0.46876486703E+02  0.00000000000E+00 0. -1.
        -12    1    4    4    0    0  0.53724804766E+02 -0.63067463711E+00 -0.37217993733E+02  0.65360014191E+02  0.00000000000E+00 0.  1.
</event>
<event>
12    1  0.1030140E-001  0.1984422E+03  0.7818608E-02  0.1154162E+00
         21   -1    0    0  501  502  0.00000000000E+00  0.00000000000E+00  0.39026040083E+02  0.39026040083E+02  0.00000000000E+00 0. -1.
         21   -1    0    0  502  503 -0.00000000000E+00 -0.00000000000E+00 -0.94269209161E+03  0.94269209161E+03  0.00000000000E+00 0.  1.
         -6    2    1    2    0  503 -0.10281672963E+02  0.99965963095E+02 -0.49849151508E+03  0.53653807744E+03  0.17111519908E+03 0.  0.
        -24    2    3    3    0    0 -0.56775751282E+02  0.10935551628E+03 -0.41869519407E+03  0.44358967307E+03  0.79271795998E+02 0.  0.
          6    2    1    2  501    0  0.10281672963E+02 -0.99965963095E+02 -0.40517453644E+03  0.44518005425E+03  0.15466081969E+03 0.  0.
         24    2    5    5    0    0 -0.50427534978E+00 -0.88291084622E+02 -0.41090091352E+03  0.42764378148E+03  0.79019448150E+02 0.  0.
          5    1    5    5  501    0  0.10785948313E+02 -0.11674878473E+02  0.57263770807E+01  0.17536272775E+02  0.47000000000E+01 0. -1.
        -13    1    6    6    0    0  0.32539915064E+02 -0.10932256930E+02 -0.12424354404E+03  0.12889848157E+03  0.00000000000E+00 0.  1.
         14    1    6    6    0    0 -0.33044190414E+02 -0.77358827691E+02 -0.28665736948E+03  0.29874529991E+03  0.00000000000E+00 0. -1.
         -5    1    3    3    0  503  0.46494078319E+02 -0.93895531849E+01 -0.79796321016E+02  0.92948404372E+02  0.47000000000E+01 0.  1.
         13    1    4    4    0    0 -0.24170634691E+02  0.10423244904E+03 -0.36680460482E+03  0.38209192759E+03  0.00000000000E+00 0. -1.
        -14    1    4    4    0    0 -0.32605116591E+02  0.51230672381E+01 -0.51890589253E+02  0.61497745478E+02  0.00000000000E+00 0.  1.
</event>
<event>
12    1  0.1030140E-001  0.1990620E+03  0.7818608E-02  0.1150636E+00
         21   -1    0    0  501  502  0.00000000000E+00  0.00000000000E+00  0.66946312064E+02  0.66946312064E+02  0.00000000000E+00 0.  1.
         21   -1    0    0  502  503 -0.00000000000E+00 -0.00000000000E+00 -0.63701512233E+03  0.63701512233E+03  0.00000000000E+00 0.  1.
         -6    2    1    2    0  503  0.35046289314E+02  0.93654302728E+02 -0.18955156347E+03  0.27452105208E+03  0.17155944161E+03 0.  0.
        -24    2    3    3    0    0  0.27937421125E+02  0.64995200094E+02 -0.26373883663E+02  0.10862673223E+03  0.78098077323E+02 0.  0.
          6    2    1    2  501    0 -0.35046289314E+02 -0.93654302728E+02 -0.38051724679E+03  0.42944038231E+03  0.17212290969E+03 0.  0.
         24    2    5    5    0    0 -0.29363512442E+02 -0.12121485188E+03 -0.21508357638E+03  0.26156463323E+03  0.81239499942E+02 0.  0.
          5    1    5    5  501    0 -0.56827768714E+01  0.27560549150E+02 -0.16543367042E+03  0.16787574908E+03  0.47000000000E+01 0. -1.
        -11    1    6    6    0    0  0.15110820901E+02 -0.57190931166E+02 -0.14552363562E+03  0.15708681688E+03  0.00000000000E+00 0.  1.
         12    1    6    6    0    0 -0.44474333343E+02 -0.64023920712E+02 -0.69559940761E+02  0.10447781635E+03  0.00000000000E+00 0. -1.
         -5    1    3    3    0  503  0.71088681889E+01  0.28659102634E+02 -0.16317767981E+03  0.16589431985E+03  0.47000000000E+01 0.  1.
         11    1    4    4    0    0 -0.10364986734E+02 -0.11188174922E+02 -0.17006682272E+02  0.22843717954E+02  0.00000000000E+00 0. -1.
        -12    1    4    4    0    0  0.38302407859E+02  0.76183375016E+02 -0.93672013906E+01  0.85783014277E+02  0.00000000000E+00 0.  1.
</event>
<event>
12    1  0.1030140E-001  0.1930378E+03  0.7818608E-02  0.1156698E+00
         21   -1    0    0  501  502  0.00000000000E+00  0.00000000000E+00  0.30663349456E+03  0.30663349456E+03  0.00000000000E+00 0.  1.
         21   -1    0    0  502  503 -0.00000000000E+00 -0.00000000000E+00 -0.16969362291E+03  0.16969362291E+03  0.00000000000E+00 0. -1.
         -6    2    1    2    0  503  0.68600602115E+02  0.44550582031E+02 -0.62396942846E+02  0.19884065010E+03  0.17015707064E+03 0.  0.
        -24    2    3    3    0    0 -0.17195378805E+01 -0.31378692020E+02 -0.21313721046E+02  0.87395157328E+02  0.78715053809E+02 0.  0.
          6    2    1    2  501    0 -0.68600602115E+02 -0.44550582031E+02  0.19933681450E+03  0.27748646736E+03  0.17485072771E+03 0.  0.
         24    2    5    5    0    0 -0.11562430876E+03 -0.38594255801E+02  0.12552313346E+03  0.18963855152E+03  0.73131565231E+02 0.  0.
          5    1    5    5  501    0  0.47023706642E+02 -0.59563262304E+01  0.73813681031E+02  0.87847915831E+02  0.47000000000E+01 0. -1.
        -11    1    6    6    0    0 -0.99260853302E+02 -0.15783326597E+02  0.12647656725E+03  0.16154922612E+03  0.00000000000E+00 0.  1.
         12    1    6    6    0    0 -0.16363455454E+02 -0.22810929203E+02 -0.95343378809E+00  0.28089325401E+02  0.00000000000E+00 0. -1.
         -5    1    3    3    0  503  0.70320139995E+02  0.75929274051E+02 -0.41083221800E+02  0.11144549278E+03  0.47000000000E+01 0.  1.
         11    1    4    4    0    0 -0.13006985826E+02  0.10076022250E+02 -0.37918400802E+02  0.41334162917E+02  0.00000000000E+00 0. -1.
        -12    1    4    4    0    0  0.11287447945E+02 -0.41454714270E+02  0.16604679756E+02  0.46060994411E+02  0.00000000000E+00 0.  1.
</event>
<event>
12    1  0.1030140E-001  0.1979732E+03  0.7818608E-02  0.1151901E+00
         21   -1    0    0  503  502  0.00000000000E+00  0.00000000000E+00  0.12680548908E+03  0.12680548908E+03  0.00000000000E+00 0.  1.
         21   -1    0    0  501  503 -0.00000000000E+00 -0.00000000000E+00 -0.31199749725E+03  0.31199749725E+03  0.00000000000E+00 0.  1.
          6    2    1    2  501    0  0.12258489255E+02  0.96779202344E+02 -0.12281160607E+03  0.23123444915E+03  0.16991231658E+03 0.  0.
         24    2    3    3    0    0  0.62476789484E+01 -0.10421703531E+02 -0.20106078704E+02  0.82578203363E+02  0.79166027266E+02 0.  0.
         -6    2    1    2    0  502 -0.12258489255E+02 -0.96779202344E+02 -0.62380402095E+02  0.20756853718E+03  0.17226984210E+03 0.  0.
        -24    2    5    5    0    0 -0.51995297181E+02 -0.80649874974E+02 -0.92792836040E+02  0.15478430427E+03  0.78356602563E+02 0.  0.
          5    1    3    3  501    0  0.60108103067E+01  0.10720090587E+03 -0.10270552737E+03  0.14865624579E+03  0.47000000000E+01 0. -1.
        -13    1    4    4    0    0 -0.20716639163E+02  0.24928123899E+02 -0.20060184318E+02  0.38118256705E+02  0.00000000000E+00 0.  1.
         14    1    4    4    0    0  0.26964318111E+02 -0.35349827430E+02 -0.45894385456E-01  0.44459946658E+02  0.00000000000E+00 0. -1.
         -5    1    5    5    0  502  0.39736807925E+02 -0.16129327370E+02  0.30412433945E+02  0.52784232911E+02  0.47000000000E+01 0.  1.
         11    1    6    6    0    0 -0.32480207263E+02  0.24206941317E+01 -0.49089407591E+02  0.58911743834E+02  0.00000000000E+00 0. -1.
        -12    1    6    6    0    0 -0.19515089917E+02 -0.83070569105E+02 -0.43703428449E+02  0.95872560434E+02  0.00000000000E+00 0.  1.
</event>
<event>
12    1  0.1030140E-001  0.1905839E+03  0.7818608E-02  0.1158686E+00
         21   -1    0    0  503  502  0.00000000000E+00  0.00000000000E+00  0.99514012161E+02  0.99514012161E+02  0.00000000000E+00 0. -1.
         21   -1    0    0  501  503 -0.00000000000E+00 -0.00000000000E+00 -0.58817672466E+03  0.58817672466E+03  0.00000000000E+00 0. -1.
          6    2    1    2  501    0 -0.71151377591E+02 -0.22475237523E+02 -0.46041182047E+03  0.49829838958E+03  0.17536985429E+03 0.  0.
         24    2    3    3    0    0 -0.70965165488E+02 -0.67100440882E+02 -0.41966029807E+03  0.43768304476E+03  0.76897061155E+02 0.  0.
         -6    2    1    2    0  502  0.71151377591E+02  0.22475237523E+02 -0.28250892026E+02  0.18939234724E+03  0.17176639211E+03 0.  0.
        -24    2    5    5    0    0 -0.28597939824E+02  0.12916199942E+02 -0.15648866616E+02  0.88287438514E+02  0.81025393488E+02 0.  0.
          5    1    3    3  501    0 -0.18621210258E+00  0.44625203359E+02 -0.40751522406E+02  0.60615344824E+02  0.47000000000E+01 0. -1.
        -13    1    4    4    0    0 -0.10288228327E+02 -0.26295658514E+02 -0.26619036599E+03  0.26768380646E+03  0.00000000000E+00 0.  1.
         14    1    4    4    0    0 -0.60676937162E+02 -0.40804782368E+02 -0.15346993208E+03  0.16999923829E+03  0.00000000000E+00 0. -1.
         -5    1    5    5    0  502  0.99749317415E+02  0.95590375813E+01 -0.12602025411E+02  0.10110490873E+03  0.47000000000E+01 0.  1.
         11    1    6    6    0    0  0.36776337756E+01  0.27059163766E+02  0.23203824629E+02  0.35834910511E+02  0.00000000000E+00 0. -1.
        -12    1    6    6    0    0 -0.32275573600E+02 -0.14142963824E+02 -0.38852691245E+02  0.52452528003E+02  0.00000000000E+00 0.  1.
</event>
<event>
12    1  0.1030140E-001  0.2009236E+03  0.7818608E-02  0.1152518E+00
         21   -1    0    0  503  502  0.00000000000E+00  0.00000000000E+00  0.25154955870E+03  0.25154955870E+03  0.00000000000E+00 0. -1.
         21   -1    0    0  501  503 -0.00000000000E+00 -0.00000000000E+00 -0.16882696521E+03  0.16882696521E+03  0.00000000000E+00 0. -1.
          6    2    1    2  501    0 -0.41881814393E+02  0.94593186426E+02 -0.34287907326E+02  0.18786473822E+03  0.15302137753E+03 0.  0.
         24    2    3    3    0    0 -0.26506308976E+02 -0.25985707830E+01 -0.27899529981E+02  0.89145210252E+02  0.80368823260E+02 0.  0.
         -6    2    1    2    0  502  0.41881814393E+02 -0.94593186426E+02  0.11701050081E+03  0.23251178569E+03  0.17224492993E+03 0.  0.
        -24    2    5    5    0    0  0.89204529348E+01 -0.12898794701E+03  0.94661371699E+02  0.17968163826E+03  0.81284997901E+02 0.  0.
          5    1    3    3  501    0 -0.15375505416E+02  0.97191757209E+02 -0.63883773457E+01  0.98719527964E+02  0.47000000000E+01 0. -1.
        -11    1    4    4    0    0 -0.37688766035E+02 -0.33945323565E+02 -0.11352129193E+02  0.51976907511E+02  0.00000000000E+00 0.  1.
         12    1    4    4    0    0  0.11182457059E+02  0.31346752782E+02 -0.16547400788E+02  0.37168302742E+02  0.00000000000E+00 0. -1.
         -5    1    5    5    0  502  0.32961361458E+02  0.34394760580E+02  0.22349129116E+02  0.52830147423E+02  0.47000000000E+01 0.  1.
         11    1    6    6    0    0  0.55891360768E+01 -0.92954916267E+02  0.10662803401E+03  0.14156762531E+03  0.00000000000E+00 0. -1.
        -12    1    6    6    0    0  0.33313168580E+01 -0.36033030739E+02 -0.11966662311E+02  0.38114012950E+02  0.00000000000E+00 0.  1.
</event>
<event>
12    1  0.1030140E-001  0.1838329E+03  0.7818608E-02  0.1164317E+00
         21   -1    0    0  503  502  0.00000000000E+00  0.00000000000E+00  0.71316395477E+03  0.71316395477E+03  0.00000000000E+00 0.  1.
         21   -1    0    0  501  503 -0.00000000000E+00 -0.00000000000E+00 -0.10508588309E+03  0.10508588309E+03  0.00000000000E+00 0.  1.
          6    2    1    2  501    0 -0.22397654006E+02  0.58448312875E+02  0.11348733245E+00  0.18309987748E+03  0.17206885851E+03 0.  0.
         24    2    3    3    0    0 -0.99545713121E+01  0.74483475939E+02  0.55823149009E+02  0.12362203988E+03  0.80742201481E+02 0.  0.
         -6    2    1    2    0  502  0.22397654006E+02 -0.58448312875E+02  0.60796458434E+03  0.63514996038E+03  0.17284870891E+03 0.  0.
        -24    2    5    5    0    0  0.47252493404E+02  0.21265332297E+02  0.40346790751E+03  0.41421329728E+03  0.78110759561E+02 0.  0.
          5    1    3    3  501    0 -0.12443082694E+02 -0.16035163064E+02 -0.55709661676E+02  0.59477837600E+02  0.47000000000E+01 0. -1.
        -13    1    4    4    0    0 -0.20884671019E+02  0.17752966368E+02 -0.15771616563E+02  0.31624060262E+02  0.00000000000E+00 0.  1.
         14    1    4    4    0    0  0.10930099707E+02  0.56730509571E+02  0.71594765572E+02  0.91997979614E+02  0.00000000000E+00 0. -1.
         -5    1    5    5    0  502 -0.24854839398E+02 -0.79713645172E+02  0.20449667683E+03  0.22093666311E+03  0.47000000000E+01 0.  1.
         13    1    6    6    0    0 -0.17951673410E+02  0.10319405623E+02  0.42924648519E+02  0.47657928628E+02  0.00000000000E+00 0. -1.
        -14    1    6    6    0    0  0.65204166814E+02  0.10945926674E+02  0.36054325899E+03  0.36655536865E+03  0.00000000000E+00 0.  1.
</event>
<event>
12    1  0.1030140E-001  0.1807580E+03  0.7818608E-02  0.1172420E+00
         21   -1    0    0  503  502  0.00000000000E+00  0.00000000000E+00  0.46950678443E+02  0.46950678443E+02  0.00000000000E+00 0.  1.
         21   -1    0    0  501  503 -0.00000000000E+00 -0.00000000000E+00 -0.15110498660E+04  0.15110498660E+04  0.00000000000E+00 0.  1.
          6    2    1    2  501    0  0.52727525656E+02 -0.95807676179E+01 -0.13121485480E+04  0.13218598127E+04  0.15069030952E+03 0.  0.
         24    2    3    3    0    0  0.68563516130E+02 -0.50826782816E+02 -0.95453311634E+03  0.96149485975E+03  0.77811165917E+02 0.  0.
         -6    2    1    2    0  502 -0.52727525656E+02  0.95807676179E+01 -0.15195063961E+03  0.23614073178E+03  0.17263100897E+03 0.  0.
        -24    2    5    5    0    0 -0.49187719420E+02  0.52834210404E+02 -0.15626084923E+03  0.19227664113E+03  0.85685285735E+02 0.  0.
          5    1    3    3  501    0 -0.15835990474E+02  0.41246015198E+02 -0.35761543164E+03  0.36036495294E+03  0.47000000000E+01 0. -1.
        -13    1    4    4    0    0  0.51499165769E+02 -0.36249193663E+02 -0.90413159244E+03  0.90632229619E+03  0.00000000000E+00 0.  1.
         14    1    4    4    0    0  0.17064350361E+02 -0.14577589153E+02 -0.50401523892E+02  0.55172563556E+02  0.00000000000E+00 0. -1.
         -5    1    5    5    0  502 -0.35398062357E+01 -0.43253442786E+02  0.43102096271E+01  0.43864090644E+02  0.47000000000E+01 0.  1.
         11    1    6    6    0    0 -0.67669661776E+02  0.16658205171E+02 -0.11432153707E+03  0.13388835933E+03  0.00000000000E+00 0. -1.
        -12    1    6    6    0    0  0.18481942356E+02  0.36176005233E+02 -0.41939312161E+02  0.58388281807E+02  0.00000000000E+00 0.  1.
</event>
<event>
12    1  0.1030140E-001  0.2511754E+03  0.7818608E-02  0.1112620E+00
         21   -1    0    0  503  502  0.00000000000E+00  0.00000000000E+00  0.21037239765E+04  0.21037239765E+04  0.00000000000E+00 0. -1.
         21   -1    0    0  501  503 -0.00000000000E+00 -0.00000000000E+00 -0.33635522616E+02  0.33635522616E+02  0.00000000000E+00 0. -1.
          6    2    1    2  501    0 -0.11760196583E+03 -0.14081294104E+03  0.68180252276E+03  0.72659738271E+03  0.17155340216E+03 0.  0.
         24    2    3    3    0    0 -0.11886400111E+03 -0.36980327651E+02  0.40524880058E+03  0.43115389305E+03  0.78555036255E+02 0.  0.
         -6    2    1    2    0  502  0.11760196583E+03  0.14081294104E+03  0.13882859311E+04  0.14107621164E+04  0.17103629961E+03 0.  0.
        -24    2    5    5    0    0  0.12396291063E+03  0.12857994866E+03  0.84986147852E+03  0.87214064553E+03  0.80406259115E+02 0.  0.
          5    1    3    3  501    0  0.12620352856E+01 -0.10383261339E+03  0.27655372218E+03  0.29544348967E+03  0.47000000000E+01 0. -1.
        -13    1    4    4    0    0  0.70597911867E+01  0.95064912009E+01  0.50222487042E+02  0.51599537122E+02  0.00000000000E+00 0.  1.
         14    1    4    4    0    0 -0.12592379230E+03 -0.46486818852E+02  0.35502631354E+03  0.37955435592E+03  0.00000000000E+00 0. -1.
         -5    1    5    5    0  502 -0.63609447978E+01  0.12232992381E+02  0.53842445257E+03  0.53862147084E+03  0.47000000000E+01 0.  1.
         13    1    6    6    0    0  0.65956897922E+02  0.41235129460E+02  0.52622596562E+03  0.53194399628E+03  0.00000000000E+00 0. -1.
        -14    1    6    6    0    0  0.58006012705E+02  0.87344819204E+02  0.32363551290E+03  0.34019664925E+03  0.00000000000E+00 0.  1.
</event>
<event>
12    1  0.1030140E-001  0.2296536E+03  0.7818608E-02  0.1127397E+00
         21   -1    0    0  503  502  0.00000000000E+00  0.00000000000E+00  0.97067919976E+03  0.97067919976E+03  0.00000000000E+00 0.  1.
         21   -1    0    0  501  503 -0.00000000000E+00 -0.00000000000E+00 -0.74472123719E+02  0.74472123719E+02  0.00000000000E+00 0. -1.
          6    2    1    2  501    0  0.24349100607E+02  0.14649184340E+03  0.16975535998E+03  0.28326362448E+03  0.17137286783E+03 0.  0.
         24    2    3    3    0    0  0.39368597591E+02  0.17631498572E+02  0.10547716865E+03  0.13840386596E+03  0.78545787832E+02 0.  0.
         -6    2    1    2    0  502 -0.24349100607E+02 -0.14649184340E+03  0.72645171606E+03  0.76188769900E+03  0.17517999666E+03 0.  0.
        -24    2    5    5    0    0  0.40351226060E+02 -0.12396238161E+03  0.40833040833E+03  0.43643883150E+03  0.82159830690E+02 0.  0.
          5    1    3    3  501    0 -0.15019496985E+02  0.12886034483E+03  0.64278191326E+02  0.14485975853E+03  0.47000000000E+01 0. -1.
        -13    1    4    4    0    0 -0.14531672478E+02  0.23724692011E+02  0.65058074472E+02  0.70757215674E+02  0.00000000000E+00 0.  1.
         14    1    4    4    0    0  0.53900270069E+02 -0.60931934393E+01  0.40419094183E+02  0.67646650282E+02  0.00000000000E+00 0. -1.
         -5    1    5    5    0  502 -0.64700326667E+02 -0.22529461792E+02  0.31812130774E+03  0.32544886750E+03  0.47000000000E+01 0.  1.
         13    1    6    6    0    0  0.16403502185E+02 -0.15056405203E+02  0.13219476371E+02  0.25894493182E+02  0.00000000000E+00 0. -1.
        -14    1    6    6    0    0  0.23947723875E+02 -0.10890597641E+03  0.39511093195E+03  0.41054433832E+03  0.00000000000E+00 0.  1.
</event>
<event>
12    1  0.1030140E-001  0.2618965E+03  0.7818608E-02  0.1106408E+00
         21   -1    0    0  501  502  0.00000000000E+00  0.00000000000E+00  0.11057612374E+03  0.11057612374E+03  0.00000000000E+00 0.  1.
         21   -1    0    0  502  503 -0.00000000000E+00 -0.00000000000E+00 -0.87543504064E+03  0.87543504064E+03  0.00000000000E+00 0. -1.
         -6    2    1    2    0  503  0.14979131554E+03  0.12419665935E+03 -0.65321446838E+03  0.70376056934E+03  0.17529275186E+03 0.  0.
        -24    2    3    3    0    0  0.91112649434E+02  0.42511843202E+01 -0.22970169599E+03  0.25967132018E+03  0.79666416592E+02 0.  0.
          6    2    1    2  501    0 -0.14979131554E+03 -0.12419665935E+03 -0.11164444852E+03  0.28225059504E+03  0.17128533828E+03 0.  0.
         24    2    5    5    0    0 -0.14151224517E+02 -0.70140238497E+02 -0.41318062007E+02  0.12011416616E+03  0.87179816779E+02 0.  0.
          5    1    5    5  501    0 -0.13564009102E+03 -0.54056420857E+02 -0.70326386515E+02  0.16213642888E+03  0.47000000000E+01 0. -1.
        -13    1    6    6    0    0 -0.29100399391E+02  0.10119337627E+02 -0.15501439031E+02  0.34489546978E+02  0.00000000000E+00 0.  1.
         14    1    6    6    0    0  0.14949174874E+02 -0.80259576124E+02 -0.25816622976E+02  0.85624619186E+02  0.00000000000E+00 0. -1.
         -5    1    3    3    0  503  0.58678666107E+02  0.11994547503E+03 -0.42351277239E+03  0.44408924916E+03  0.47000000000E+01 0.  1.
         13    1    4    4    0    0  0.62896297148E-01  0.14462405206E+02 -0.99026548043E+02  0.10007708198E+03  0.00000000000E+00 0. -1.
        -14    1    4    4    0    0  0.91049753137E+02 -0.10211220886E+02 -0.13067514794E+03  0.15959423820E+03  0.00000000000E+00 0.  1.
</event>
<event>
12    1  0.1030140E-001  0.1748530E+03  0.7818608E-02  0.1172916E+00
         21   -1    0    0  501  502  0.00000000000E+00  0.00000000000E+00  0.26020890673E+03  0.26020890673E+03  0.00000000000E+00 0.  1.
         21   -1    0    0  502  503 -0.00000000000E+00 -0.00000000000E+00 -0.22765006640E+03  0.22765006640E+03  0.00000000000E+00 0.  1.
         -6    2    1    2    0  503  0.27549919587E+02  0.10522694167E+02 -0.15347863504E+03  0.23254831922E+03  0.17220134783E+03 0.  0.
        -24    2    3    3    0    0 -0.51901481939E+02  0.62675865193E+01 -0.88883159812E+02  0.12995545121E+03  0.79089548826E+02 0.  0.
          6    2    1    2  501    0 -0.27549919587E+02 -0.10522694167E+02  0.18603747537E+03  0.25531065391E+03  0.17234808556E+03 0.  0.
         24    2    5    5    0    0 -0.55026566341E+02 -0.61032888734E+02  0.11854110740E+03  0.16651822427E+03  0.83206900923E+02 0.  0.
          5    1    5    5  501    0  0.27476646754E+02  0.50510194567E+02  0.67496367968E+02  0.88792429637E+02  0.47000000000E+01 0. -1.
        -11    1    6    6    0    0 -0.44315690598E+02 -0.63129261278E+02  0.12970493000E+03  0.15090577500E+03  0.00000000000E+00 0.  1.
         12    1    6    6    0    0 -0.10710875742E+02  0.20963725441E+01 -0.11163822604E+02  0.15612449268E+02  0.00000000000E+00 0. -1.
         -5    1    3    3    0  503  0.79451401525E+02  0.42551076476E+01 -0.64595475230E+02  0.10259286801E+03  0.47000000000E+01 0.  1.
         11    1    4    4    0    0  0.20254853103E+02  0.96213123541E+01 -0.18040133855E+02  0.28779769894E+02  0.00000000000E+00 0. -1.
        -12    1    4    4    0    0 -0.72156335041E+02 -0.33537258348E+01 -0.70843025957E+02  0.10117568132E+03  0.00000000000E+00 0.  1.
</event>
<event>
12    1  0.1030140E-001  0.2343211E+03  0.7818608E-02  0.1123838E+00
         21   -1    0    0  501  502  0.00000000000E+00  0.00000000000E+00  0.27734480684E+03  0.27734480684E+03  0.00000000000E+00 0.  1.
         21   -1    0    0  502  503 -0.00000000000E+00 -0.00000000000E+00 -0.26021883144E+03  0.26021883144E+03  0.00000000000E+00 0.  1.
         -6    2    1    2    0  503  0.72076556115E+02 -0.14091319549E+03 -0.12392690332E+03  0.26507406932E+03  0.17278549203E+03 0.  0.
        -24    2    3    3    0    0  0.23921049319E+02 -0.37234584194E+02  0.10878035414E+02  0.88261544929E+02  0.75585301469E+02 0.  0.
          6    2    1    2  501    0 -0.72076556115E+02  0.14091319549E+03  0.14105287873E+03  0.27248956896E+03  0.17118145925E+03 0.  0.
         24    2    5    5    0    0 -0.15904656416E+02  0.15339836146E+03  0.12137521410E+03  0.21149397756E+03  0.78827308422E+02 0.  0.
          5    1    5    5  501    0 -0.56171899699E+02 -0.12485165968E+02  0.19677664625E+02  0.60995591399E+02  0.47000000000E+01 0. -1.
        -13    1    6    6    0    0 -0.86486735723E+01  0.20715023760E+02  0.62021978756E+02  0.65959363344E+02  0.00000000000E+00 0.  1.
         14    1    6    6    0    0 -0.72559828441E+01  0.13268333770E+03  0.59353235345E+02  0.14553461422E+03  0.00000000000E+00 0. -1.
         -5    1    3    3    0  503  0.48155506797E+02 -0.10367861129E+03 -0.13480493873E+03  0.17681252439E+03  0.47000000000E+01 0.  1.
         11    1    4    4    0    0 -0.26100484221E+02 -0.10570232873E+02 -0.66397436351E+01  0.28931838779E+02  0.00000000000E+00 0. -1.
        -12    1    4    4    0    0  0.50021533540E+02 -0.26664351321E+02  0.17517779050E+02  0.59329706150E+02  0.00000000000E+00 0.  1.
</event>
<event>
12    1  0.1030140E-001  0.1736740E+03  0.7818608E-02  0.1174428E+00
         21   -1    0    0  503  502  0.00000000000E+00  0.00000000000E+00  0.25438767933E+03  0.25438767933E+03  0.00000000000E+00 0.  1.
         21   -1    0    0  501  503 -0.00000000000E+00 -0.00000000000E+00 -0.17291215220E+03  0.17291215220E+03  0.00000000000E+00 0.  1.
          6    2    1    2  501    0 -0.15620824975E+02  0.70383975200E+01 -0.80198491022E+02  0.19002122938E+03  0.17141388637E+03 0.  0.
         24    2    3    3    0    0 -0.80405987221E+01  0.31225698530E+02  0.17952359074E+02  0.88541355834E+02  0.80483470477E+02 0.  0.
         -6    2    1    2    0  502  0.15620824975E+02 -0.70383975200E+01  0.16167401815E+03  0.23727860215E+03  0.17282678520E+03 0.  0.
        -24    2    5    5    0    0 -0.12659129181E+02 -0.68551331136E+02  0.99180578877E+02  0.14502288818E+03  0.79594675184E+02 0.  0.
          5    1    3    3  501    0 -0.75802262532E+01 -0.24187301010E+02 -0.98150850096E+02  0.10147987355E+03  0.47000000000E+01 0. -1.
        -11    1    4    4    0    0  0.26692855142E+02 -0.13219506016E+02  0.16823860525E+01  0.29834447837E+02  0.00000000000E+00 0.  1.
         12    1    4    4    0    0 -0.34733453864E+02  0.44445204546E+02  0.16269973021E+02  0.58706907997E+02  0.00000000000E+00 0. -1.
         -5    1    5    5    0  502  0.28279954156E+02  0.61512933616E+02  0.62493439270E+02  0.92255713974E+02  0.47000000000E+01 0.  1.
         13    1    6    6    0    0 -0.40449250283E+02 -0.31479641206E+02  0.23728846779E+02  0.56481570697E+02  0.00000000000E+00 0. -1.
        -14    1    6    6    0    0  0.27790121102E+02 -0.37071689929E+02  0.75451732098E+02  0.88541317483E+02  0.00000000000E+00 0.  1.
</event>
<event>
12    1  0.1030140E-001  0.1847069E+03  0.7818608E-02  0.1164611E+00
         21   -1    0    0  503  502  0.00000000000E+00  0.00000000000E+00  0.22508764150E+03  0.22508764150E+03  0.00000000000E+00 0. -1.
         21   -1    0    0  501  503 -0.00000000000E+00 -0.00000000000E+00 -0.16629629968E+03  0.16629629968E+03  0.00000000000E+00 0. -1.
          6    2    1    2  501    0 -0.55117417502E+02 -0.36902254721E+02 -0.36595142189E+02  0.18829722796E+03  0.17238600729E+03 0.  0.
         24    2    3    3    0    0  0.26864110020E+02 -0.55318875364E+02 -0.20405349553E+02  0.10259809052E+03  0.79549553802E+02 0.  0.
         -6    2    1    2    0  502  0.55117417502E+02  0.36902254721E+02  0.95386484011E+02  0.20308671323E+03  0.16657108286E+03 0.  0.
        -24    2    5    5    0    0  0.67784412574E+02  0.78620163473E+02  0.89886956671E+02  0.15889201360E+03  0.79944670324E+02 0.  0.
          5    1    3    3  501    0 -0.81981527522E+02  0.18416620643E+02 -0.16189792636E+02  0.85699137431E+02  0.47000000000E+01 0. -1.
        -11    1    4    4    0    0 -0.20393166242E+02  0.76720948847E+01 -0.50962578024E+01  0.22376642127E+02  0.00000000000E+00 0.  1.
         12    1    4    4    0    0  0.47257276263E+02 -0.62990970249E+02 -0.15309091751E+02  0.80221448397E+02  0.00000000000E+00 0. -1.
         -5    1    5    5    0  502 -0.12666995072E+02 -0.41717908752E+02  0.54995273402E+01  0.44194699634E+02  0.47000000000E+01 0.  1.
         11    1    6    6    0    0  0.20590436057E+00  0.15507568850E+02  0.59610491470E+02  0.61594949318E+02  0.00000000000E+00 0. -1.
        -12    1    6    6    0    0  0.67578508213E+02  0.63112594623E+02  0.30276465201E+02  0.97297064280E+02  0.00000000000E+00 0.  1.
</event>
<event>
12    1  0.1030140E-001  0.2044164E+03  0.7818608E-02  0.1146665E+00
         21   -1    0    0  503  502  0.00000000000E+00  0.00000000000E+00  0.77688072171E+03  0.77688072171E+03  0.00000000000E+00 0. -1.
         21   -1    0    0  501  503 -0.00000000000E+00 -0.00000000000E+00 -0.72828638809E+02  0.72828638809E+02  0.00000000000E+00 0. -1.
          6    2    1    2  501    0 -0.84863361142E+02 -0.65629958021E+02  0.13232353321E+03  0.24350684705E+03  0.17400283235E+03 0.  0.
         24    2    3    3    0    0 -0.11565767743E+03 -0.85561769275E+02  0.94049254513E+02  0.19028488330E+03  0.81642879845E+02 0.  0.
         -6    2    1    2    0  502  0.84863361142E+02  0.65629958021E+02  0.57172854969E+03  0.60620251347E+03  0.17058391293E+03 0.  0.
        -24    2    5    5    0    0  0.25626013167E+02  0.57264097457E+02  0.15632127137E+03  0.18648314544E+03  0.80023460567E+02 0.  0.
          5    1    3    3  501    0  0.30794316286E+02  0.19931811254E+02  0.38274278697E+02  0.53221963747E+02  0.47000000000E+01 0. -1.
        -13    1    4    4    0    0 -0.54911317511E+02 -0.29512663997E+02  0.87413116988E+02  0.10736527906E+03  0.00000000000E+00 0.  1.
         14    1    4    4    0    0 -0.60746359918E+02 -0.56049105278E+02  0.66361375242E+01  0.82919604238E+02  0.00000000000E+00 0. -1.
         -5    1    5    5    0  502  0.59237347976E+02  0.83658605637E+01  0.41540727832E+03  0.41971936803E+03  0.47000000000E+01 0.  1.
         11    1    6    6    0    0  0.41084259716E+02  0.52059171031E+02  0.15671275471E+03  0.17016745040E+03  0.00000000000E+00 0. -1.
        -12    1    6    6    0    0 -0.15458246549E+02  0.52049264257E+01 -0.39148334180E+00  0.16315695041E+02  0.00000000000E+00 0.  1.
</event>
<event>
12    1  0.1030140E-001  0.1998647E+03  0.7818608E-02  0.1150160E+00
         21   -1    0    0  503  502  0.00000000000E+00  0.00000000000E+00  0.25115669252E+02  0.25115669252E+02  0.00000000000E+00 0.  1.
         21   -1    0    0  501  503 -0.00000000000E+00 -0.00000000000E+00 -0.15911044672E+04  0.15911044672E+04  0.00000000000E+00 0. -1.
          6    2    1    2  501    0 -0.39677590785E+02  0.91512831319E+02 -0.85641397493E+03  0.87942639559E+03  0.17319636052E+03 0.  0.
         24    2    3    3    0    0 -0.67062843370E+02  0.87278814474E+02 -0.82966790734E+03  0.84062792797E+03  0.78685833571E+02 0.  0.
         -6    2    1    2    0  502  0.39677590785E+02 -0.91512831319E+02 -0.70957482303E+03  0.73679374087E+03  0.17152165346E+03 0.  0.
        -24    2    5    5    0    0 -0.42064082332E+02 -0.64081178425E+02 -0.34026882263E+03  0.35752706868E+03  0.78529922548E+02 0.  0.
          5    1    3    3  501    0  0.27385252585E+02  0.42340168447E+01 -0.26746067591E+02  0.38798467616E+02  0.47000000000E+01 0. -1.
        -11    1    4    4    0    0 -0.15266665004E+02  0.58986184892E+02 -0.22558220208E+03  0.23366593882E+03  0.00000000000E+00 0.  1.
         12    1    4    4    0    0 -0.51796178366E+02  0.28292629582E+02 -0.60408570525E+03  0.60696198915E+03  0.00000000000E+00 0. -1.
         -5    1    5    5    0  502  0.81741673118E+02 -0.27431652894E+02 -0.36930600040E+03  0.37926667219E+03  0.47000000000E+01 0.  1.
         11    1    6    6    0    0  0.55693484080E+01  0.13224209303E+02 -0.93253609589E+02  0.94351115811E+02  0.00000000000E+00 0. -1.
        -12    1    6    6    0    0 -0.47633430740E+02 -0.77305387728E+02 -0.24701521304E+03  0.26317595287E+03  0.00000000000E+00 0.  1.
</event>
<event>
12    1  0.1030140E-001  0.1741533E+03  0.7818608E-02  0.1173659E+00
         21   -1    0    0  501  502  0.00000000000E+00  0.00000000000E+00  0.21302167870E+03  0.21302167870E+03  0.00000000000E+00 0.  1.
         21   -1    0    0  502  503 -0.00000000000E+00 -0.00000000000E+00 -0.17246936681E+03  0.17246936681E+03  0.00000000000E+00 0.  1.
         -6    2    1    2    0  503 -0.19124273540E+02  0.19709224862E+02 -0.60572118547E+02  0.18410700340E+03  0.17167473830E+03 0.  0.
        -24    2    3    3    0    0  0.48984028227E+02  0.28210355770E+00 -0.62655548340E+02  0.11309584588E+03  0.80407947456E+02 0.  0.
          6    2    1    2  501    0  0.19124273540E+02 -0.19709224862E+02  0.10112443044E+03  0.20138404212E+03  0.17197438938E+03 0.  0.
         24    2    5    5    0    0  0.32425776679E+02 -0.67015792075E+02  0.10647687094E+03  0.15172943602E+03  0.78370596081E+02 0.  0.
          5    1    5    5  501    0 -0.13301503139E+02  0.47306567213E+02 -0.53524404929E+01  0.49654606095E+02  0.47000000000E+01 0. -1.
        -11    1    6    6    0    0  0.43380123389E+02 -0.71179453321E+01  0.63366646517E+02  0.77122189685E+02  0.00000000000E+00 0.  1.
         12    1    6    6    0    0 -0.10954346711E+02 -0.59897846743E+02  0.43110224420E+02  0.74607246336E+02  0.00000000000E+00 0. -1.
         -5    1    3    3    0  503 -0.68108301767E+02  0.19427121305E+02  0.20834297929E+01  0.71011157514E+02  0.47000000000E+01 0.  1.
         13    1    4    4    0    0  0.35867194194E+02 -0.18812979659E+02  0.57189500573E+01  0.40903425440E+02  0.00000000000E+00 0. -1.
        -14    1    4    4    0    0  0.13116834034E+02  0.19095083217E+02 -0.68374498397E+02  0.72192420442E+02  0.00000000000E+00 0.  1.
</event>
<event>
12    1  0.1030140E-001  0.2816775E+03  0.7818608E-02  0.1094816E+00
         21   -1    0    0  503  502  0.00000000000E+00  0.00000000000E+00  0.18107487308E+03  0.18107487308E+03  0.00000000000E+00 0. -1.
         21   -1    0    0  501  503 -0.00000000000E+00 -0.00000000000E+00 -0.47579924911E+03  0.47579924911E+03  0.00000000000E+00 0.  1.
          6    2    1    2  501    0 -0.24314872990E+02 -0.22209633388E+03 -0.24020911244E+03  0.36996977780E+03  0.17105327887E+03 0.  0.
         24    2    3    3    0    0 -0.54597409028E+02 -0.59077912289E+02 -0.86743707234E+02  0.14399243742E+03  0.82086993474E+02 0.  0.
         -6    2    1    2    0  502  0.24314872990E+02  0.22209633388E+03 -0.54515263586E+02  0.28690434439E+03  0.17153481948E+03 0.  0.
        -24    2    5    5    0    0 -0.31137867842E+02  0.57202776168E+02 -0.44932098191E+02  0.11260913820E+03  0.80126151431E+02 0.  0.
          5    1    3    3  501    0  0.30282536039E+02 -0.16301842159E+03 -0.15346540521E+03  0.22597734038E+03  0.47000000000E+01 0. -1.
        -13    1    4    4    0    0 -0.37155454830E+02 -0.73212363292E+01 -0.80572342704E+02  0.89028258063E+02  0.00000000000E+00 0.  1.
         14    1    4    4    0    0 -0.17441954198E+02 -0.51756675960E+02 -0.61713645307E+01  0.54964179361E+02  0.00000000000E+00 0. -1.
         -5    1    5    5    0  502  0.55452740832E+02  0.16489355772E+03 -0.95831653954E+01  0.17429520619E+03  0.47000000000E+01 0.  1.
         13    1    6    6    0    0 -0.10424092450E+02  0.20400589147E+02  0.23100853725E+02  0.32534522953E+02  0.00000000000E+00 0. -1.
        -14    1    6    6    0    0 -0.20713775392E+02  0.36802187021E+02 -0.68032951915E+02  0.80074615246E+02  0.00000000000E+00 0.  1.
</event>
<event>
12    1  0.1030140E-001  0.2007880E+03  0.7818608E-02  0.1149263E+00
         21   -1    0    0  503  502  0.00000000000E+00  0.00000000000E+00  0.71156676938E+03  0.71156676938E+03  0.00000000000E+00 0.  1.
         21   -1    0    0  501  503 -0.00000000000E+00 -0.00000000000E+00 -0.90185750906E+02  0.90185750906E+02  0.00000000000E+00 0.  1.
          6    2    1    2  501    0 -0.62399514344E+01  0.10079458790E+03  0.64923577505E+02  0.21017776805E+03  0.17251416557E+03 0.  0.
         24    2    3    3    0    0  0.48371084903E+01 -0.12010184372E+02  0.21386884906E+01  0.80518020274E+02  0.79441396345E+02 0.  0.
         -6    2    1    2    0  502  0.62399514344E+01 -0.10079458790E+03  0.55645744097E+03  0.59157475223E+03  0.17354341800E+03 0.  0.
        -24    2    5    5    0    0  0.58793542851E+02 -0.50499122582E+02  0.43510105680E+03  0.45000859886E+03  0.84781881084E+02 0.  0.
          5    1    3    3  501    0 -0.11077059925E+02  0.11280477227E+03  0.62784889014E+02  0.12965974777E+03  0.47000000000E+01 0. -1.
        -11    1    4    4    0    0  0.10690817065E+02 -0.32948727979E+00  0.39508149873E+02  0.40930380377E+02  0.00000000000E+00 0.  1.
         12    1    4    4    0    0 -0.58537085744E+01 -0.11680697093E+02 -0.37369461383E+02  0.39587639898E+02  0.00000000000E+00 0. -1.
         -5    1    5    5    0  502 -0.52553591417E+02 -0.50295465320E+02  0.12135638417E+03  0.14156615338E+03  0.47000000000E+01 0.  1.
         11    1    6    6    0    0 -0.17177762513E+01 -0.53648741941E+02  0.18160831822E+03  0.18937454822E+03  0.00000000000E+00 0. -1.
        -12    1    6    6    0    0  0.60511319102E+02  0.31496193595E+01  0.25349273858E+03  0.26063405064E+03  0.00000000000E+00 0.  1.
</event>
<event>
12    1  0.1030140E-001  0.2355609E+03  0.7818608E-02  0.1123137E+00
         21   -1    0    0  501  502  0.00000000000E+00  0.00000000000E+00  0.91143881167E+02  0.91143881167E+02  0.00000000000E+00 0. -1.
         21   -1    0    0  502  503 -0.00000000000E+00 -0.00000000000E+00 -0.63753551239E+03  0.63753551239E+03  0.00000000000E+00 0.  1.
         -6    2    1    2    0  503  0.10804956796E+03  0.11948515016E+03 -0.18791300341E+03  0.29973202922E+03  0.16904609502E+03 0.  0.
        -24    2    3    3    0    0  0.99814436031E+02  0.39324862605E+02 -0.50784297498E+02  0.14060987148E+03  0.75383848569E+02 0.  0.
          6    2    1    2  501    0 -0.10804956796E+03 -0.11948515016E+03 -0.35847862781E+03  0.42894736434E+03  0.17186478560E+03 0.  0.
         24    2    5    5    0    0 -0.74641463142E+02 -0.11954042365E+03 -0.36050288606E+03  0.39514955162E+03  0.79495763295E+02 0.  0.
          5    1    5    5  501    0 -0.33408104821E+02  0.55273488476E-01  0.20242582504E+01  0.33797812716E+02  0.47000000000E+01 0. -1.
        -13    1    6    6    0    0 -0.47807020333E+01  0.23090766467E+01 -0.91782955935E+02  0.91936379889E+02  0.00000000000E+00 0.  1.
         14    1    6    6    0    0 -0.69860761108E+02 -0.12184950030E+03 -0.26871993013E+03  0.30321317173E+03  0.00000000000E+00 0. -1.
         -5    1    3    3    0  503  0.82351319317E+01  0.80160287556E+02 -0.13712870591E+03  0.15912215774E+03  0.47000000000E+01 0.  1.
         11    1    4    4    0    0  0.20554108790E+02  0.49168166797E+00  0.19075429704E+02  0.28046125533E+02  0.00000000000E+00 0. -1.
        -12    1    4    4    0    0  0.79260327240E+02  0.38833180937E+02 -0.69859727202E+02  0.11256374594E+03  0.00000000000E+00 0.  1.
</event>
<event>
12    1  0.1030140E-001  0.2223316E+03  0.7818608E-02  0.1132257E+00
         21   -1    0    0  501  502  0.00000000000E+00  0.00000000000E+00  0.11454477813E+03  0.11454477813E+03  0.00000000000E+00 0.  1.
         21   -1    0    0  502  503 -0.00000000000E+00 -0.00000000000E+00 -0.61524254974E+03  0.61524254974E+03  0.00000000000E+00 0.  1.
         -6    2    1    2    0  503  0.13703916864E+03  0.31982354889E+02 -0.45051909876E+03  0.50239308567E+03  0.17213003636E+03 0.  0.
        -24    2    3    3    0    0  0.14240424276E+03  0.43906194440E+02 -0.45671998867E+03  0.48717786285E+03  0.80885102053E+02 0.  0.
          6    2    1    2  501    0 -0.13703916864E+03 -0.31982354889E+02 -0.50178672855E+02  0.22739424219E+03  0.17142822815E+03 0.  0.
         24    2    5    5    0    0 -0.14797363258E+03  0.27255725376E+01 -0.30105387258E+01  0.16763534658E+03  0.78669698075E+02 0.  0.
          5    1    5    5  501    0  0.10934463933E+02 -0.34707927427E+02 -0.47168134129E+02  0.59758895614E+02  0.47000000000E+01 0. -1.
        -11    1    6    6    0    0 -0.30755865233E+02  0.31242020686E+02  0.13505067407E+02  0.45873455815E+02  0.00000000000E+00 0.  1.
         12    1    6    6    0    0 -0.11721776734E+03 -0.28516448148E+02 -0.16515606132E+02  0.12176189076E+03  0.00000000000E+00 0. -1.
         -5    1    3    3    0  503 -0.53650741148E+01 -0.11923839550E+02  0.62008899100E+01  0.15215222823E+02  0.47000000000E+01 0.  1.
         13    1    4    4    0    0  0.34171402138E+02 -0.22139525386E+01 -0.33480372437E+02  0.47890726121E+02  0.00000000000E+00 0. -1.
        -14    1    4    4    0    0  0.10823284062E+03  0.46120146978E+02 -0.42323961623E+03  0.43928713673E+03  0.00000000000E+00 0.  1.
</event>
<event>
12    1  0.1030140E-001  0.2211076E+03  0.7818608E-02  0.1133129E+00
         21   -1    0    0  503  502  0.00000000000E+00  0.00000000000E+00  0.84843068105E+03  0.84843068105E+03  0.00000000000E+00 0. -1.
         21   -1    0    0  501  503 -0.00000000000E+00 -0.00000000000E+00 -0.42902881884E+03  0.42902881884E+03  0.00000000000E+00 0. -1.
          6    2    1    2  501    0  0.13278527299E+03 -0.40523911989E+02 -0.38464309669E+03  0.44366526008E+03  0.17208845112E+03 0.  0.
         24    2    3    3    0    0  0.16598636280E+03 -0.33911806142E+02 -0.33329649675E+03  0.38198385580E+03  0.78253614112E+02 0.  0.
         -6    2    1    2    0  502 -0.13278527299E+03  0.40523911989E+02  0.80404495890E+03  0.83379423981E+03  0.17161125325E+03 0.  0.
        -24    2    5    5    0    0 -0.12141946884E+03 -0.29070546707E+02  0.58668527298E+03  0.60523375931E+03  0.80749673510E+02 0.  0.
          5    1    3    3  501    0 -0.33201089806E+02 -0.66121058474E+01 -0.51346599946E+02  0.61681404281E+02  0.47000000000E+01 0. -1.
        -11    1    4    4    0    0  0.22338393227E+02 -0.18204004406E+02 -0.15146929046E+02  0.32554862124E+02  0.00000000000E+00 0.  1.
         12    1    4    4    0    0  0.14364796957E+03 -0.15707801736E+02 -0.31814956770E+03  0.34942899368E+03  0.00000000000E+00 0. -1.
         -5    1    5    5    0  502 -0.11365804145E+02  0.69594458695E+02  0.21735968592E+03  0.22856048050E+03  0.47000000000E+01 0.  1.
         13    1    6    6    0    0 -0.57523016638E+02 -0.20111970472E+02  0.44974551769E+03  0.45385506440E+03  0.00000000000E+00 0. -1.
        -14    1    6    6    0    0 -0.63896452206E+02 -0.89585762347E+01  0.13693975530E+03  0.15137869491E+03  0.00000000000E+00 0.  1.
</event>
<event>
12    1  0.1030140E-001  0.1875372E+03  0.7818608E-02  0.1162065E+00
         21   -1    0    0  501  502  0.00000000000E+00  0.00000000000E+00  0.13481144535E+04  0.13481144535E+04  0.00000000000E+00 0. -1.
         21   -1    0    0  502  503 -0.00000000000E+00 -0.00000000000E+00 -0.29961890426E+02  0.29961890426E+02  0.00000000000E+00 0. -1.
         -6    2    1    2    0  503 -0.56068283705E+02 -0.35255030317E+02  0.92256780870E+03  0.94028928822E+03  0.16919224061E+03 0.  0.
        -24    2    3    3    0    0 -0.10355123949E+03 -0.29201833677E+02  0.68621196761E+03  0.69908927599E+03  0.79141297831E+02 0.  0.
          6    2    1    2  501    0  0.56068283705E+02  0.35255030317E+02  0.39558475434E+03  0.43778705567E+03  0.17545266784E+03 0.  0.
         24    2    5    5    0    0  0.64856842434E+02  0.28751617189E+02  0.11455370420E+03  0.15650414775E+03  0.79611127467E+02 0.  0.
          5    1    5    5  501    0 -0.87885587287E+01  0.65034131275E+01  0.28103105014E+03  0.28128290792E+03  0.47000000000E+01 0. -1.
        -11    1    6    6    0    0  0.25553742895E+02 -0.91567815333E+01  0.94518192126E+02  0.98338848208E+02  0.00000000000E+00 0.  1.
         12    1    6    6    0    0  0.39303099539E+02  0.37908398723E+02  0.20035512072E+02  0.58165299544E+02  0.00000000000E+00 0. -1.
         -5    1    3    3    0  503  0.47482955789E+02 -0.60531966395E+01  0.23635584110E+03  0.24120001223E+03  0.47000000000E+01 0.  1.
         11    1    4    4    0    0 -0.66601519837E+02  0.20827191549E+01  0.55931271875E+03  0.56326798021E+03  0.00000000000E+00 0. -1.
        -12    1    4    4    0    0 -0.36949719656E+02 -0.31284552832E+02  0.12689924885E+03  0.13582129578E+03  0.00000000000E+00 0.  1.
</event>
<event>
12    1  0.1030140E-001  0.1835353E+03  0.7818608E-02  0.1164840E+00
         21   -1    0    0  501  502  0.00000000000E+00  0.00000000000E+00  0.13968745434E+03  0.13968745434E+03  0.00000000000E+00 0. -1.
         21   -1    0    0  502  503 -0.00000000000E+00 -0.00000000000E+00 -0.25650694638E+03  0.25650694638E+03  0.00000000000E+00 0. -1.
         -6    2    1    2    0  503 -0.57712904941E+02 -0.33384756884E+02 -0.66984027442E+01  0.18365744726E+03  0.17099668987E+03 0.  0.
        -24    2    3    3    0    0 -0.53041997458E+02 -0.71136332943E+02  0.37800356421E+02  0.12492731497E+03  0.79398587648E+02 0.  0.
          6    2    1    2  501    0  0.57712904941E+02  0.33384756884E+02 -0.11012108929E+03  0.21253695346E+03  0.16911528876E+03 0.  0.
         24    2    5    5    0    0  0.10381326644E+03  0.32640504617E+02 -0.71431795676E+02  0.15216519946E+03  0.78798157734E+02 0.  0.
          5    1    5    5  501    0 -0.46100361496E+02  0.74425226661E+00 -0.38689293611E+02  0.60371754005E+02  0.47000000000E+01 0. -1.
        -13    1    6    6    0    0  0.56206183962E+02 -0.19538345605E+02 -0.51700179658E+02  0.78827600758E+02  0.00000000000E+00 0.  1.
         14    1    6    6    0    0  0.47607082475E+02  0.52178850222E+02 -0.19731616018E+02  0.73337598699E+02  0.00000000000E+00 0. -1.
         -5    1    3    3    0  503 -0.46709074831E+01  0.37751576059E+02 -0.44498759166E+02  0.58730132291E+02  0.47000000000E+01 0.  1.
         13    1    4    4    0    0 -0.49949790759E+02 -0.21583163364E+01  0.14549954663E+02  0.52070539722E+02  0.00000000000E+00 0. -1.
        -14    1    4    4    0    0 -0.30922066988E+01 -0.68978016606E+02  0.23250401758E+02  0.72856775245E+02  0.00000000000E+00 0.  1.
</event>
<event>
12    1  0.1030140E-001  0.1768637E+03  0.7818608E-02  0.1171154E+00
         21   -1    0    0  503  502  0.00000000000E+00  0.00000000000E+00  0.29616152998E+02  0.29616152998E+02  0.00000000000E+00 0. -1.
         21   -1    0    0  501  503 -0.00000000000E+00 -0.00000000000E+00 -0.11781297559E+04  0.11781297559E+04  0.00000000000E+00 0. -1.
          6    2    1    2  501    0 -0.25907980202E+02  0.29337920083E+02 -0.77217805653E+03  0.79192238522E+03  0.17131893135E+03 0.  0.
         24    2    3    3    0    0 -0.38769504269E+02  0.38970237837E+02 -0.76888468289E+03  0.77485965811E+03  0.78753287408E+02 0.  0.
         -6    2    1    2    0  502  0.25907980202E+02 -0.29337920083E+02 -0.37633554636E+03  0.41582352366E+03  0.17247846933E+03 0.  0.
        -24    2    5    5    0    0  0.72998610480E+02 -0.28191963753E+02 -0.15598495651E+03  0.19044536784E+03  0.76253180399E+02 0.  0.
          5    1    3    3  501    0  0.12861524067E+02 -0.96323177539E+01 -0.32933736343E+01  0.17062727113E+02  0.47000000000E+01 0. -1.
        -13    1    4    4    0    0 -0.12022615321E+02 -0.22035959017E+02 -0.12208725581E+03  0.12464118421E+03  0.00000000000E+00 0.  1.
         14    1    4    4    0    0 -0.26746888948E+02  0.61006196854E+02 -0.64679742708E+03  0.65021847390E+03  0.00000000000E+00 0. -1.
         -5    1    5    5    0  502 -0.47090630278E+02 -0.11459563299E+01 -0.22035058985E+03  0.22537815582E+03  0.47000000000E+01 0.  1.
         11    1    6    6    0    0  0.60011074901E+02 -0.30043066321E+02 -0.16248906031E+03  0.17580275785E+03  0.00000000000E+00 0. -1.
        -12    1    6    6    0    0  0.12987535579E+02  0.18511025675E+01  0.65041038018E+01  0.14642609992E+02  0.00000000000E+00 0.  1.
</event>
<event>
12    1  0.1030140E-001  0.2509724E+03  0.7818608E-02  0.1112793E+00
         21   -1    0    0  503  502  0.00000000000E+00  0.00000000000E+00  0.25522033209E+03  0.25522033209E+03  0.00000000000E+00 0. -1.
         21   -1    0    0  501  503 -0.00000000000E+00 -0.00000000000E+00 -0.26492470415E+03  0.26492470415E+03  0.00000000000E+00 0. -1.
          6    2    1    2  501    0 -0.65609617850E+02  0.16984380643E+03 -0.74070684776E+02  0.26167459655E+03  0.17272981098E+03 0.  0.
         24    2    3    3    0    0 -0.66234893935E+01  0.61650078028E+02  0.24789781330E+02  0.10362166879E+03  0.79235814197E+02 0.  0.
         -6    2    1    2    0  502  0.65609617850E+02 -0.16984380643E+03  0.64366312715E+02  0.25847043969E+03  0.17179175022E+03 0.  0.
        -24    2    5    5    0    0  0.52690182525E+02 -0.98710861981E+02 -0.28744890736E+02  0.14049334953E+03  0.79950127643E+02 0.  0.
          5    1    3    3  501    0 -0.58986128456E+02  0.10819372840E+03 -0.98860466106E+02  0.15805292776E+03  0.47000000000E+01 0. -1.
        -13    1    4    4    0    0 -0.28470793908E+02  0.25148819820E+01  0.28640658105E+02  0.40462303862E+02  0.00000000000E+00 0.  1.
         14    1    4    4    0    0  0.21847304515E+02  0.59135196046E+02 -0.38508767750E+01  0.63159364926E+02  0.00000000000E+00 0. -1.
         -5    1    5    5    0  502  0.12919435325E+02 -0.71132944450E+02  0.93111203451E+02  0.11797709016E+03  0.47000000000E+01 0.  1.
         11    1    6    6    0    0  0.18271639180E+02 -0.49715855251E+02  0.26320468789E+02  0.59146311288E+02  0.00000000000E+00 0. -1.
        -12    1    6    6    0    0  0.34418543345E+02 -0.48995006730E+02 -0.55065359525E+02  0.81347038238E+02  0.00000000000E+00 0.  1.
</event>
<event>
12    1  0.1030140E-001  0.3402722E+03  0.7818608E-02  0.1066725E+00
         21   -1    0    0  503  502  0.00000000000E+00  0.00000000000E+00  0.79914147016E+03  0.79914147016E+03  0.00000000000E+00 0.  1.
         21   -1    0    0  501  503 -0.00000000000E+00 -0.00000000000E+00 -0.14513493659E+03  0.14513493659E+03  0.00000000000E+00 0.  1.
          6    2    1    2  501    0  0.20105561714E+03 -0.21500411188E+03  0.35246626847E+03  0.48962083412E+03  0.16984098884E+03 0.  0.
         24    2    3    3    0    0  0.18422787798E+03 -0.14257930043E+03  0.32965215370E+03  0.41170357063E+03  0.80997035053E+02 0.  0.
         -6    2    1    2    0  502 -0.20105561714E+03  0.21500411188E+03  0.30154026510E+03  0.45465557262E+03  0.17068986183E+03 0.  0.
        -24    2    5    5    0    0 -0.16643274872E+03  0.93297341930E+02  0.23154158237E+03  0.30997251746E+03  0.77892254753E+02 0.  0.
          5    1    3    3  501    0  0.16827739155E+02 -0.72424811447E+02  0.22814114763E+02  0.77917263495E+02  0.47000000000E+01 0. -1.
        -13    1    4    4    0    0  0.11051131450E+03 -0.56149346191E+02  0.22679165248E+03  0.25845686941E+03  0.00000000000E+00 0.  1.
         14    1    4    4    0    0  0.73716563485E+02 -0.86429954243E+02  0.10286050122E+03  0.15324670122E+03  0.00000000000E+00 0. -1.
         -5    1    5    5    0  502 -0.34622868412E+02  0.12170676995E+03  0.69998682729E+02  0.14468305517E+03  0.47000000000E+01 0.  1.
         13    1    6    6    0    0 -0.80815239293E+02  0.40316047278E+01  0.11006702089E+03  0.13660931822E+03  0.00000000000E+00 0. -1.
        -14    1    6    6    0    0 -0.85617509431E+02  0.89265737203E+02  0.12147456149E+03  0.17336319923E+03  0.00000000000E+00 0.  1.
</event>
<event>
12    1  0.1030140E-001  0.1836835E+03  0.7818608E-02  0.1166517E+00
         21   -1    0    0  501  502  0.00000000000E+00  0.00000000000E+00  0.19087389504E+03  0.19087389504E+03  0.00000000000E+00 0.  1.
         21   -1    0    0  502  503 -0.00000000000E+00 -0.00000000000E+00 -0.19823154023E+03  0.19823154023E+03  0.00000000000E+00 0.  1.
         -6    2    1    2    0  503 -0.29164375806E+02 -0.11383994643E+02 -0.79703698851E+02  0.20023061140E+03  0.18099575127E+03 0.  0.
        -24    2    3    3    0    0  0.44089164532E+02 -0.32516269864E+02 -0.77044377836E+02  0.12379883648E+03  0.79932180776E+02 0.  0.
          6    2    1    2  501    0  0.29164375806E+02  0.11383994643E+02  0.72346053662E+02  0.18887482388E+03  0.17163796627E+03 0.  0.
         24    2    5    5    0    0  0.81068059277E+02  0.98365225709E+01  0.75025286217E+02  0.13666701494E+03  0.79876729956E+02 0.  0.
          5    1    5    5  501    0 -0.51903683472E+02  0.15474720725E+01 -0.26792325549E+01  0.52207808945E+02  0.47000000000E+01 0. -1.
        -11    1    6    6    0    0  0.53148182468E+02 -0.15816247375E+02  0.33156052961E+01  0.55550663535E+02  0.00000000000E+00 0.  1.
         12    1    6    6    0    0  0.27919876809E+02  0.25652769946E+02  0.71709680921E+02  0.81116351402E+02  0.00000000000E+00 0. -1.
         -5    1    3    3    0  503 -0.73253540337E+02  0.21132275220E+02 -0.26593210150E+01  0.76431774912E+02  0.47000000000E+01 0.  1.
         13    1    4    4    0    0  0.39739228876E+02  0.50252557249E+01 -0.76095652517E+02  0.85994231427E+02  0.00000000000E+00 0. -1.
        -14    1    4    4    0    0  0.43499356556E+01 -0.37541525589E+02 -0.94872531889E+00  0.37804605056E+02  0.00000000000E+00 0.  1.
</event>
<event>
12    1  0.1030140E-001  0.1750726E+03  0.7818608E-02  0.1172791E+00
         21   -1    0    0  503  502  0.00000000000E+00  0.00000000000E+00  0.18748236423E+03  0.18748236423E+03  0.00000000000E+00 0. -1.
         21   -1    0    0  501  503 -0.00000000000E+00 -0.00000000000E+00 -0.16477933714E+03  0.16477933714E+03  0.00000000000E+00 0. -1.
          6    2    1    2  501    0 -0.28953605142E+02  0.14103639683E+02  0.29701333248E+02  0.17757418919E+03  0.17208486153E+03 0.  0.
         24    2    3    3    0    0  0.43150391009E+02  0.73820747966E+01 -0.14597407547E+02  0.92552814638E+02  0.80227725369E+02 0.  0.
         -6    2    1    2    0  502  0.28953605142E+02 -0.14103639683E+02 -0.69983061574E+01  0.17468751217E+03  0.17155036204E+03 0.  0.
        -24    2    5    5    0    0  0.59373428102E+01 -0.74586176811E+02 -0.19846537677E+02  0.10854333116E+03  0.76088237394E+02 0.  0.
          5    1    3    3  501    0 -0.72103996150E+02  0.67215648864E+01  0.44298740795E+02  0.85021374556E+02  0.47000000000E+01 0. -1.
        -11    1    4    4    0    0 -0.14248252977E+01 -0.27436580587E+02  0.12083624329E+02  0.30013497936E+02  0.00000000000E+00 0.  1.
         12    1    4    4    0    0  0.44575216306E+02  0.34818655384E+02 -0.26681031876E+02  0.62539316702E+02  0.00000000000E+00 0. -1.
         -5    1    5    5    0  502  0.23016262332E+02  0.60482537128E+02  0.12848231520E+02  0.66144181016E+02  0.47000000000E+01 0.  1.
         11    1    6    6    0    0  0.36330487510E+02 -0.65382493448E+02 -0.16630979934E+02  0.76624827998E+02  0.00000000000E+00 0. -1.
        -12    1    6    6    0    0 -0.30393144700E+02 -0.92036833627E+01 -0.32155577431E+01  0.31918503157E+02  0.00000000000E+00 0.  1.
</event>
<event>
12    1  0.1030140E-001  0.1859806E+03  0.7818608E-02  0.1162295E+00
         21   -1    0    0  501  502  0.00000000000E+00  0.00000000000E+00  0.22033792811E+02  0.22033792811E+02  0.00000000000E+00 0. -1.
         21   -1    0    0  502  503 -0.00000000000E+00 -0.00000000000E+00 -0.15656557032E+04  0.15656557032E+04  0.00000000000E+00 0. -1.
         -6    2    1    2    0  503 -0.62577041380E+01 -0.71195581592E+02 -0.74795926118E+03  0.77073460289E+03  0.17169974377E+03 0.  0.
        -24    2    3    3    0    0  0.60585845353E+02 -0.56590735395E+02 -0.46792795834E+03  0.48242750584E+03  0.83105765167E+02 0.  0.
          6    2    1    2  501    0  0.62577041380E+01  0.71195581592E+02 -0.79566264920E+03  0.81695489311E+03  0.17096279229E+03 0.  0.
         24    2    5    5    0    0 -0.47659155174E+02  0.31365803558E+02 -0.27158768938E+03  0.28858940176E+03  0.79175508098E+02 0.  0.
          5    1    5    5  501    0  0.53916859312E+02  0.39829778034E+02 -0.52407495982E+03  0.52836549135E+03  0.47000000000E+01 0. -1.
        -11    1    6    6    0    0  0.21959846545E+02  0.10670130713E+02 -0.55828239699E+02  0.60933397227E+02  0.00000000000E+00 0.  1.
         12    1    6    6    0    0 -0.69619001719E+02  0.20695672845E+02 -0.21575944968E+03  0.22765600453E+03  0.00000000000E+00 0. -1.
         -5    1    3    3    0  503 -0.66843549491E+02 -0.14604846197E+02 -0.28003130284E+03  0.28830709705E+03  0.47000000000E+01 0.  1.
         11    1    4    4    0    0  0.46765454671E+02 -0.49947184094E+02 -0.46019473116E+03  0.46525360777E+03  0.00000000000E+00 0. -1.
        -12    1    4    4    0    0  0.13820390682E+02 -0.66435513016E+01 -0.77332271813E+01  0.17173898077E+02  0.00000000000E+00 0.  1.
</event>
<event>
12    1  0.1030140E-001  0.3148240E+03  0.7818608E-02  0.1078286E+00
         21   -1    0    0  503  502  0.00000000000E+00  0.00000000000E+00  0.16417510917E+03  0.16417510917E+03  0.00000000000E+00 0. -1.
         21   -1    0    0  501  503 -0.00000000000E+00 -0.00000000000E+00 -0.19442401727E+04  0.19442401727E+04  0.00000000000E+00 0. -1.
          6    2    1    2  501    0  0.63895149782E+02 -0.25378437361E+03 -0.17657621074E+04  0.17932665036E+04  0.17146379954E+03 0.  0.
         24    2    3    3    0    0  0.10456655471E+03 -0.23134371649E+03 -0.15335452424E+04  0.15564026004E+04  0.78574578480E+02 0.  0.
         -6    2    1    2    0  502 -0.63895149782E+02  0.25378437361E+03 -0.14302956115E+02  0.31514877825E+03  0.17500022693E+03 0.  0.
        -24    2    5    5    0    0 -0.92287689996E+01  0.52077240367E+02 -0.41588666876E+02  0.10433895685E+03  0.79748301310E+02 0.  0.
          5    1    3    3  501    0 -0.40671404923E+02 -0.22440657123E+02 -0.23221686501E+03  0.23686390326E+03  0.47000000000E+01 0. -1.
        -11    1    4    4    0    0  0.13415431647E+02 -0.40400277216E+02 -0.12489050704E+03  0.13194618204E+03  0.00000000000E+00 0.  1.
         12    1    4    4    0    0  0.91151123059E+02 -0.19094343927E+03 -0.14086547354E+04  0.14244564183E+04  0.00000000000E+00 0. -1.
         -5    1    5    5    0  502 -0.54666380782E+02  0.20170713324E+03  0.27285710761E+02  0.21080982140E+03  0.47000000000E+01 0.  1.
         11    1    6    6    0    0 -0.21872386336E+02  0.70237127511E+02 -0.32098124213E+02  0.80261727760E+02  0.00000000000E+00 0. -1.
        -12    1    6    6    0    0  0.12643617336E+02 -0.18159887144E+02 -0.94905426623E+01  0.24077229086E+02  0.00000000000E+00 0.  1.
</event>
<event>
12    1  0.1030140E-001  0.2774219E+03  0.7818608E-02  0.1097176E+00
         21   -1    0    0  501  502  0.00000000000E+00  0.00000000000E+00  0.64377864126E+02  0.64377864126E+02  0.00000000000E+00 0.  1.
         21   -1    0    0  502  503 -0.00000000000E+00 -0.00000000000E+00 -0.11967071844E+04  0.11967071844E+04  0.00000000000E+00 0.  1.
         -6    2    1    2    0  503  0.21111970133E+03 -0.53973121505E+02 -0.60035524828E+03  0.66135417824E+03  0.17169245413E+03 0.  0.
        -24    2    3    3    0    0  0.67337741626E+02  0.19152705277E+01 -0.36959510668E+03  0.38374096305E+03  0.78221123293E+02 0.  0.
          6    2    1    2  501    0 -0.21111970133E+03  0.53973121505E+02 -0.53197407203E+03  0.59973087032E+03  0.17086859679E+03 0.  0.
         24    2    5    5    0    0 -0.20507093428E+03  0.89861925454E+02 -0.48562258164E+03  0.54061112325E+03  0.79384136052E+02 0.  0.
          5    1    5    5  501    0 -0.60487670487E+01 -0.35888803949E+02 -0.46351490397E+02  0.59119747071E+02  0.47000000000E+01 0. -1.
        -11    1    6    6    0    0 -0.17495008635E+03  0.40562665134E+02 -0.35797719563E+03  0.40050035595E+03  0.00000000000E+00 0.  1.
         12    1    6    6    0    0 -0.30120847925E+02  0.49299260320E+02 -0.12764538600E+03  0.14011076731E+03  0.00000000000E+00 0. -1.
         -5    1    3    3    0  503  0.14378195970E+03 -0.55888392033E+02 -0.23076014160E+03  0.27761321519E+03  0.47000000000E+01 0.  1.
         13    1    4    4    0    0  0.81824325822E+02  0.15584148091E+02 -0.30108014353E+03  0.31238972262E+03  0.00000000000E+00 0. -1.
        -14    1    4    4    0    0 -0.14486584196E+02 -0.13668877563E+02 -0.68514963151E+02  0.71351240432E+02  0.00000000000E+00 0.  1.
</event>
<event>
12    1  0.1030140E-001  0.2720359E+03  0.7818608E-02  0.1100133E+00
         21   -1    0    0  501  502  0.00000000000E+00  0.00000000000E+00  0.67016902203E+03  0.67016902203E+03  0.00000000000E+00 0. -1.
         21   -1    0    0  502  503 -0.00000000000E+00 -0.00000000000E+00 -0.42623389869E+03  0.42623389869E+03  0.00000000000E+00 0.  1.
         -6    2    1    2    0  503 -0.16656970301E+03  0.12795477159E+03 -0.34994246335E+03  0.44318464895E+03  0.17272815601E+03 0.  0.
        -24    2    3    3    0    0 -0.98191113862E+02  0.50251233396E+02 -0.29691615209E+03  0.32679156072E+03  0.80416674209E+02 0.  0.
          6    2    1    2  501    0  0.16656970301E+03 -0.12795477159E+03  0.59387758669E+03  0.65321827177E+03  0.17287461662E+03 0.  0.
         24    2    5    5    0    0  0.69662292113E+02 -0.69976987035E+02  0.46392840607E+03  0.48099356585E+03  0.79847547041E+02 0.  0.
          5    1    5    5  501    0  0.96907410892E+02 -0.57977784555E+02  0.12994918062E+03  0.17222470592E+03  0.47000000000E+01 0. -1.
        -11    1    6    6    0    0  0.26459099737E+01 -0.21144144772E+02  0.19464198343E+02  0.28860539061E+02  0.00000000000E+00 0.  1.
         12    1    6    6    0    0  0.67016382140E+02 -0.48832842262E+02  0.44446420773E+03  0.45213302679E+03  0.00000000000E+00 0. -1.
         -5    1    3    3    0  503 -0.68378589144E+02  0.77703538193E+02 -0.53026311266E+02  0.11639308823E+03  0.47000000000E+01 0.  1.
         11    1    4    4    0    0 -0.33393514798E+01  0.26457940665E+02 -0.13521760327E+03  0.13782225556E+03  0.00000000000E+00 0. -1.
        -12    1    4    4    0    0 -0.94851762382E+02  0.23793292732E+02 -0.16169854882E+03  0.18896930517E+03  0.00000000000E+00 0.  1.
</event>
<event>
12    1  0.1030140E-001  0.1851720E+03  0.7818608E-02  0.1163121E+00
         21   -1    0    0  501  502  0.00000000000E+00  0.00000000000E+00  0.17967850792E+03  0.17967850792E+03  0.00000000000E+00 0.  1.
         21   -1    0    0  502  503 -0.00000000000E+00 -0.00000000000E+00 -0.19345327258E+03  0.19345327258E+03  0.00000000000E+00 0.  1.
         -6    2    1    2    0  503 -0.27726585361E+02 -0.58471807974E+02 -0.32463054885E+02  0.18701909721E+03  0.17243716805E+03 0.  0.
        -24    2    3    3    0    0 -0.55135812488E+02  0.19478698792E+02 -0.38561547978E+01  0.99452025948E+02  0.80352087776E+02 0.  0.
          6    2    1    2  501    0  0.27726585361E+02  0.58471807974E+02  0.18688290226E+02  0.18611268328E+03  0.17349629052E+03 0.  0.
         24    2    5    5    0    0 -0.44746257348E+02  0.15288028050E+01  0.21027936150E+02  0.93795931223E+02  0.79692771508E+02 0.  0.
          5    1    5    5  501    0  0.72472842709E+02  0.56943005169E+02 -0.23396459240E+01  0.92316752061E+02  0.47000000000E+01 0. -1.
        -13    1    6    6    0    0 -0.17879304523E+02 -0.37998521372E+02  0.18631199935E+02  0.45942124110E+02  0.00000000000E+00 0.  1.
         14    1    6    6    0    0 -0.26866952825E+02  0.39527324177E+02  0.23967362156E+01  0.47853807113E+02  0.00000000000E+00 0. -1.
         -5    1    3    3    0  503  0.27409227127E+02 -0.77950506766E+02 -0.28606900087E+02  0.87567071262E+02  0.47000000000E+01 0.  1.
         13    1    4    4    0    0 -0.12756595312E+02 -0.27056994591E+02 -0.18040710335E+02  0.34932490745E+02  0.00000000000E+00 0. -1.
        -14    1    4    4    0    0 -0.42379217176E+02  0.46535693383E+02  0.14184555537E+02  0.64519535203E+02  0.00000000000E+00 0.  1.
</event>
<event>
12    1  0.1030140E-001  0.2474465E+03  0.7818608E-02  0.1115004E+00
         21   -1    0    0  501  502  0.00000000000E+00  0.00000000000E+00  0.38239245849E+03  0.38239245849E+03  0.00000000000E+00 0. -1.
         21   -1    0    0  502  503 -0.00000000000E+00 -0.00000000000E+00 -0.27551850759E+03  0.27551850759E+03  0.00000000000E+00 0.  1.
         -6    2    1    2    0  503  0.17214190814E+03 -0.38689130004E+02 -0.15970211452E+03  0.29450724546E+03  0.17349370860E+03 0.  0.
        -24    2    3    3    0    0  0.86711777482E+02  0.45436791176E+02 -0.68687295301E+02  0.14390424032E+03  0.80044059740E+02 0.  0.
          6    2    1    2  501    0 -0.17214190814E+03  0.38689130004E+02  0.26657606542E+03  0.36340372063E+03  0.17282875974E+03 0.  0.
         24    2    5    5    0    0 -0.14421733872E+03  0.10517930098E+02  0.27668976067E+03  0.32219965634E+03  0.79662583750E+02 0.  0.
          5    1    5    5  501    0 -0.27924569427E+02  0.28171199906E+02 -0.10113695253E+02  0.41204064284E+02  0.47000000000E+01 0. -1.
        -13    1    6    6    0    0 -0.36212109418E+02 -0.24420889144E+02  0.38008343459E+02  0.57899316642E+02  0.00000000000E+00 0.  1.
         14    1    6    6    0    0 -0.10800522930E+03  0.34938819242E+02  0.23868141721E+03  0.26430033970E+03  0.00000000000E+00 0. -1.
         -5    1    3    3    0  503  0.85430130661E+02 -0.84125921180E+02 -0.91014819217E+02  0.15060300514E+03  0.47000000000E+01 0.  1.
         13    1    4    4    0    0  0.75479280612E+02  0.63283246997E+01 -0.16139718130E+02  0.77444560794E+02  0.00000000000E+00 0. -1.
        -14    1    4    4    0    0  0.11232496870E+02  0.39108466476E+02 -0.52547577171E+02  0.66459679525E+02  0.00000000000E+00 0.  1.
</event>
<event>
12    1  0.1030140E-001  0.1807664E+03  0.7818608E-02  0.1167919E+00
         21   -1    0    0  501  502  0.00000000000E+00  0.00000000000E+00  0.41560536724E+03  0.41560536724E+03  0.00000000000E+00 0. -1.
         21   -1    0    0  502  503 -0.00000000000E+00 -0.00000000000E+00 -0.77110215390E+02  0.77110215390E+02  0.00000000000E+00 0. -1.
         -6    2    1    2    0  503 -0.30505341374E+02  0.32235249945E+02  0.17367948766E+03  0.25068118509E+03  0.17523357250E+03 0.  0.
        -24    2    3    3    0    0 -0.46686570572E+01  0.55505247341E+01 -0.16563179342E+02  0.56789537086E+02  0.53834077767E+02 0.  0.
          6    2    1    2  501    0  0.30505341374E+02 -0.32235249945E+02  0.16481566418E+03  0.24203439754E+03  0.17160058053E+03 0.  0.
         24    2    5    5    0    0  0.15648097573E+02 -0.79224683202E+02  0.66227378451E+02  0.13171447814E+03  0.80257240858E+02 0.  0.
          5    1    5    5  501    0  0.14857243801E+02  0.46989433257E+02  0.98588285731E+02  0.11031991939E+03  0.47000000000E+01 0. -1.
        -11    1    6    6    0    0  0.13873200106E+02 -0.12837230812E+02 -0.16873236979E+02  0.25337053938E+02  0.00000000000E+00 0.  1.
         12    1    6    6    0    0  0.17748974675E+01 -0.66387452391E+02  0.83100615430E+02  0.10637742421E+03  0.00000000000E+00 0. -1.
         -5    1    3    3    0  503 -0.25836684317E+02  0.26684725211E+02  0.19024266701E+03  0.19389164800E+03  0.47000000000E+01 0.  1.
         13    1    4    4    0    0 -0.13230452711E+02  0.27404383358E+02 -0.58464007424E+01  0.30987505672E+02  0.00000000000E+00 0. -1.
        -14    1    4    4    0    0  0.85617956533E+01 -0.21853858623E+02 -0.10716778599E+02  0.25802031414E+02  0.00000000000E+00 0.  1.
</event>
<event>
12    1  0.1030140E-001  0.2553722E+03  0.7818608E-02  0.1109972E+00
         21   -1    0    0  503  502  0.00000000000E+00  0.00000000000E+00  0.19998945969E+03  0.19998945969E+03  0.00000000000E+00 0.  1.
         21   -1    0    0  501  503 -0.00000000000E+00 -0.00000000000E+00 -0.52170709579E+03  0.52170709579E+03  0.00000000000E+00 0. -1.
          6    2    1    2  501    0  0.43165220345E+02 -0.18290787690E+03 -0.38191312220E+03  0.45942637910E+03  0.17290586232E+03 0.  0.
         24    2    3    3    0    0  0.47744393570E+02 -0.26849866494E+02 -0.13006262724E+03  0.16307214301E+03  0.81705534524E+02 0.  0.
         -6    2    1    2    0  502 -0.43165220345E+02  0.18290787690E+03  0.60195486106E+02  0.26227017637E+03  0.17275306419E+03 0.  0.
        -24    2    5    5    0    0 -0.73264564104E+02  0.86350841660E+02  0.78949846006E+02  0.15929907574E+03  0.79491843230E+02 0.  0.
          5    1    3    3  501    0 -0.45791732243E+01 -0.15605801041E+03 -0.25185049496E+03  0.29635423610E+03  0.47000000000E+01 0. -1.
        -11    1    4    4    0    0  0.31051329677E+02 -0.90238658227E+01 -0.13442870531E+03  0.13826312610E+03  0.00000000000E+00 0.  1.
         12    1    4    4    0    0  0.16693063893E+02 -0.17826000671E+02  0.43660780664E+01  0.24809016904E+02  0.00000000000E+00 0. -1.
         -5    1    5    5    0  502  0.30099343758E+02  0.96557035240E+02 -0.18754359900E+02  0.10297110063E+03  0.47000000000E+01 0.  1.
         11    1    6    6    0    0  0.16635913652E+02  0.15539965499E+02  0.58465203790E+01  0.23503743346E+02  0.00000000000E+00 0. -1.
        -12    1    6    6    0    0 -0.89900477756E+02  0.70810876161E+02  0.73103325627E+02  0.13579533240E+03  0.00000000000E+00 0.  1.
</event>
<event>
12    1  0.1030140E-001  0.2793025E+03  0.7818608E-02  0.1097767E+00
         21   -1    0    0  501  502  0.00000000000E+00  0.00000000000E+00  0.16891667516E+03  0.16891667516E+03  0.00000000000E+00 0. -1.
         21   -1    0    0  502  503 -0.00000000000E+00 -0.00000000000E+00 -0.15564429731E+04  0.15564429731E+04  0.00000000000E+00 0.  1.
         -6    2    1    2    0  503  0.51493052379E+02 -0.19453914473E+03 -0.14280404340E+04  0.14550977118E+04  0.19368235960E+03 0.  0.
        -24    2    3    3    0    0 -0.43526977667E+02 -0.46216650851E+02 -0.50344535254E+03  0.51386101309E+03  0.81026792985E+02 0.  0.
          6    2    1    2  501    0 -0.51493052379E+02  0.19453914473E+03  0.40514136048E+02  0.27026193649E+03  0.17579279228E+03 0.  0.
         24    2    5    5    0    0 -0.40441113689E+02  0.32707038005E+02  0.10362356169E+02  0.10520741233E+03  0.90862462940E+02 0.  0.
          5    1    5    5  501    0 -0.11051938690E+02  0.16183210673E+03  0.30151779879E+02  0.16505452416E+03  0.47000000000E+01 0. -1.
        -13    1    6    6    0    0 -0.44717513341E+02  0.28804164101E+02 -0.32249372600E+02  0.62204163061E+02  0.00000000000E+00 0.  1.
         14    1    6    6    0    0  0.42763996520E+01  0.39028739032E+01  0.42611728769E+02  0.43003249265E+02  0.00000000000E+00 0. -1.
         -5    1    3    3    0  503  0.95020030046E+02 -0.14832249388E+03 -0.92459508144E+03  0.94123669867E+03  0.47000000000E+01 0.  1.
         11    1    4    4    0    0 -0.13742962504E+02 -0.34331323437E+02 -0.69442859367E+02  0.78675405969E+02  0.00000000000E+00 0. -1.
        -12    1    4    4    0    0 -0.29784015163E+02 -0.11885327414E+02 -0.43400249317E+03  0.43518560712E+03  0.00000000000E+00 0.  1.
</event>
<event>
12    1  0.1030140E-001  0.1791464E+03  0.7818608E-02  0.1168718E+00
         21   -1    0    0  501  502  0.00000000000E+00  0.00000000000E+00  0.39405725844E+03  0.39405725844E+03  0.00000000000E+00 0. -1.
         21   -1    0    0  502  503 -0.00000000000E+00 -0.00000000000E+00 -0.14072837942E+03  0.14072837942E+03  0.00000000000E+00 0. -1.
         -6    2    1    2    0  503  0.46600074002E+02 -0.11454350229E+02 -0.47050087839E+02  0.18522188660E+03  0.17259973196E+03 0.  0.
        -24    2    3    3    0    0  0.77210659376E+02  0.37474892195E+02 -0.15059970120E+02  0.11906649126E+03  0.81142918202E+02 0.  0.
          6    2    1    2  501    0 -0.46600074002E+02  0.11454350229E+02  0.30037896686E+03  0.34956375125E+03  0.17223392064E+03 0.  0.
         24    2    5    5    0    0 -0.10483230780E+01 -0.48034618001E+02  0.23074449207E+03  0.24716770918E+03  0.74434080441E+02 0.  0.
          5    1    5    5  501    0 -0.45551750924E+02  0.59488968230E+02  0.69634474793E+02  0.10239604208E+03  0.47000000000E+01 0. -1.
        -13    1    6    6    0    0 -0.13426498136E+02 -0.74791287326E+00  0.24120629256E+01  0.13661927880E+02  0.00000000000E+00 0.  1.
         14    1    6    6    0    0  0.12378175058E+02 -0.47286705128E+02  0.22833242914E+03  0.23350578130E+03  0.00000000000E+00 0. -1.
         -5    1    3    3    0  503 -0.30610585374E+02 -0.48929242424E+02 -0.31990117719E+02  0.66155395342E+02  0.47000000000E+01 0.  1.
         11    1    4    4    0    0  0.33538825063E+02  0.16452316746E+00 -0.43535116791E+02  0.54956221199E+02  0.00000000000E+00 0. -1.
        -12    1    4    4    0    0  0.43671834314E+02  0.37310369027E+02  0.28475146671E+02  0.64110270060E+02  0.00000000000E+00 0.  1.
</event>
<event>
12    1  0.1030140E-001  0.2692214E+03  0.7818608E-02  0.1101861E+00
         21   -1    0    0  501  502  0.00000000000E+00  0.00000000000E+00  0.10708566865E+03  0.10708566865E+03  0.00000000000E+00 0.  1.
         21   -1    0    0  502  503 -0.00000000000E+00 -0.00000000000E+00 -0.92660515655E+03  0.92660515655E+03  0.00000000000E+00 0. -1.
         -6    2    1    2    0  503  0.16948896470E+03 -0.11643506742E+03 -0.67883801713E+03  0.72992867591E+03  0.17231130065E+03 0.  0.
        -24    2    3    3    0    0  0.65691212216E+02 -0.12284053619E+02 -0.16130305083E+03  0.19188970107E+03  0.79603704910E+02 0.  0.
          6    2    1    2  501    0 -0.16948896470E+03  0.11643506742E+03 -0.14068147076E+03  0.30376214929E+03  0.17377149665E+03 0.  0.
         24    2    5    5    0    0 -0.16260503384E+02  0.39982124422E+02 -0.83521725007E+02  0.12317050944E+03  0.79574629149E+02 0.  0.
          5    1    5    5  501    0 -0.15322846132E+03  0.76452942994E+02 -0.57159745752E+02  0.18059163985E+03  0.47000000000E+01 0. -1.
        -13    1    6    6    0    0 -0.14941774851E+02 -0.25279807618E+01  0.11527217348E+02  0.19040064659E+02  0.00000000000E+00 0.  1.
         14    1    6    6    0    0 -0.13187285329E+01  0.42510105183E+02 -0.95048942355E+02  0.10413044478E+03  0.00000000000E+00 0. -1.
         -5    1    3    3    0  503  0.10379775248E+03 -0.10415101380E+03 -0.51753496631E+03  0.53803897484E+03  0.47000000000E+01 0.  1.
         11    1    4    4    0    0  0.21578665186E+02  0.24211732484E+02 -0.11112240134E+03  0.11575851961E+03  0.00000000000E+00 0. -1.
        -12    1    4    4    0    0  0.44112547030E+02 -0.36495786103E+02 -0.50180649485E+02  0.76131181467E+02  0.00000000000E+00 0.  1.
</event>
<event>
12    1  0.1030140E-001  0.2053862E+03  0.7818608E-02  0.1145397E+00
         21   -1    0    0  503  502  0.00000000000E+00  0.00000000000E+00  0.31710109026E+02  0.31710109026E+02  0.00000000000E+00 0.  1.
         21   -1    0    0  501  503 -0.00000000000E+00 -0.00000000000E+00 -0.13314008656E+04  0.13314008656E+04  0.00000000000E+00 0. -1.
          6    2    1    2  501    0 -0.88604032014E+02  0.65674688306E+02 -0.69284405030E+03  0.72264539145E+03  0.17326178047E+03 0.  0.
         24    2    3    3    0    0 -0.33435589682E+02 -0.29618252752E+02 -0.25630702767E+03  0.27241104827E+03  0.80742227093E+02 0.  0.
         -6    2    1    2    0  502  0.88604032014E+02 -0.65674688306E+02 -0.60684670631E+03  0.64046558322E+03  0.17253810927E+03 0.  0.
        -24    2    5    5    0    0  0.10154028177E+03  0.82482283885E+01 -0.38209096813E+03  0.40346521188E+03  0.80076258492E+02 0.  0.
          5    1    3    3  501    0 -0.55168442332E+02  0.95292941058E+02 -0.43653702264E+03  0.45023434318E+03  0.47000000000E+01 0. -1.
        -13    1    4    4    0    0  0.14210768753E+02 -0.14508676907E+02 -0.18030543693E+03  0.18144557928E+03  0.00000000000E+00 0.  1.
         14    1    4    4    0    0 -0.47646358435E+02 -0.15109575845E+02 -0.76001590741E+02  0.90965468995E+02  0.00000000000E+00 0. -1.
         -5    1    5    5    0  502 -0.12936249757E+02 -0.73922916694E+02 -0.22475573818E+03  0.23700037134E+03  0.47000000000E+01 0.  1.
         13    1    6    6    0    0  0.83146509138E+01 -0.11365986647E+02 -0.17439654063E+03  0.17496420336E+03  0.00000000000E+00 0. -1.
        -14    1    6    6    0    0  0.93225630857E+02  0.19614215035E+02 -0.20769442750E+03  0.22850100852E+03  0.00000000000E+00 0.  1.
</event>
<event>
12    1  0.1030140E-001  0.3139044E+03  0.7818608E-02  0.1078658E+00
         21   -1    0    0  501  502  0.00000000000E+00  0.00000000000E+00  0.21768960712E+03  0.21768960712E+03  0.00000000000E+00 0. -1.
         21   -1    0    0  502  503 -0.00000000000E+00 -0.00000000000E+00 -0.52818757378E+03  0.52818757378E+03  0.00000000000E+00 0.  1.
         -6    2    1    2    0  503 -0.14834224218E+03 -0.21348444462E+03 -0.29849088254E+03  0.43316598027E+03  0.17594013354E+03 0.  0.
        -24    2    3    3    0    0 -0.12495450914E+03 -0.78060570435E+02 -0.21609877599E+03  0.27286263976E+03  0.77770541848E+02 0.  0.
          6    2    1    2  501    0  0.14834224218E+03  0.21348444462E+03 -0.12007084127E+02  0.31271120064E+03  0.17338712762E+03 0.  0.
         24    2    5    5    0    0  0.10765620326E+03  0.22056848403E+03  0.21241065233E+02  0.25948463948E+03  0.81490987393E+02 0.  0.
          5    1    5    5  501    0  0.40686038918E+02 -0.70840394031E+01 -0.33248149359E+02  0.53226561160E+02  0.47000000000E+01 0. -1.
        -13    1    6    6    0    0  0.33634517175E+02  0.15066805513E+03  0.30122454240E+02  0.15728797103E+03  0.00000000000E+00 0.  1.
         14    1    6    6    0    0  0.74021686082E+02  0.69900428902E+02 -0.88813890078E+01  0.10219666845E+03  0.00000000000E+00 0. -1.
         -5    1    3    3    0  503 -0.23387733032E+02 -0.13542387419E+03 -0.82392106550E+02  0.16030334051E+03  0.47000000000E+01 0.  1.
         13    1    4    4    0    0 -0.73043958490E+02 -0.66882543948E+02 -0.81816567025E+02  0.12846262179E+03  0.00000000000E+00 0. -1.
        -14    1    4    4    0    0 -0.51910550653E+02 -0.11178026487E+02 -0.13428220896E+03  0.14440001797E+03  0.00000000000E+00 0.  1.
</event>
<event>
12    1  0.1030140E-001  0.2017558E+03  0.7818608E-02  0.1148405E+00
         21   -1    0    0  501  502  0.00000000000E+00  0.00000000000E+00  0.36256462763E+03  0.36256462763E+03  0.00000000000E+00 0. -1.
         21   -1    0    0  502  503 -0.00000000000E+00 -0.00000000000E+00 -0.61224007270E+03  0.61224007270E+03  0.00000000000E+00 0.  1.
         -6    2    1    2    0  503  0.61443943080E+02  0.84428847268E+02 -0.56541483102E+03  0.60010913627E+03  0.17185300668E+03 0.  0.
        -24    2    3    3    0    0 -0.23678433338E+02  0.67141232096E+02 -0.38763173072E+03  0.40218591540E+03  0.80165694881E+02 0.  0.
          6    2    1    2  501    0 -0.61443943080E+02 -0.84428847268E+02  0.31573938595E+03  0.37469556406E+03  0.17263202917E+03 0.  0.
         24    2    5    5    0    0 -0.33208937385E+02 -0.23782956005E+02  0.29147033250E+03  0.30337784797E+03  0.73584654584E+02 0.  0.
          5    1    5    5  501    0 -0.28235005695E+02 -0.60645891262E+02  0.24269053452E+02  0.71317716095E+02  0.47000000000E+01 0. -1.
        -13    1    6    6    0    0  0.18062661799E+02 -0.13396337339E+02  0.34822455366E+02  0.41452683907E+02  0.00000000000E+00 0.  1.
         14    1    6    6    0    0 -0.51271599183E+02 -0.10386618667E+02  0.25664787713E+03  0.26192516406E+03  0.00000000000E+00 0. -1.
         -5    1    3    3    0  503  0.85122376418E+02  0.17287615171E+02 -0.17778310031E+03  0.19792322087E+03  0.47000000000E+01 0.  1.
         11    1    4    4    0    0 -0.33265116856E+01 -0.16427947946E+02 -0.11755069723E+03  0.11873967144E+03  0.00000000000E+00 0. -1.
        -12    1    4    4    0    0 -0.20351921653E+02  0.83569180043E+02 -0.27008103348E+03  0.28344624396E+03  0.00000000000E+00 0.  1.
</event>
<event>
12    1  0.1030140E-001  0.1744819E+03  0.7818608E-02  0.1173337E+00
         21   -1    0    0  503  502  0.00000000000E+00  0.00000000000E+00  0.11410056192E+03  0.11410056192E+03  0.00000000000E+00 0.  1.
         21   -1    0    0  501  503 -0.00000000000E+00 -0.00000000000E+00 -0.26660602144E+03  0.26660602144E+03  0.00000000000E+00 0.  1.
          6    2    1    2  501    0  0.13681328780E+02  0.28496267466E+02 -0.69798911643E+02  0.18761513959E+03  0.17125517954E+03 0.  0.
         24    2    3    3    0    0  0.55979629353E+02  0.51455089902E+02 -0.91969193032E+01  0.11008485367E+03  0.79074310009E+02 0.  0.
         -6    2    1    2    0  502 -0.13681328780E+02 -0.28496267466E+02 -0.82706547872E+02  0.19309144377E+03  0.17159462865E+03 0.  0.
        -24    2    5    5    0    0  0.49973188979E+01  0.33404338703E+02 -0.93386399670E+02  0.12738964656E+03  0.79788967696E+02 0.  0.
          5    1    3    3  501    0 -0.42298300573E+02 -0.22958822437E+02 -0.60601992340E+02  0.77530285919E+02  0.47000000000E+01 0. -1.
        -13    1    4    4    0    0  0.34285203883E+02  0.52897288142E+02 -0.38297935282E+02  0.73758593702E+02  0.00000000000E+00 0.  1.
         14    1    4    4    0    0  0.21694425470E+02 -0.14421982391E+01  0.29101015979E+02  0.36326259967E+02  0.00000000000E+00 0. -1.
         -5    1    5    5    0  502 -0.18678647678E+02 -0.61900606169E+02  0.10679851798E+02  0.65701797217E+02  0.47000000000E+01 0.  1.
         13    1    6    6    0    0  0.36680322301E+02  0.35929186446E+02 -0.39314002820E+02  0.64667946469E+02  0.00000000000E+00 0. -1.
        -14    1    6    6    0    0 -0.31683003403E+02 -0.25248477423E+01 -0.54072396849E+02  0.62721700087E+02  0.00000000000E+00 0.  1.
</event>
<event>
12    1  0.1030140E-001  0.1964938E+03  0.7818608E-02  0.1153207E+00
         21   -1    0    0  501  502  0.00000000000E+00  0.00000000000E+00  0.32581988582E+03  0.32581988582E+03  0.00000000000E+00 0. -1.
         21   -1    0    0  502  503 -0.00000000000E+00 -0.00000000000E+00 -0.15673940732E+03  0.15673940732E+03  0.00000000000E+00 0. -1.
         -6    2    1    2    0  503  0.93489374882E+02 -0.15455685501E+02  0.20539541147E+03  0.28273788352E+03  0.16962987441E+03 0.  0.
        -24    2    3    3    0    0  0.34071284540E+02 -0.14390109000E+02  0.20515135853E+03  0.22312417305E+03  0.79557457386E+02 0.  0.
          6    2    1    2  501    0 -0.93489374882E+02  0.15455685501E+02 -0.36314932969E+02  0.19982140963E+03  0.17213564407E+03 0.  0.
         24    2    5    5    0    0  0.76671553894E+01 -0.14708106103E+01  0.21371547712E+02  0.82054818691E+02  0.78837184521E+02 0.  0.
          5    1    5    5  501    0 -0.10115653027E+03  0.16926496111E+02 -0.57686480682E+02  0.11776659094E+03  0.47000000000E+01 0. -1.
        -13    1    6    6    0    0 -0.27502139955E+02 -0.17932605602E+02  0.27393677313E+02  0.42759321820E+02  0.00000000000E+00 0.  1.
         14    1    6    6    0    0  0.35169295345E+02  0.16461794992E+02 -0.60221296007E+01  0.39295496871E+02  0.00000000000E+00 0. -1.
         -5    1    3    3    0  503  0.59418090343E+02 -0.10655765012E+01  0.24405293346E+00  0.59613710462E+02  0.47000000000E+01 0.  1.
         13    1    4    4    0    0 -0.22619628917E+00 -0.30178262863E+02  0.16604495335E+03  0.16876523708E+03  0.00000000000E+00 0. -1.
        -14    1    4    4    0    0  0.34297480829E+02  0.15788153864E+02  0.39106405182E+02  0.54358935971E+02  0.00000000000E+00 0.  1.
</event>
<event>
12    1  0.1030140E-001  0.2222132E+03  0.7818608E-02  0.1132260E+00
         21   -1    0    0  503  502  0.00000000000E+00  0.00000000000E+00  0.56996900297E+02  0.56996900297E+02  0.00000000000E+00 0.  1.
         21   -1    0    0  501  503 -0.00000000000E+00 -0.00000000000E+00 -0.86716184765E+03  0.86716184765E+03  0.00000000000E+00 0. -1.
          6    2    1    2  501    0  0.25237184310E+02  0.13757342348E+03 -0.38824864524E+03  0.44734293454E+03  0.17267115634E+03 0.  0.
         24    2    3    3    0    0  0.47502264020E+02  0.14077263306E+03 -0.21849906860E+03  0.27604501428E+03  0.79909997016E+02 0.  0.
         -6    2    1    2    0  502 -0.25237184310E+02 -0.13757342348E+03 -0.42191630211E+03  0.47681581341E+03  0.17255895110E+03 0.  0.
        -24    2    5    5    0    0 -0.46616420733E+02 -0.11839937724E+03 -0.42360733483E+03  0.44766679300E+03  0.69071558700E+02 0.  0.
          5    1    3    3  501    0 -0.22265079710E+02 -0.31992095849E+01 -0.16974957664E+03  0.17129792026E+03  0.47000000000E+01 0. -1.
        -13    1    4    4    0    0  0.69612690281E+02  0.10350667881E+03 -0.17219751277E+03  0.21263006046E+03  0.00000000000E+00 0.  1.
         14    1    4    4    0    0 -0.22110426261E+02  0.37265954252E+02 -0.46301555825E+02  0.63414953817E+02  0.00000000000E+00 0. -1.
         -5    1    5    5    0  502  0.21379236423E+02 -0.19174046240E+02  0.16910327122E+01  0.29149020410E+02  0.47000000000E+01 0.  1.
         13    1    6    6    0    0 -0.53736839705E+02 -0.67048672396E+02 -0.32614890585E+03  0.33727775082E+03  0.00000000000E+00 0. -1.
        -14    1    6    6    0    0  0.71204189719E+01 -0.51350704841E+02 -0.97458428977E+02  0.11038904218E+03  0.00000000000E+00 0.  1.
</event>
<event>
12    1  0.1030140E-001  0.1753990E+03  0.7818608E-02  0.1172748E+00
         21   -1    0    0  501  502  0.00000000000E+00  0.00000000000E+00  0.43831561915E+03  0.43831561915E+03  0.00000000000E+00 0. -1.
         21   -1    0    0  502  503 -0.00000000000E+00 -0.00000000000E+00 -0.10740217362E+03  0.10740217362E+03  0.00000000000E+00 0. -1.
         -6    2    1    2    0  503  0.38574965940E+02 -0.11862756534E+01  0.29171608548E+01  0.17376839067E+03  0.16940338993E+03 0.  0.
        -24    2    3    3    0    0 -0.21156984661E+02  0.26508658904E+02 -0.38525414152E+02  0.95829360999E+02  0.80924235536E+02 0.  0.
          6    2    1    2  501    0 -0.38574965940E+02  0.11862756534E+01  0.32799628468E+03  0.37194940210E+03  0.17110043749E+03 0.  0.
         24    2    5    5    0    0  0.19930145993E+02 -0.51468286038E+01  0.70582319453E+02  0.10785283676E+03  0.78909251759E+02 0.  0.
          5    1    5    5  501    0 -0.58505111932E+02  0.63331042573E+01  0.25741396522E+03  0.26409656534E+03  0.47000000000E+01 0. -1.
        -11    1    6    6    0    0  0.31378530534E+02  0.26783912859E+02  0.17401958448E+02  0.44775197647E+02  0.00000000000E+00 0.  1.
         12    1    6    6    0    0 -0.11448384542E+02 -0.31930741463E+02  0.53180361005E+02  0.63077639109E+02  0.00000000000E+00 0. -1.
         -5    1    3    3    0  503  0.59731950601E+02 -0.27694934557E+02  0.41442575007E+02  0.77939029670E+02  0.47000000000E+01 0.  1.
         13    1    4    4    0    0 -0.10757926576E+02 -0.28084490786E+02 -0.23757036011E+02  0.38325818543E+02  0.00000000000E+00 0. -1.
        -14    1    4    4    0    0 -0.10399058085E+02  0.54593149690E+02 -0.14768378141E+02  0.57503542456E+02  0.00000000000E+00 0.  1.
</event>
<event>
12    1  0.1030140E-001  0.2337443E+03  0.7818608E-02  0.1124525E+00
         21   -1    0    0  501  502  0.00000000000E+00  0.00000000000E+00  0.39653163407E+02  0.39653163407E+02  0.00000000000E+00 0.  1.
         21   -1    0    0  502  503 -0.00000000000E+00 -0.00000000000E+00 -0.20075033708E+04  0.20075033708E+04  0.00000000000E+00 0.  1.
         -6    2    1    2    0  503  0.14688015845E+03  0.45476224557E+02 -0.15606414400E+04  0.15776297758E+04  0.17225602246E+03 0.  0.
        -24    2    3    3    0    0  0.10584368525E+03  0.91371568438E+02 -0.93111961392E+03  0.94508713356E+03  0.81573925863E+02 0.  0.
          6    2    1    2  501    0 -0.14688015845E+03 -0.45476224557E+02 -0.40720876739E+03  0.46952675842E+03  0.17605263043E+03 0.  0.
         24    2    5    5    0    0 -0.54431366428E+02  0.37202388631E+02 -0.23160807883E+03  0.25449135657E+03  0.82321060591E+02 0.  0.
          5    1    5    5  501    0 -0.92448792017E+02 -0.82678613187E+02 -0.17560068856E+03  0.21503540185E+03  0.47000000000E+01 0. -1.
        -13    1    6    6    0    0 -0.13186511105E+02  0.40536771300E+02 -0.39965955229E+02  0.58432794559E+02  0.00000000000E+00 0.  1.
         14    1    6    6    0    0 -0.41244855323E+02 -0.33343826692E+01 -0.19164212360E+03  0.19605856201E+03  0.00000000000E+00 0. -1.
         -5    1    3    3    0  503  0.41036473199E+02 -0.45895343882E+02 -0.62952182607E+03  0.63254264222E+03  0.47000000000E+01 0.  1.
         13    1    4    4    0    0 -0.76706178807E+01  0.38402083000E+01 -0.11414711128E+02  0.14278697721E+02  0.00000000000E+00 0. -1.
        -14    1    4    4    0    0  0.11351430313E+03  0.87531360138E+02 -0.91970490279E+03  0.93080843584E+03  0.00000000000E+00 0.  1.
</event>
<event>
12    1  0.1030140E-001  0.1791295E+03  0.7818608E-02  0.1168698E+00
         21   -1    0    0  503  502  0.00000000000E+00  0.00000000000E+00  0.31774651939E+02  0.31774651939E+02  0.00000000000E+00 0. -1.
         21   -1    0    0  501  503 -0.00000000000E+00 -0.00000000000E+00 -0.10105661079E+04  0.10105661079E+04  0.00000000000E+00 0. -1.
          6    2    1    2  501    0  0.12537910754E+02  0.47223320427E+02 -0.51156156990E+03  0.54194976738E+03  0.17212515613E+03 0.  0.
         24    2    3    3    0    0  0.59978509311E+02  0.68804933135E+02 -0.41692879337E+03  0.43381175930E+03  0.77662625278E+02 0.  0.
         -6    2    1    2    0  502 -0.12537910754E+02 -0.47223320427E+02 -0.46722988607E+03  0.50039099246E+03  0.17233727891E+03 0.  0.
        -24    2    5    5    0    0 -0.38480764721E+02 -0.76147262322E+02 -0.43323544775E+03  0.44855145231E+03  0.78906763760E+02 0.  0.
          5    1    3    3  501    0 -0.47440598557E+02 -0.21581612708E+02 -0.94632776526E+02  0.10813800808E+03  0.47000000000E+01 0. -1.
        -11    1    4    4    0    0  0.16144626156E+02 -0.17011320291E+02 -0.77823342174E+02  0.81280419283E+02  0.00000000000E+00 0.  1.
         12    1    4    4    0    0  0.43833883155E+02  0.85816253426E+02 -0.33910545120E+03  0.35253134002E+03  0.00000000000E+00 0. -1.
         -5    1    5    5    0  502  0.25942853967E+02  0.28923941895E+02 -0.33994438317E+02  0.51839540152E+02  0.47000000000E+01 0.  1.
         11    1    6    6    0    0  0.12072512141E+02 -0.45084435750E+02 -0.10373026235E+03  0.11374673280E+03  0.00000000000E+00 0. -1.
        -12    1    6    6    0    0 -0.50553276862E+02 -0.31062826572E+02 -0.32950518540E+03  0.33480471950E+03  0.00000000000E+00 0.  1.
</event>
<event>
12    1  0.1030140E-001  0.2663090E+03  0.7818608E-02  0.1103484E+00
         21   -1    0    0  503  502  0.00000000000E+00  0.00000000000E+00  0.31100548796E+03  0.31100548796E+03  0.00000000000E+00 0. -1.
         21   -1    0    0  501  503 -0.00000000000E+00 -0.00000000000E+00 -0.27626594985E+03  0.27626594985E+03  0.00000000000E+00 0.  1.
          6    2    1    2  501    0  0.18303745449E+03 -0.88774424538E+02  0.14061688084E+03  0.30115374866E+03  0.17186292491E+03 0.  0.
         24    2    3    3    0    0  0.28281099451E+02 -0.43855902057E+02  0.93151898768E+02  0.13309953834E+03  0.79467289684E+02 0.  0.
         -6    2    1    2    0  502 -0.18303745449E+03  0.88774424538E+02 -0.10587734273E+03  0.28611768916E+03  0.17108393305E+03 0.  0.
        -24    2    5    5    0    0 -0.20464681793E+03  0.58512154478E+02 -0.82389320436E+02  0.24188481938E+03  0.80101644262E+02 0.  0.
          5    1    3    3  501    0  0.15475635503E+03 -0.44918522482E+02  0.47464982068E+02  0.16805421033E+03  0.47000000000E+01 0. -1.
        -13    1    4    4    0    0 -0.15590908818E+02 -0.36253434146E+02  0.13249543785E+02  0.41628575950E+02  0.00000000000E+00 0.  1.
         14    1    4    4    0    0  0.43872008269E+02 -0.76024679106E+01  0.79902354983E+02  0.91470962385E+02  0.00000000000E+00 0. -1.
         -5    1    5    5    0  502  0.21609363443E+02  0.30262270061E+02 -0.23488022292E+02  0.44232869778E+02  0.47000000000E+01 0.  1.
         11    1    6    6    0    0 -0.16648186959E+02  0.23730909802E+02  0.84756322222E+01  0.30201896474E+02  0.00000000000E+00 0. -1.
        -12    1    6    6    0    0 -0.18799863097E+03  0.34781244676E+02 -0.90864952658E+02  0.21168292290E+03  0.00000000000E+00 0.  1.
</event>
<event>
12    1  0.1030140E-001  0.2914401E+03  0.7818608E-02  0.1090574E+00
         21   -1    0    0  501  502  0.00000000000E+00  0.00000000000E+00  0.56520186454E+03  0.56520186454E+03  0.00000000000E+00 0. -1.
         21   -1    0    0  502  503 -0.00000000000E+00 -0.00000000000E+00 -0.11733681599E+04  0.11733681599E+04  0.00000000000E+00 0. -1.
         -6    2    1    2    0  503  0.63426656076E+02 -0.21971403916E+03 -0.11168024620E+04  0.11523549526E+04  0.16845473537E+03 0.  0.
        -24    2    3    3    0    0  0.91888148097E+02 -0.14649521507E+03 -0.59865805419E+03  0.62826834706E+03  0.80158407335E+02 0.  0.
          6    2    1    2  501    0 -0.63426656076E+02  0.21971403916E+03  0.50863616671E+03  0.58621507180E+03  0.18066588119E+03 0.  0.
         24    2    5    5    0    0  0.12570665327E+02  0.17571927838E+03  0.27240495856E+03  0.33414681609E+03  0.80089617517E+02 0.  0.
          5    1    5    5  501    0 -0.75997321402E+02  0.43994760771E+02  0.23623120814E+03  0.25206825571E+03  0.47000000000E+01 0. -1.
        -13    1    6    6    0    0  0.43789439208E+02  0.64585496923E+02  0.10605045424E+03  0.13166434690E+03  0.00000000000E+00 0.  1.
         14    1    6    6    0    0 -0.31218773881E+02  0.11113378146E+03  0.16635450432E+03  0.20248246920E+03  0.00000000000E+00 0. -1.
         -5    1    3    3    0  503 -0.28461492021E+02 -0.73218824087E+02 -0.51814440784E+03  0.52408660554E+03  0.47000000000E+01 0.  1.
         13    1    4    4    0    0  0.69913391792E+02 -0.10130004391E+03 -0.52407291438E+03  0.53833261171E+03  0.00000000000E+00 0. -1.
        -14    1    4    4    0    0  0.21974756306E+02 -0.45195171162E+02 -0.74585139811E+02  0.89935735343E+02  0.00000000000E+00 0.  1.
</event>
<event>
12    1  0.1030140E-001  0.2268522E+03  0.7818608E-02  0.1129498E+00
         21   -1    0    0  503  502  0.00000000000E+00  0.00000000000E+00  0.11936634641E+03  0.11936634641E+03  0.00000000000E+00 0. -1.
         21   -1    0    0  501  503 -0.00000000000E+00 -0.00000000000E+00 -0.43065907533E+03  0.43065907533E+03  0.00000000000E+00 0.  1.
          6    2    1    2  501    0  0.13999272807E+03  0.28491286124E+02 -0.18709568485E+03  0.29140057133E+03  0.17175500105E+03 0.  0.
         24    2    3    3    0    0  0.13262645489E+02  0.11193404490E+02 -0.12515974527E+03  0.14921097554E+03  0.79358448292E+02 0.  0.
         -6    2    1    2    0  502 -0.13999272807E+03 -0.28491286124E+02 -0.12419704406E+03  0.25862485041E+03  0.17621631649E+03 0.  0.
        -24    2    5    5    0    0  0.60325637420E-01 -0.15154238806E+02 -0.67692891410E+02  0.10694247190E+03  0.81392322456E+02 0.  0.
          5    1    3    3  501    0  0.12673008258E+03  0.17297881634E+02 -0.61935939578E+02  0.14218959579E+03  0.47000000000E+01 0. -1.
        -13    1    4    4    0    0  0.28807041099E+02  0.66531352862E+01 -0.12918443380E+03  0.13252444213E+03  0.00000000000E+00 0.  1.
         14    1    4    4    0    0 -0.15544395611E+02  0.45402692041E+01  0.40246885294E+01  0.16686533406E+02  0.00000000000E+00 0. -1.
         -5    1    5    5    0  502 -0.14005305371E+03 -0.13337047318E+02 -0.56504152654E+02  0.15168237851E+03  0.47000000000E+01 0.  1.
         11    1    6    6    0    0  0.60707302561E+00 -0.34821960683E+02  0.16459961571E+01  0.34866126639E+02  0.00000000000E+00 0. -1.
        -12    1    6    6    0    0 -0.54674738819E+00  0.19667721877E+02 -0.69338887567E+02  0.72076345257E+02  0.00000000000E+00 0.  1.
</event>
<event>
12    1  0.1030140E-001  0.2019609E+03  0.7818608E-02  0.1148095E+00
         21   -1    0    0  501  502  0.00000000000E+00  0.00000000000E+00  0.33750756155E+03  0.33750756155E+03  0.00000000000E+00 0.  1.
         21   -1    0    0  502  503 -0.00000000000E+00 -0.00000000000E+00 -0.17314006935E+03  0.17314006935E+03  0.00000000000E+00 0.  1.
         -6    2    1    2    0  503  0.11374749667E+02 -0.10526958539E+03 -0.58130473240E+02  0.21015880581E+03  0.17197819979E+03 0.  0.
        -24    2    3    3    0    0 -0.50340550726E+01 -0.74794313479E+02 -0.10493413035E+03  0.15175792063E+03  0.79998523264E+02 0.  0.
          6    2    1    2  501    0 -0.11374749667E+02  0.10526958539E+03  0.22249796544E+03  0.30048882509E+03  0.17197999546E+03 0.  0.
         24    2    5    5    0    0  0.45870870940E+02  0.72053058901E+02  0.19799282186E+03  0.22975700217E+03  0.79317983090E+02 0.  0.
          5    1    5    5  501    0 -0.57245620607E+02  0.33216526492E+02  0.24505143584E+02  0.70731822915E+02  0.47000000000E+01 0. -1.
        -13    1    6    6    0    0  0.16359168282E+02  0.83328849877E+02  0.14731302813E+03  0.17003660743E+03  0.00000000000E+00 0.  1.
         14    1    6    6    0    0  0.29511702659E+02 -0.11275790976E+02  0.50679793729E+02  0.59720394744E+02  0.00000000000E+00 0. -1.
         -5    1    3    3    0  503  0.16408804739E+02 -0.30475271914E+02  0.46803657106E+02  0.58400885180E+02  0.47000000000E+01 0.  1.
         13    1    4    4    0    0 -0.29930616228E+02 -0.18576835874E+02 -0.66837340942E+01  0.35855444779E+02  0.00000000000E+00 0. -1.
        -14    1    4    4    0    0  0.24896561155E+02 -0.56217477605E+02 -0.98250396253E+02  0.11590247586E+03  0.00000000000E+00 0.  1.
</event>
<event>
12    1  0.1030140E-001  0.3753142E+03  0.7818608E-02  0.1052836E+00
         21   -1    0    0  503  502  0.00000000000E+00  0.00000000000E+00  0.17608115608E+03  0.17608115608E+03  0.00000000000E+00 0. -1.
         21   -1    0    0  501  503 -0.00000000000E+00 -0.00000000000E+00 -0.79727230377E+03  0.79727230377E+03  0.00000000000E+00 0.  1.
          6    2    1    2  501    0  0.25277280004E+03  0.21790689631E+03 -0.32717848822E+03  0.49790211667E+03  0.17170687446E+03 0.  0.
         24    2    3    3    0    0  0.25913969267E+03  0.16503289278E+03 -0.25514230310E+03  0.40819426006E+03  0.84473209379E+02 0.  0.
         -6    2    1    2    0  502 -0.25277280004E+03 -0.21790689631E+03 -0.29401265947E+03  0.47545134318E+03  0.16802687850E+03 0.  0.
        -24    2    5    5    0    0 -0.88257420986E+02 -0.12655768560E+03 -0.82480678083E+02  0.19229439484E+03  0.79798821329E+02 0.  0.
          5    1    3    3  501    0 -0.63668926295E+01  0.52874003528E+02 -0.72036185121E+02  0.89707856610E+02  0.47000000000E+01 0. -1.
        -13    1    4    4    0    0  0.20991254047E+02 -0.82105012569E+01 -0.29855379480E+02  0.37408404955E+02  0.00000000000E+00 0.  1.
         14    1    4    4    0    0  0.23814843862E+03  0.17324339404E+03 -0.22528692362E+03  0.37078585511E+03  0.00000000000E+00 0. -1.
         -5    1    5    5    0  502 -0.16451537905E+03 -0.91349210710E+02 -0.21153198139E+03  0.28315694834E+03  0.47000000000E+01 0.  1.
         13    1    6    6    0    0 -0.66627011433E+02 -0.13489577388E+03 -0.69556384173E+02  0.16575318713E+03  0.00000000000E+00 0. -1.
        -14    1    6    6    0    0 -0.21630409553E+02  0.83380882826E+01 -0.12924293909E+02  0.26541207710E+02  0.00000000000E+00 0.  1.
</event>
<event>
12    1  0.1030140E-001  0.1778917E+03  0.7818608E-02  0.1170013E+00
         21   -1    0    0  501  502  0.00000000000E+00  0.00000000000E+00  0.49299281164E+02  0.49299281164E+02  0.00000000000E+00 0.  1.
         21   -1    0    0  502  503 -0.00000000000E+00 -0.00000000000E+00 -0.88873096751E+03  0.88873096751E+03  0.00000000000E+00 0.  1.
         -6    2    1    2    0  503  0.28592644940E+02 -0.29888319995E+02 -0.66747826848E+03  0.69061679455E+03  0.17237594669E+03 0.  0.
        -24    2    3    3    0    0  0.35176056514E+02  0.43525244284E+02 -0.50501790023E+03  0.51215572321E+03  0.64254209413E+02 0.  0.
          6    2    1    2  501    0 -0.28592644940E+02  0.29888319995E+02 -0.17195341786E+03  0.24741345413E+03  0.17301615055E+03 0.  0.
         24    2    5    5    0    0 -0.81184289846E+02  0.47494635303E+02 -0.11734475133E+03  0.16943871519E+03  0.78058044033E+02 0.  0.
          5    1    5    5  501    0  0.52591644906E+02 -0.17606315308E+02 -0.54608666533E+02  0.77974738943E+02  0.47000000000E+01 0. -1.
        -13    1    6    6    0    0  0.97135406397E+00 -0.75520289240E+01  0.71507625694E+01  0.10445576811E+02  0.00000000000E+00 0.  1.
         14    1    6    6    0    0 -0.82155643910E+02  0.55046664227E+02 -0.12449551390E+03  0.15899313837E+03  0.00000000000E+00 0. -1.
         -5    1    3    3    0  503 -0.65834115738E+01 -0.73413564279E+02 -0.16246036826E+03  0.17846107134E+03  0.47000000000E+01 0.  1.
         11    1    4    4    0    0  0.26558224079E+02 -0.10800015007E+02 -0.22186612198E+03  0.22371087518E+03  0.00000000000E+00 0. -1.
        -12    1    4    4    0    0  0.86178324345E+01  0.54325259292E+02 -0.28315177824E+03  0.28844484803E+03  0.00000000000E+00 0.  1.
</event>
<event>
12    1  0.1030140E-001  0.2091878E+03  0.7818608E-02  0.1142248E+00
         21   -1    0    0  501  502  0.00000000000E+00  0.00000000000E+00  0.67342668504E+02  0.67342668504E+02  0.00000000000E+00 0.  1.
         21   -1    0    0  502  503 -0.00000000000E+00 -0.00000000000E+00 -0.68554295614E+03  0.68554295614E+03  0.00000000000E+00 0. -1.
         -6    2    1    2    0  503  0.39117040784E+02 -0.11242978727E+03 -0.22258621758E+03  0.30545728317E+03  0.17201432394E+03 0.  0.
        -24    2    3    3    0    0  0.29117496030E+02 -0.75759559081E+02 -0.24291305375E+03  0.26209869926E+03  0.55692343284E+02 0.  0.
          6    2    1    2  501    0 -0.39117040784E+02  0.11242978727E+03 -0.39561407005E+03  0.44742834147E+03  0.17178774224E+03 0.  0.
         24    2    5    5    0    0 -0.18724369599E+02 -0.12101631941E+02 -0.17716847320E+03  0.19511008174E+03  0.78627123747E+02 0.  0.
          5    1    5    5  501    0 -0.20392671185E+02  0.12453141921E+03 -0.21844559684E+03  0.25231825972E+03  0.47000000000E+01 0. -1.
        -11    1    6    6    0    0  0.13782382472E+02 -0.13670113479E+02 -0.52099606732E+01  0.20098998964E+02  0.00000000000E+00 0.  1.
         12    1    6    6    0    0 -0.32506752072E+02  0.15684815378E+01 -0.17195851253E+03  0.17501108278E+03  0.00000000000E+00 0. -1.
         -5    1    3    3    0  503  0.99995447536E+01 -0.36670228186E+02  0.20326836171E+02  0.43358583917E+02  0.47000000000E+01 0.  1.
         11    1    4    4    0    0  0.33957642234E+02 -0.74474727740E+02 -0.16659517694E+03  0.18561670053E+03  0.00000000000E+00 0. -1.
        -12    1    4    4    0    0 -0.48401462033E+01 -0.12848313407E+01 -0.76317876817E+02  0.76481998723E+02  0.00000000000E+00 0.  1.
</event>
<event>
12    1  0.1030140E-001  0.1807473E+03  0.7818608E-02  0.1167424E+00
         21   -1    0    0  503  502  0.00000000000E+00  0.00000000000E+00  0.21922681512E+03  0.21922681512E+03  0.00000000000E+00 0. -1.
         21   -1    0    0  501  503 -0.00000000000E+00 -0.00000000000E+00 -0.16598482764E+03  0.16598482764E+03  0.00000000000E+00 0. -1.
          6    2    1    2  501    0  0.22396861787E+02  0.42193289483E+02 -0.37125689762E+02  0.18313267105E+03  0.17285070226E+03 0.  0.
         24    2    3    3    0    0  0.19843925614E+02  0.40469399505E+02 -0.90969619012E+02  0.12899628775E+03  0.79580255032E+02 0.  0.
         -6    2    1    2    0  502 -0.22396861787E+02 -0.42193289483E+02  0.90367677236E+02  0.20207897171E+03  0.17432068329E+03 0.  0.
        -24    2    5    5    0    0 -0.50761224425E+02  0.33606223406E+02  0.40932221981E+02  0.10712604938E+03  0.78067044922E+02 0.  0.
          5    1    3    3  501    0  0.25529361729E+01  0.17238899785E+01  0.53843929250E+02  0.54136383301E+02  0.47000000000E+01 0. -1.
        -11    1    4    4    0    0 -0.22589914791E+02 -0.52288383527E+01 -0.66511457893E+01  0.24122245772E+02  0.00000000000E+00 0.  1.
         12    1    4    4    0    0  0.42433840406E+02  0.45698237857E+02 -0.84318473223E+02  0.10487404198E+03  0.00000000000E+00 0. -1.
         -5    1    5    5    0  502  0.28364362638E+02 -0.75799512889E+02  0.49435455255E+02  0.94952922326E+02  0.47000000000E+01 0.  1.
         11    1    6    6    0    0 -0.20908482433E+02 -0.25301478484E+02  0.10975744777E+02  0.34609195664E+02  0.00000000000E+00 0. -1.
        -12    1    6    6    0    0 -0.29852741992E+02  0.58907701890E+02  0.29956477204E+02  0.72516853716E+02  0.00000000000E+00 0.  1.
</event>
<event>
12    1  0.1030140E-001  0.2229065E+03  0.7818608E-02  0.1131860E+00
         21   -1    0    0  503  502  0.00000000000E+00  0.00000000000E+00  0.33814314107E+03  0.33814314107E+03  0.00000000000E+00 0. -1.
         21   -1    0    0  501  503 -0.00000000000E+00 -0.00000000000E+00 -0.19794278879E+03  0.19794278879E+03  0.00000000000E+00 0.  1.
          6    2    1    2  501    0  0.34576882424E+02 -0.13737744623E+03 -0.66477647389E+02  0.23260822650E+03  0.17210225420E+03 0.  0.
         24    2    3    3    0    0 -0.56403251852E+01 -0.50764613346E+02 -0.93500822220E+02  0.13325255939E+03  0.80031128898E+02 0.  0.
         -6    2    1    2    0  502 -0.34576882424E+02  0.13737744623E+03  0.20667799966E+03  0.30347770336E+03  0.17121564579E+03 0.  0.
        -24    2    5    5    0    0 -0.87931688995E+02  0.97489381814E+02  0.16026789375E+03  0.22215254737E+03  0.80186002762E+02 0.  0.
          5    1    3    3  501    0  0.40217207609E+02 -0.86612832883E+02  0.27023174830E+02  0.99355667104E+02  0.47000000000E+01 0. -1.
        -11    1    4    4    0    0  0.28509978445E+02 -0.49884351596E+02 -0.74758348074E+02  0.94287210224E+02  0.00000000000E+00 0.  1.
         12    1    4    4    0    0 -0.34150303630E+02 -0.88026175026E+00 -0.18742474146E+02  0.38965349170E+02  0.00000000000E+00 0. -1.
         -5    1    5    5    0  502  0.53354806571E+02  0.39888064415E+02  0.46410105910E+02  0.81325155995E+02  0.47000000000E+01 0.  1.
         11    1    6    6    0    0 -0.62392005790E+02  0.38726242621E+02  0.34780416471E+02  0.81253686833E+02  0.00000000000E+00 0. -1.
        -12    1    6    6    0    0 -0.25539683205E+02  0.58763139194E+02  0.12548747728E+03  0.14089886054E+03  0.00000000000E+00 0.  1.
</event>
<event>
12    1  0.1030140E-001  0.1815451E+03  0.7818608E-02  0.1166364E+00
         21   -1    0    0  503  502  0.00000000000E+00  0.00000000000E+00  0.37401471166E+03  0.37401471166E+03  0.00000000000E+00 0.  1.
         21   -1    0    0  501  503 -0.00000000000E+00 -0.00000000000E+00 -0.14786162062E+03  0.14786162062E+03  0.00000000000E+00 0.  1.
          6    2    1    2  501    0  0.57695610639E+02  0.10021561411E+02 -0.52881610726E+02  0.18909013485E+03  0.17184120333E+03 0.  0.
         24    2    3    3    0    0  0.97860416670E+02  0.36972400230E+02 -0.25661802150E+02  0.13338944063E+03  0.78680335877E+02 0.  0.
         -6    2    1    2    0  502 -0.57695610639E+02 -0.10021561411E+02  0.27903470176E+03  0.33278619743E+03  0.17163063022E+03 0.  0.
        -24    2    5    5    0    0 -0.15431335917E+02 -0.47959270295E+02  0.25387675004E+03  0.27049212702E+03  0.78577152116E+02 0.  0.
          5    1    3    3  501    0 -0.40164806031E+02 -0.26950838819E+02 -0.27219808577E+02  0.55700694210E+02  0.47000000000E+01 0. -1.
        -13    1    4    4    0    0  0.55462898159E+02 -0.55537430719E+01 -0.43545088371E+02  0.70732961592E+02  0.00000000000E+00 0.  1.
         14    1    4    4    0    0  0.42397518511E+02  0.42526143302E+02  0.17883286221E+02  0.62656479043E+02  0.00000000000E+00 0. -1.
         -5    1    5    5    0  502 -0.42264274722E+02  0.37937708884E+02  0.25157951729E+02  0.62294070411E+02  0.47000000000E+01 0.  1.
         11    1    6    6    0    0 -0.17705966562E+02 -0.13317773274E+02  0.22279868763E+03  0.22389756486E+03  0.00000000000E+00 0. -1.
        -12    1    6    6    0    0  0.22746306448E+01 -0.34641497021E+02  0.31078062401E+02  0.46594562162E+02  0.00000000000E+00 0.  1.
</event>
<event>
12    1  0.1030140E-001  0.2107343E+03  0.7818608E-02  0.1141068E+00
         21   -1    0    0  501  502  0.00000000000E+00  0.00000000000E+00  0.20222247684E+04  0.20222247684E+04  0.00000000000E+00 0. -1.
         21   -1    0    0  502  503 -0.00000000000E+00 -0.00000000000E+00 -0.23440894201E+02  0.23440894201E+02  0.00000000000E+00 0. -1.
         -6    2    1    2    0  503 -0.78034466548E+02 -0.93469639391E+02  0.73954519637E+03  0.76898376198E+03  0.17199702689E+03 0.  0.
        -24    2    3    3    0    0 -0.59266256581E+02 -0.61467245461E+02  0.24609908816E+03  0.27412261920E+03  0.85368247802E+02 0.  0.
          6    2    1    2  501    0  0.78034466548E+02  0.93469639391E+02  0.12592386778E+04  0.12766819006E+04  0.17148958035E+03 0.  0.
         24    2    5    5    0    0 -0.10748410861E+01  0.13218503379E+02  0.27647063873E+03  0.28746320081E+03  0.77609236708E+02 0.  0.
          5    1    5    5  501    0  0.79109307635E+02  0.80251136012E+02  0.98276803907E+03  0.98921869979E+03  0.47000000000E+01 0. -1.
        -13    1    6    6    0    0  0.44201491494E+01 -0.17770957140E+02  0.13841571393E+02  0.22955037242E+02  0.00000000000E+00 0.  1.
         14    1    6    6    0    0 -0.54949902356E+01  0.30989460519E+02  0.26262906734E+03  0.26450816357E+03  0.00000000000E+00 0. -1.
         -5    1    3    3    0  503 -0.18768209967E+02 -0.32002393930E+02  0.49344610821E+03  0.49486114278E+03  0.47000000000E+01 0.  1.
         13    1    4    4    0    0  0.18433731230E+02  0.42219431664E+01  0.42400789282E+02  0.46426869191E+02  0.00000000000E+00 0. -1.
        -14    1    4    4    0    0 -0.77699987811E+02 -0.65689188628E+02  0.20369829887E+03  0.22769575001E+03  0.00000000000E+00 0.  1.
</event>
<event>
12    1  0.1030140E-001  0.2372413E+03  0.7818608E-02  0.1121930E+00
         21   -1    0    0  503  502  0.00000000000E+00  0.00000000000E+00  0.70809065331E+03  0.70809065331E+03  0.00000000000E+00 0.  1.
         21   -1    0    0  501  503 -0.00000000000E+00 -0.00000000000E+00 -0.10101806941E+03  0.10101806941E+03  0.00000000000E+00 0.  1.
          6    2    1    2  501    0  0.87025578879E+02  0.13634779438E+03  0.11348878114E+03  0.26146979046E+03  0.17123835863E+03 0.  0.
         24    2    3    3    0    0 -0.20873125571E+02  0.63470782376E+02  0.34898917933E+02  0.10931314125E+03  0.79165654103E+02 0.  0.
         -6    2    1    2    0  502 -0.87025578879E+02 -0.13634779438E+03  0.49358380276E+03  0.54763893226E+03  0.17354900567E+03 0.  0.
        -24    2    5    5    0    0  0.37117482714E+01 -0.10214130714E+03  0.19823662047E+03  0.23674442540E+03  0.79394845962E+02 0.  0.
          5    1    3    3  501    0  0.10789870445E+03  0.72877012008E+02  0.78589863204E+02  0.15215664921E+03  0.47000000000E+01 0. -1.
        -11    1    4    4    0    0 -0.34742886777E+02  0.76497374280E+02  0.32708073022E+02  0.90159494753E+02  0.00000000000E+00 0.  1.
         12    1    4    4    0    0  0.13869761206E+02 -0.13026591904E+02  0.21908449114E+01  0.19153646493E+02  0.00000000000E+00 0. -1.
         -5    1    5    5    0  502 -0.90737327150E+02 -0.34206487246E+02  0.29534718229E+03  0.31089450686E+03  0.47000000000E+01 0.  1.
         13    1    6    6    0    0 -0.29658934703E+01 -0.23464975407E+02  0.31473438594E+00  0.23653766141E+02  0.00000000000E+00 0. -1.
        -14    1    6    6    0    0  0.66776417417E+01 -0.78676331731E+02  0.19792188608E+03  0.21309065926E+03  0.00000000000E+00 0.  1.
</event>
<event>
12    1  0.1030140E-001  0.1808826E+03  0.7818608E-02  0.1168183E+00
         21   -1    0    0  501  502  0.00000000000E+00  0.00000000000E+00  0.71009758294E+03  0.71009758294E+03  0.00000000000E+00 0. -1.
         21   -1    0    0  502  503 -0.00000000000E+00 -0.00000000000E+00 -0.57855884378E+02  0.57855884378E+02  0.00000000000E+00 0. -1.
         -6    2    1    2    0  503  0.11450446069E+02 -0.53093060362E+02  0.14015817753E+03  0.22486228143E+03  0.16723858738E+03 0.  0.
        -24    2    3    3    0    0 -0.10515525581E+02 -0.21957003072E+02 -0.98912113531E+01  0.69978883100E+02  0.64857703904E+02 0.  0.
          6    2    1    2  501    0 -0.11450446069E+02  0.53093060362E+02  0.51208352103E+03  0.54309118588E+03  0.17253555548E+03 0.  0.
         24    2    5    5    0    0 -0.54043161227E+02  0.24430466102E+02  0.45622146146E+03  0.46707577038E+03  0.80648883657E+02 0.  0.
          5    1    5    5  501    0  0.42592715158E+02  0.28662594260E+02  0.55862059566E+02  0.76015415498E+02  0.47000000000E+01 0. -1.
        -11    1    6    6    0    0 -0.53266255926E+02  0.26744087946E+02  0.15837527820E+03  0.16921958812E+03  0.00000000000E+00 0.  1.
         12    1    6    6    0    0 -0.77690530149E+00 -0.23136218442E+01  0.29784618326E+03  0.29785618226E+03  0.00000000000E+00 0. -1.
         -5    1    3    3    0  503  0.21965971650E+02 -0.31136057290E+02  0.15004938889E+03  0.15488339833E+03  0.47000000000E+01 0.  1.
         11    1    4    4    0    0 -0.28617863319E+02  0.11744836875E+02 -0.26873226793E+01  0.31050684330E+02  0.00000000000E+00 0. -1.
        -12    1    4    4    0    0  0.18102337739E+02 -0.33701839947E+02 -0.72038886738E+01  0.38928198769E+02  0.00000000000E+00 0.  1.
</event>
<event>
12    1  0.1030140E-001  0.2273095E+03  0.7818608E-02  0.1128724E+00
         21   -1    0    0  501  502  0.00000000000E+00  0.00000000000E+00  0.26289849474E+03  0.26289849474E+03  0.00000000000E+00 0.  1.
         21   -1    0    0  502  503 -0.00000000000E+00 -0.00000000000E+00 -0.25606464185E+03  0.25606464185E+03  0.00000000000E+00 0. -1.
         -6    2    1    2    0  503 -0.14051394463E+03 -0.55734238336E+02 -0.12257332998E+03  0.25825146285E+03  0.16976195947E+03 0.  0.
        -24    2    3    3    0    0 -0.84248482351E+02 -0.99371537842E+02 -0.74168782611E+02  0.17202440005E+03  0.84373435310E+02 0.  0.
          6    2    1    2  501    0  0.14051394463E+03  0.55734238336E+02  0.12940718288E+03  0.26071167373E+03  0.16844549231E+03 0.  0.
         24    2    5    5    0    0  0.16511905688E+03  0.38287617565E+02  0.13273569225E+03  0.23000393692E+03  0.80949381690E+02 0.  0.
          5    1    5    5  501    0 -0.24605112252E+02  0.17446620771E+02 -0.33285093780E+01  0.30707736809E+02  0.47000000000E+01 0. -1.
        -11    1    6    6    0    0  0.73897064883E+02  0.53829040549E+02  0.89228510201E+02  0.12775002480E+03  0.00000000000E+00 0.  1.
         12    1    6    6    0    0  0.91221992002E+02 -0.15541422984E+02  0.43507182053E+02  0.10225391212E+03  0.00000000000E+00 0. -1.
         -5    1    3    3    0  503 -0.56265462283E+02  0.43637299506E+02 -0.48404547371E+02  0.86227062806E+02  0.47000000000E+01 0.  1.
         13    1    4    4    0    0 -0.52588103718E+02 -0.21346946011E+02 -0.66568086166E+02  0.87478630834E+02  0.00000000000E+00 0. -1.
        -14    1    4    4    0    0 -0.31660378633E+02 -0.78024591830E+02 -0.76006964449E+01  0.84545769213E+02  0.00000000000E+00 0.  1.
</event>
<event>
12    1  0.1030140E-001  0.2352088E+03  0.7818608E-02  0.1123102E+00
         21   -1    0    0  501  502  0.00000000000E+00  0.00000000000E+00  0.24690679976E+03  0.24690679976E+03  0.00000000000E+00 0.  1.
         21   -1    0    0  502  503 -0.00000000000E+00 -0.00000000000E+00 -0.26590326152E+03  0.26590326152E+03  0.00000000000E+00 0.  1.
         -6    2    1    2    0  503 -0.16074285109E+03 -0.81113655679E+01 -0.11172291883E+03  0.26039427749E+03  0.17152000096E+03 0.  0.
        -24    2    3    3    0    0 -0.85980902303E+02 -0.70644878178E+02 -0.71267290582E+02  0.15476030075E+03  0.80550044112E+02 0.  0.
          6    2    1    2  501    0  0.16074285109E+03  0.81113655679E+01  0.92726457060E+02  0.25241578379E+03  0.17091364381E+03 0.  0.
         24    2    5    5    0    0  0.60484184379E+02 -0.54200781367E+02  0.25933034344E+02  0.11670264801E+03  0.79692688006E+02 0.  0.
          5    1    5    5  501    0  0.10025866671E+03  0.62312146935E+02  0.66793422716E+02  0.13571313578E+03  0.47000000000E+01 0. -1.
        -11    1    6    6    0    0  0.27898591853E+02  0.17398027254E+02  0.18400655534E+02  0.37677671157E+02  0.00000000000E+00 0.  1.
         12    1    6    6    0    0  0.32585592526E+02 -0.71598808621E+02  0.75323788097E+01  0.79024976854E+02  0.00000000000E+00 0. -1.
         -5    1    3    3    0  503 -0.74761948784E+02  0.62533512610E+02 -0.40455628247E+02  0.10563397674E+03  0.47000000000E+01 0.  1.
         13    1    4    4    0    0 -0.27278838583E+01  0.11132419298E+02  0.77415710657E+01  0.13831270091E+02  0.00000000000E+00 0. -1.
        -14    1    4    4    0    0 -0.83253018445E+02 -0.81777297475E+02 -0.79008861648E+02  0.14092903066E+03  0.00000000000E+00 0.  1.
</event>
<event>
12    1  0.1030140E-001  0.2273218E+03  0.7818608E-02  0.1128828E+00
         21   -1    0    0  501  502  0.00000000000E+00  0.00000000000E+00  0.41473262019E+03  0.41473262019E+03  0.00000000000E+00 0.  1.
         21   -1    0    0  502  503 -0.00000000000E+00 -0.00000000000E+00 -0.12499796020E+03  0.12499796020E+03  0.00000000000E+00 0. -1.
         -6    2    1    2    0  503 -0.13867874753E+03 -0.44854724294E+02  0.11705271185E+03  0.25425856749E+03  0.17234366969E+03 0.  0.
        -24    2    3    3    0    0 -0.30153915550E+02 -0.54546738725E+02  0.10470210373E+02  0.10176760408E+03  0.79764745382E+02 0.  0.
          6    2    1    2  501    0  0.13867874753E+03  0.44854724294E+02  0.17268194813E+03  0.28547201290E+03  0.17444619121E+03 0.  0.
         24    2    5    5    0    0  0.13130964560E+03  0.19478639778E+02  0.55281212153E+02  0.16504248106E+03  0.81002269749E+02 0.  0.
          5    1    5    5  501    0  0.73691019343E+01  0.25376084516E+02  0.11740073598E+03  0.12042953183E+03  0.47000000000E+01 0. -1.
        -13    1    6    6    0    0  0.35782111384E+02 -0.30824481169E+02  0.12011415372E+02  0.48731737437E+02  0.00000000000E+00 0.  1.
         14    1    6    6    0    0  0.95527534213E+02  0.50303120946E+02  0.43269796781E+02  0.11631074363E+03  0.00000000000E+00 0. -1.
         -5    1    3    3    0  503 -0.10852483198E+03  0.96920144307E+01  0.10658250148E+03  0.15249096341E+03  0.47000000000E+01 0.  1.
         13    1    4    4    0    0  0.20397162835E+02  0.26665706784E+01 -0.97858165998E+01  0.22779751040E+02  0.00000000000E+00 0. -1.
        -14    1    4    4    0    0 -0.50551078385E+02 -0.57213309403E+02  0.20256026973E+02  0.78987853037E+02  0.00000000000E+00 0.  1.
</event>
<event>
12    1  0.1030140E-001  0.2147388E+03  0.7818608E-02  0.1137986E+00
         21   -1    0    0  501  502  0.00000000000E+00  0.00000000000E+00  0.22802795039E+03  0.22802795039E+03  0.00000000000E+00 0.  1.
         21   -1    0    0  502  503 -0.00000000000E+00 -0.00000000000E+00 -0.22345740751E+03  0.22345740751E+03  0.00000000000E+00 0.  1.
         -6    2    1    2    0  503  0.52969414293E+02  0.11712885062E+03 -0.68238682082E+02  0.22532039936E+03  0.17201115702E+03 0.  0.
        -24    2    3    3    0    0  0.49496538776E+02 -0.14414797235E+01 -0.44069363418E+02  0.10417078084E+03  0.80358307444E+02 0.  0.
          6    2    1    2  501    0 -0.52969414293E+02 -0.11712885062E+03  0.72809224967E+02  0.22616495854E+03  0.17124391590E+03 0.  0.
         24    2    5    5    0    0  0.22161033934E+02 -0.31494659411E+02  0.67405116411E+02  0.11201990458E+03  0.80758803274E+02 0.  0.
          5    1    5    5  501    0 -0.75130448227E+02 -0.85634191210E+02  0.54041085557E+01  0.11414505396E+03  0.47000000000E+01 0. -1.
        -13    1    6    6    0    0 -0.12071271281E+01 -0.35247659746E+02  0.78366665878E+02  0.85937122330E+02  0.00000000000E+00 0.  1.
         14    1    6    6    0    0  0.23368161062E+02  0.37530003345E+01 -0.10961549467E+02  0.26082782245E+02  0.00000000000E+00 0. -1.
         -5    1    3    3    0  503  0.34728755178E+01  0.11857033035E+03 -0.24169318664E+02  0.12114961852E+03  0.47000000000E+01 0.  1.
         13    1    4    4    0    0 -0.21510516988E+02  0.70644134850E+01 -0.13791356832E+02  0.26510560202E+02  0.00000000000E+00 0. -1.
        -14    1    4    4    0    0  0.71007055763E+02 -0.85058932086E+01 -0.30278006586E+02  0.77660220643E+02  0.00000000000E+00 0.  1.
</event>
<event>
12    1  0.1030140E-001  0.1765564E+03  0.7818608E-02  0.1171410E+00
         21   -1    0    0  503  502  0.00000000000E+00  0.00000000000E+00  0.42090972261E+03  0.42090972261E+03  0.00000000000E+00 0.  1.
         21   -1    0    0  501  503 -0.00000000000E+00 -0.00000000000E+00 -0.12921120626E+03  0.12921120626E+03  0.00000000000E+00 0.  1.
          6    2    1    2  501    0 -0.31355505913E+02 -0.11272811556E+02 -0.34708722246E+02  0.17902277353E+03  0.17243611573E+03 0.  0.
         24    2    3    3    0    0  0.15493468883E+02  0.36883999308E+02  0.26590078416E+02  0.87953910381E+02  0.73677548128E+02 0.  0.
         -6    2    1    2    0  502  0.31355505913E+02  0.11272811556E+02  0.32640723860E+03  0.37109815534E+03  0.17338371163E+03 0.  0.
        -24    2    5    5    0    0 -0.22967457526E+02 -0.29814055261E+02  0.97894081968E+02  0.13260398826E+03  0.81142987504E+02 0.  0.
          5    1    3    3  501    0 -0.46848974796E+02 -0.48156810864E+02 -0.61298800662E+02  0.91068863146E+02  0.47000000000E+01 0. -1.
        -11    1    4    4    0    0 -0.81702789993E+01  0.72007012244E+01 -0.23031740065E+02  0.25476746406E+02  0.00000000000E+00 0.  1.
         12    1    4    4    0    0  0.23663747883E+02  0.29683298083E+02  0.49621818480E+02  0.62477163974E+02  0.00000000000E+00 0. -1.
         -5    1    5    5    0  502  0.54322963439E+02  0.41086866817E+02  0.22851315663E+03  0.23849416709E+03  0.47000000000E+01 0.  1.
         11    1    6    6    0    0 -0.76624402322E+01 -0.37108321555E+02  0.10689252761E+03  0.11340966881E+03  0.00000000000E+00 0. -1.
        -12    1    6    6    0    0 -0.15305017294E+02  0.72942662937E+01 -0.89984456468E+01  0.19194319451E+02  0.00000000000E+00 0.  1.
</event>
<event>
12    1  0.1030140E-001  0.1862379E+03  0.7818608E-02  0.1163576E+00
         21   -1    0    0  503  502  0.00000000000E+00  0.00000000000E+00  0.12750997635E+03  0.12750997635E+03  0.00000000000E+00 0.  1.
         21   -1    0    0  501  503 -0.00000000000E+00 -0.00000000000E+00 -0.28988239959E+03  0.28988239959E+03  0.00000000000E+00 0. -1.
          6    2    1    2  501    0 -0.55440718967E+01  0.57149571471E+02 -0.14761586807E+03  0.23764469495E+03  0.17716587221E+03 0.  0.
         24    2    3    3    0    0  0.43996168853E+02  0.10035445443E+02 -0.20813372281E+02  0.93509552581E+02  0.79211532742E+02 0.  0.
         -6    2    1    2    0  502  0.55440718967E+01 -0.57149571471E+02 -0.14756555166E+02  0.17974768100E+03  0.16968990145E+03 0.  0.
        -24    2    5    5    0    0  0.45414274897E+02 -0.21085201740E+01 -0.45893952137E+02  0.10484255497E+03  0.82576051426E+02 0.  0.
          5    1    3    3  501    0 -0.49540240750E+02  0.47114126027E+02 -0.12680249579E+03  0.14413514236E+03  0.47000000000E+01 0. -1.
        -13    1    4    4    0    0  0.50615258050E+01  0.28172440602E+02  0.19474366951E+02  0.34620173615E+02  0.00000000000E+00 0.  1.
         14    1    4    4    0    0  0.38934643048E+02 -0.18136995159E+02 -0.40287739232E+02  0.58889378967E+02  0.00000000000E+00 0. -1.
         -5    1    5    5    0  502 -0.39870203000E+02 -0.55041051297E+02  0.31137396971E+02  0.74905126028E+02  0.47000000000E+01 0.  1.
         11    1    6    6    0    0  0.64434872429E+02  0.15513210902E+02 -0.22706014672E+02  0.70057659108E+02  0.00000000000E+00 0. -1.
        -12    1    6    6    0    0 -0.19020597532E+02 -0.17621731076E+02 -0.23187937464E+02  0.34784895866E+02  0.00000000000E+00 0.  1.
</event>
<event>
12    1  0.1030140E-001  0.2338949E+03  0.7818608E-02  0.1124286E+00
         21   -1    0    0  501  502  0.00000000000E+00  0.00000000000E+00  0.10378501759E+03  0.10378501759E+03  0.00000000000E+00 0.  1.
         21   -1    0    0  502  503 -0.00000000000E+00 -0.00000000000E+00 -0.58945475107E+03  0.58945475107E+03  0.00000000000E+00 0. -1.
         -6    2    1    2    0  503 -0.15157874516E+03  0.32019046228E+02 -0.35872769943E+03  0.42711744056E+03  0.17245988051E+03 0.  0.
        -24    2    3    3    0    0 -0.26394487331E+02  0.47637066861E+02 -0.21400485129E+03  0.23507105619E+03  0.80587629206E+02 0.  0.
          6    2    1    2  501    0  0.15157874516E+03 -0.32019046228E+02 -0.12694203404E+03  0.26612232810E+03  0.17522978686E+03 0.  0.
         24    2    5    5    0    0  0.52273208726E+02  0.44449114551E+02 -0.45826277036E+02  0.11675424177E+03  0.82603227360E+02 0.  0.
          5    1    5    5  501    0  0.99305536430E+02 -0.76468160779E+02 -0.81115757002E+02  0.14936808633E+03  0.47000000000E+01 0. -1.
        -11    1    6    6    0    0  0.32862296593E+02  0.51214134722E+02 -0.64720162990E+02  0.88834214299E+02  0.00000000000E+00 0.  1.
         12    1    6    6    0    0  0.19410912133E+02 -0.67650201706E+01  0.18893885954E+02  0.27920027475E+02  0.00000000000E+00 0. -1.
         -5    1    3    3    0  503 -0.12518425783E+03 -0.15618020633E+02 -0.14472284814E+03  0.19204638437E+03  0.47000000000E+01 0.  1.
         13    1    4    4    0    0 -0.51932233807E+02  0.35863380085E+02 -0.10509384188E+03  0.12258815008E+03  0.00000000000E+00 0. -1.
        -14    1    4    4    0    0  0.25537746475E+02  0.11773686776E+02 -0.10891100941E+03  0.11248290611E+03  0.00000000000E+00 0.  1.
</event>
<event>
12    1  0.1030140E-001  0.2273916E+03  0.7818608E-02  0.1128609E+00
         21   -1    0    0  503  502  0.00000000000E+00  0.00000000000E+00  0.19073798638E+03  0.19073798638E+03  0.00000000000E+00 0. -1.
         21   -1    0    0  501  503 -0.00000000000E+00 -0.00000000000E+00 -0.46036083602E+03  0.46036083602E+03  0.00000000000E+00 0.  1.
          6    2    1    2  501    0 -0.14735967459E+03 -0.18669556532E+02 -0.34410911132E+03  0.41245367977E+03  0.17217296951E+03 0.  0.
         24    2    3    3    0    0 -0.69175391342E+02 -0.76687040235E+02 -0.19070293007E+03  0.23070011858E+03  0.78668928218E+02 0.  0.
         -6    2    1    2    0  502  0.14735967459E+03  0.18669556532E+02  0.74486261675E+02  0.23864514264E+03  0.17128886388E+03 0.  0.
        -24    2    5    5    0    0  0.15861515898E+03  0.53251700348E+01  0.10258210994E+03  0.20523518500E+03  0.80070380218E+02 0.  0.
          5    1    3    3  501    0 -0.78184283250E+02  0.58017483703E+02 -0.15340618124E+03  0.18175356119E+03  0.47000000000E+01 0. -1.
        -13    1    4    4    0    0 -0.80254653519E+02 -0.72094426676E+02 -0.19023735870E+03  0.21869766440E+03  0.00000000000E+00 0.  1.
         14    1    4    4    0    0  0.11079262178E+02 -0.45926135591E+01 -0.46557137783E+00  0.12002454183E+02  0.00000000000E+00 0. -1.
         -5    1    5    5    0  502 -0.11255484389E+02  0.13344386497E+02 -0.28095848262E+02  0.33409957638E+02  0.47000000000E+01 0.  1.
         13    1    6    6    0    0  0.88020398571E+02 -0.34138326228E+02  0.38129141565E+02  0.10181771613E+03  0.00000000000E+00 0. -1.
        -14    1    6    6    0    0  0.70594760409E+02  0.39463496262E+02  0.64452968372E+02  0.10341746886E+03  0.00000000000E+00 0.  1.
</event>
<event>
12    1  0.1030140E-001  0.1895224E+03  0.7818608E-02  0.1159434E+00
         21   -1    0    0  503  502  0.00000000000E+00  0.00000000000E+00  0.18872559346E+03  0.18872559346E+03  0.00000000000E+00 0. -1.
         21   -1    0    0  501  503 -0.00000000000E+00 -0.00000000000E+00 -0.18941043129E+03  0.18941043129E+03  0.00000000000E+00 0.  1.
          6    2    1    2  501    0  0.46741836188E+02 -0.64117721018E+02  0.16282848785E+02  0.19022063544E+03  0.17211297912E+03 0.  0.
         24    2    3    3    0    0  0.37713835351E+02  0.28634289141E+02 -0.10358483032E+02  0.93183061534E+02  0.79583471241E+02 0.  0.
         -6    2    1    2    0  502 -0.46741836188E+02  0.64117721018E+02 -0.16967686619E+02  0.18791538931E+03  0.16949457145E+03 0.  0.
        -24    2    5    5    0    0 -0.40673473088E+02  0.10839283148E+03 -0.23888579450E+02  0.14245002674E+03  0.79485901646E+02 0.  0.
          5    1    3    3  501    0  0.90280008377E+01 -0.92752010159E+02  0.26641331816E+02  0.97037573901E+02  0.47000000000E+01 0. -1.
        -13    1    4    4    0    0  0.10095407675E+02  0.56830149836E+01 -0.43074057323E+02  0.44604801644E+02  0.00000000000E+00 0.  1.
         14    1    4    4    0    0  0.27618427675E+02  0.22951274157E+02  0.32715574292E+02  0.48578259890E+02  0.00000000000E+00 0. -1.
         -5    1    5    5    0  502 -0.60683631006E+01 -0.44275110457E+02  0.69208928317E+01  0.45465362577E+02  0.47000000000E+01 0.  1.
         11    1    6    6    0    0 -0.32420533928E+02  0.11423626419E+03 -0.38365109847E+02  0.12479141289E+03  0.00000000000E+00 0. -1.
        -12    1    6    6    0    0 -0.82529391595E+01 -0.58434327171E+01  0.14476530397E+02  0.17658613848E+02  0.00000000000E+00 0.  1.
</event>
<event>
12    1  0.1030140E-001  0.1964915E+03  0.7818608E-02  0.1153512E+00
         21   -1    0    0  503  502  0.00000000000E+00  0.00000000000E+00  0.16964315100E+03  0.16964315100E+03  0.00000000000E+00 0.  1.
         21   -1    0    0  501  503 -0.00000000000E+00 -0.00000000000E+00 -0.23527324595E+03  0.23527324595E+03  0.00000000000E+00 0.  1.
          6    2    1    2  501    0 -0.64778083165E+02  0.55107722771E+02  0.12820833195E+02  0.19334259093E+03  0.17315866290E+03 0.  0.
         24    2    3    3    0    0 -0.26119954582E+02  0.25278339646E+02  0.71402637010E+02  0.11693473308E+03  0.85171290623E+02 0.  0.
         -6    2    1    2    0  502  0.64778083165E+02 -0.55107722771E+02 -0.78450928149E+02  0.21157380602E+03  0.17713234064E+03 0.  0.
        -24    2    5    5    0    0  0.66658869985E+01 -0.94822232850E+02 -0.64232358067E+02  0.13961182030E+03  0.79561137823E+02 0.  0.
          5    1    3    3  501    0 -0.38658128583E+02  0.29829383125E+02 -0.58581803815E+02  0.76407857851E+02  0.47000000000E+01 0. -1.
        -11    1    4    4    0    0  0.70955776871E+01  0.49694705891E+02  0.29854794245E+02  0.58405648320E+02  0.00000000000E+00 0.  1.
         12    1    4    4    0    0 -0.33215532270E+02 -0.24416366246E+02  0.41547842765E+02  0.58529084762E+02  0.00000000000E+00 0. -1.
         -5    1    5    5    0  502  0.58112196167E+02  0.39714510079E+02 -0.14218570081E+02  0.71961985724E+02  0.47000000000E+01 0.  1.
         13    1    6    6    0    0 -0.28132742283E+02 -0.19925856777E+02 -0.41506438127E+02  0.53956235624E+02  0.00000000000E+00 0. -1.
        -14    1    6    6    0    0  0.34798629281E+02 -0.74896376073E+02 -0.22725919940E+02  0.85655584674E+02  0.00000000000E+00 0.  1.
</event>
<event>
12    1  0.1030140E-001  0.2051682E+03  0.7818608E-02  0.1145703E+00
         21   -1    0    0  501  502  0.00000000000E+00  0.00000000000E+00  0.52963317131E+02  0.52963317131E+02  0.00000000000E+00 0.  1.
         21   -1    0    0  502  503 -0.00000000000E+00 -0.00000000000E+00 -0.91227920959E+03  0.91227920959E+03  0.00000000000E+00 0.  1.
         -6    2    1    2    0  503  0.86570923049E+02  0.64714736119E+02 -0.60522773137E+03  0.63866206635E+03  0.17293382082E+03 0.  0.
        -24    2    3    3    0    0 -0.97791588556E+01  0.17855689546E+00 -0.31810701844E+03  0.32897084835E+03  0.83271123766E+02 0.  0.
          6    2    1    2  501    0 -0.86570923049E+02 -0.64714736119E+02 -0.25408816108E+03  0.32658046037E+03  0.17438888067E+03 0.  0.
         24    2    5    5    0    0 -0.85477729374E+02 -0.45116870553E+01 -0.23607812530E+03  0.26355623028E+03  0.80013797155E+02 0.  0.
          5    1    5    5  501    0 -0.10931936755E+01 -0.60203049064E+02 -0.18010035782E+02  0.63024230086E+02  0.47000000000E+01 0. -1.
        -11    1    6    6    0    0 -0.28076880967E+02  0.13417236438E+02 -0.15188101352E+02  0.34626751236E+02  0.00000000000E+00 0.  1.
         12    1    6    6    0    0 -0.57400848406E+02 -0.17928923493E+02 -0.22089002395E+03  0.22892947904E+03  0.00000000000E+00 0. -1.
         -5    1    3    3    0  503  0.96350081905E+02  0.64536179224E+02 -0.28712071294E+03  0.30969121801E+03  0.47000000000E+01 0.  1.
         13    1    4    4    0    0  0.18296563102E+02 -0.21081283391E+02 -0.40790882272E+02  0.49427530863E+02  0.00000000000E+00 0. -1.
        -14    1    4    4    0    0 -0.28075721958E+02  0.21259840286E+02 -0.27731613617E+03  0.27954331748E+03  0.00000000000E+00 0.  1.
</event>
<event>
12    1  0.1030140E-001  0.1871988E+03  0.7818608E-02  0.1163509E+00
         21   -1    0    0  501  502  0.00000000000E+00  0.00000000000E+00  0.63282481974E+03  0.63282481974E+03  0.00000000000E+00 0. -1.
         21   -1    0    0  502  503 -0.00000000000E+00 -0.00000000000E+00 -0.64290226964E+02  0.64290226964E+02  0.00000000000E+00 0. -1.
         -6    2    1    2    0  503 -0.56641711690E+02  0.31637958618E+02  0.14051475635E+03  0.23406789141E+03  0.17559651793E+03 0.  0.
        -24    2    3    3    0    0 -0.34335772417E+02 -0.49564943316E+02  0.51552867980E+02  0.11148007068E+03  0.78322915469E+02 0.  0.
          6    2    1    2  501    0  0.56641711690E+02 -0.31637958618E+02  0.42801983642E+03  0.46304715529E+03  0.16432420310E+03 0.  0.
         24    2    5    5    0    0 -0.12059910722E+02 -0.29665984360E+01  0.17040142715E+03  0.19484705348E+03  0.93672224922E+02 0.  0.
          5    1    5    5  501    0  0.68701622412E+02 -0.28671360182E+02  0.25761840927E+03  0.26820010181E+03  0.47000000000E+01 0. -1.
        -13    1    6    6    0    0 -0.72665109762E+01  0.36761840089E+02  0.13905218865E+03  0.14401300718E+03  0.00000000000E+00 0.  1.
         14    1    6    6    0    0 -0.47933997461E+01 -0.39728438525E+02  0.31349238503E+02  0.50834046303E+02  0.00000000000E+00 0. -1.
         -5    1    3    3    0  503 -0.22305939273E+02  0.81202901934E+02  0.88961888372E+02  0.12258782073E+03  0.47000000000E+01 0.  1.
         11    1    4    4    0    0 -0.48049274769E+02 -0.15578699366E+02  0.29356373110E+01  0.50596903523E+02  0.00000000000E+00 0. -1.
        -12    1    4    4    0    0  0.13713502352E+02 -0.33986243950E+02  0.48617230669E+02  0.60883167153E+02  0.00000000000E+00 0.  1.
</event>
<event>
12    1  0.1030140E-001  0.1798653E+03  0.7818608E-02  0.1168098E+00
         21   -1    0    0  503  502  0.00000000000E+00  0.00000000000E+00  0.10568474796E+04  0.10568474796E+04  0.00000000000E+00 0.  1.
         21   -1    0    0  501  503 -0.00000000000E+00 -0.00000000000E+00 -0.32247910303E+02  0.32247910303E+02  0.00000000000E+00 0.  1.
          6    2    1    2  501    0 -0.49335513687E+02  0.38800646775E+01  0.64012537811E+03  0.66491504756E+03  0.17292331524E+03 0.  0.
         24    2    3    3    0    0 -0.25859082296E+02 -0.41712633419E+02  0.20203520149E+03  0.22380856404E+03  0.82845728750E+02 0.  0.
         -6    2    1    2    0  502  0.49335513687E+02 -0.38800646775E+01  0.38447419117E+03  0.42418034233E+03  0.17221936979E+03 0.  0.
        -24    2    5    5    0    0 -0.17966946328E+02  0.29545413680E+02  0.29753149699E+03  0.30916727438E+03  0.76574599034E+02 0.  0.
          5    1    3    3  501    0 -0.23476431392E+02  0.45592698096E+02  0.43809017662E+03  0.44110648352E+03  0.47000000000E+01 0. -1.
        -11    1    4    4    0    0 -0.63198919285E+01  0.25243325009E+02  0.65744264142E+02  0.70706964007E+02  0.00000000000E+00 0.  1.
         12    1    4    4    0    0 -0.19539190367E+02 -0.66955958428E+02  0.13629093735E+03  0.15310160003E+03  0.00000000000E+00 0. -1.
         -5    1    5    5    0  502  0.67302460015E+02 -0.33425478358E+02  0.86942694183E+02  0.11501306795E+03  0.47000000000E+01 0.  1.
         11    1    6    6    0    0 -0.30576917369E+02  0.50140330772E+02  0.18599556200E+03  0.19504704491E+03  0.00000000000E+00 0. -1.
        -12    1    6    6    0    0  0.12609971041E+02 -0.20594917092E+02  0.11153593499E+03  0.11412022947E+03  0.00000000000E+00 0.  1.
</event>
<event>
12    1  0.1030140E-001  0.1858670E+03  0.7818608E-02  0.1162965E+00
         21   -1    0    0  503  502  0.00000000000E+00  0.00000000000E+00  0.65988390580E+03  0.65988390580E+03  0.00000000000E+00 0.  1.
         21   -1    0    0  501  503 -0.00000000000E+00 -0.00000000000E+00 -0.10790592735E+03  0.10790592735E+03  0.00000000000E+00 0.  1.
          6    2    1    2  501    0  0.34417877858E+02 -0.55434120625E+02 -0.26954488600E+01  0.18280336433E+03  0.17074036582E+03 0.  0.
         24    2    3    3    0    0  0.55080168186E+01  0.33204823522E+02  0.12377008333E+02  0.88241683659E+02  0.80625714541E+02 0.  0.
         -6    2    1    2    0  502 -0.34417877858E+02  0.55434120625E+02  0.55467342731E+03  0.58498646882E+03  0.17403742612E+03 0.  0.
        -24    2    5    5    0    0  0.29783963568E+02 -0.74911745606E+00  0.14600123948E+03  0.16747781048E+03  0.76451353226E+02 0.  0.
          5    1    3    3  501    0  0.28909861039E+02 -0.88638944148E+02 -0.15072457193E+02  0.94561680668E+02  0.47000000000E+01 0. -1.
        -13    1    4    4    0    0 -0.15855003368E+02 -0.20800582780E+02 -0.68994720323E+01  0.27048994253E+02  0.00000000000E+00 0.  1.
         14    1    4    4    0    0  0.21363020186E+02  0.54005406303E+02  0.19276480365E+02  0.61192689406E+02  0.00000000000E+00 0. -1.
         -5    1    5    5    0  502 -0.64201841425E+02  0.56183238081E+02  0.40867218783E+03  0.41750865834E+03  0.47000000000E+01 0.  1.
         13    1    6    6    0    0  0.35594906988E+02 -0.26608291147E+02  0.12785113902E+03  0.13535476464E+03  0.00000000000E+00 0. -1.
        -14    1    6    6    0    0 -0.58109434201E+01  0.25859173691E+02  0.18150100460E+02  0.32123045841E+02  0.00000000000E+00 0.  1.
</event>
<event>
12    1  0.1030140E-001  0.1890630E+03  0.7818608E-02  0.1159473E+00
         21   -1    0    0  503  502  0.00000000000E+00  0.00000000000E+00  0.11081677413E+03  0.11081677413E+03  0.00000000000E+00 0.  1.
         21   -1    0    0  501  503 -0.00000000000E+00 -0.00000000000E+00 -0.12580901595E+04  0.12580901595E+04  0.00000000000E+00 0.  1.
          6    2    1    2  501    0 -0.58199473758E+02  0.52932029720E+02 -0.11645296893E+04  0.11797771954E+04  0.17191816345E+03 0.  0.
         24    2    3    3    0    0 -0.34492756148E+02  0.17338135280E+02 -0.10906859326E+04  0.10943141965E+04  0.80233383299E+02 0.  0.
         -6    2    1    2    0  502  0.58199473758E+02 -0.52932029720E+02  0.17256303982E+02  0.18912973821E+03  0.17112363756E+03 0.  0.
        -24    2    5    5    0    0 -0.22959613705E+02  0.49931185736E+01 -0.82404012407E+01  0.86104050827E+02  0.82425288969E+02 0.  0.
          5    1    3    3  501    0 -0.23706717610E+02  0.35593894441E+02 -0.73843756688E+02  0.85462998912E+02  0.47000000000E+01 0. -1.
        -11    1    4    4    0    0 -0.59427802955E+02  0.15267685194E+01 -0.70878395058E+03  0.71127258023E+03  0.00000000000E+00 0.  1.
         12    1    4    4    0    0  0.24935046807E+02  0.15811366760E+02 -0.38190198203E+03  0.38304161623E+03  0.00000000000E+00 0. -1.
         -5    1    5    5    0  502  0.81159087462E+02 -0.57925148294E+02  0.25496705223E+02  0.10302568738E+03  0.47000000000E+01 0.  1.
         13    1    6    6    0    0  0.30694817327E+02 -0.11616400025E+01  0.32522192541E+01  0.30888479217E+02  0.00000000000E+00 0. -1.
        -14    1    6    6    0    0 -0.53654431032E+02  0.61547585760E+01 -0.11492620495E+02  0.55215571611E+02  0.00000000000E+00 0.  1.
</event>
<event>
12    1  0.1030140E-001  0.1850122E+03  0.7818608E-02  0.1163153E+00
         21   -1    0    0  503  502  0.00000000000E+00  0.00000000000E+00  0.16612448047E+03  0.16612448047E+03  0.00000000000E+00 0.  1.
         21   -1    0    0  501  503 -0.00000000000E+00 -0.00000000000E+00 -0.25783325732E+03  0.25783325732E+03  0.00000000000E+00 0.  1.
          6    2    1    2  501    0 -0.41407006146E+02 -0.58606568622E+02 -0.14130545954E+03  0.23241309176E+03  0.16999806553E+03 0.  0.
         24    2    3    3    0    0 -0.70852606922E+02 -0.90992297493E+02 -0.10825806187E+03  0.17736675372E+03  0.80246291219E+02 0.  0.
         -6    2    1    2    0  502  0.41407006146E+02  0.58606568622E+02  0.49596682689E+02  0.19154464603E+03  0.17052932429E+03 0.  0.
        -24    2    5    5    0    0  0.47848472248E+02  0.28624448807E+02  0.96056666824E+02  0.13567837606E+03  0.77928833708E+02 0.  0.
          5    1    3    3  501    0  0.29445600776E+02  0.32385728871E+02 -0.33047397668E+02  0.55046338046E+02  0.47000000000E+01 0. -1.
        -13    1    4    4    0    0 -0.58407241065E+02 -0.72504753251E+02 -0.32841851878E+02  0.98726553103E+02  0.00000000000E+00 0.  1.
         14    1    4    4    0    0 -0.12445365857E+02 -0.18487544242E+02 -0.75416209991E+02  0.78640200616E+02  0.00000000000E+00 0. -1.
         -5    1    5    5    0  502 -0.64414661026E+01  0.29982119815E+02 -0.46459984135E+02  0.55866269966E+02  0.47000000000E+01 0.  1.
         11    1    6    6    0    0  0.67386530369E+01  0.14356351423E+02 -0.11541244204E+02  0.19614142568E+02  0.00000000000E+00 0. -1.
        -12    1    6    6    0    0  0.41109819211E+02  0.14268097384E+02  0.10759791103E+03  0.11606423349E+03  0.00000000000E+00 0.  1.
</event>
<event>
12    1  0.1030140E-001  0.1887414E+03  0.7818608E-02  0.1159629E+00
         21   -1    0    0  501  502  0.00000000000E+00  0.00000000000E+00  0.20542679011E+03  0.20542679011E+03  0.00000000000E+00 0.  1.
         21   -1    0    0  502  503 -0.00000000000E+00 -0.00000000000E+00 -0.17964502586E+03  0.17964502586E+03  0.00000000000E+00 0.  1.
         -6    2    1    2    0  503 -0.50244788422E+02 -0.60104366252E+02  0.49071049042E+02  0.19489902908E+03  0.17158260424E+03 0.  0.
        -24    2    3    3    0    0 -0.74269551819E+02  0.12767034030E+02  0.44225521233E+02  0.11787306349E+03  0.79115098957E+02 0.  0.
          6    2    1    2  501    0  0.50244788422E+02  0.60104366252E+02 -0.23289284787E+02  0.19017278689E+03  0.17171553360E+03 0.  0.
         24    2    5    5    0    0 -0.32965246387E+02  0.31077809942E+02 -0.40285204927E+02  0.10029841810E+03  0.79902047514E+02 0.  0.
          5    1    5    5  501    0  0.83210034809E+02  0.29026556310E+02  0.16995920141E+02  0.89874368791E+02  0.47000000000E+01 0. -1.
        -11    1    6    6    0    0  0.59342053566E+01  0.48169238263E+02 -0.28169852765E+02  0.56116226823E+02  0.00000000000E+00 0.  1.
         12    1    6    6    0    0 -0.38899451743E+02 -0.17091428321E+02 -0.12115352163E+02  0.44182191276E+02  0.00000000000E+00 0. -1.
         -5    1    3    3    0  503  0.24024763397E+02 -0.72871400282E+02  0.48455278091E+01  0.77025965590E+02  0.47000000000E+01 0.  1.
         11    1    4    4    0    0 -0.32094003333E+02  0.26593003070E+02 -0.14616784377E+02  0.44168577606E+02  0.00000000000E+00 0. -1.
        -12    1    4    4    0    0 -0.42175548485E+02 -0.13825969040E+02  0.58842305610E+02  0.73704485884E+02  0.00000000000E+00 0.  1.
</event>
<event>
12    1  0.1030140E-001  0.2158130E+03  0.7818608E-02  0.1137213E+00
         21   -1    0    0  503  502  0.00000000000E+00  0.00000000000E+00  0.46496860961E+03  0.46496860961E+03  0.00000000000E+00 0. -1.
         21   -1    0    0  501  503 -0.00000000000E+00 -0.00000000000E+00 -0.10137478441E+03  0.10137478441E+03  0.00000000000E+00 0. -1.
          6    2    1    2  501    0  0.10552014271E+02 -0.12921391989E+03  0.14567699576E+03  0.25964651280E+03  0.17142620107E+03 0.  0.
         24    2    3    3    0    0 -0.41031635323E+02 -0.60360999449E+02  0.22067765755E+02  0.10897160014E+03  0.77850998715E+02 0.  0.
         -6    2    1    2    0  502 -0.10552014271E+02  0.12921391989E+03  0.21791682944E+03  0.30669688123E+03  0.17253304119E+03 0.  0.
        -24    2    5    5    0    0  0.47829388698E+02  0.12367196668E+03  0.17858303898E+03  0.23592726536E+03  0.78659817979E+02 0.  0.
          5    1    3    3  501    0  0.51583649595E+02 -0.68852920443E+02  0.12360923001E+03  0.15067491265E+03  0.47000000000E+01 0. -1.
        -11    1    4    4    0    0 -0.24805805427E+01 -0.50063961548E+02  0.41045059113E+02  0.64786189912E+02  0.00000000000E+00 0.  1.
         12    1    4    4    0    0 -0.38551054781E+02 -0.10297037901E+02 -0.18977293358E+02  0.44185410233E+02  0.00000000000E+00 0. -1.
         -5    1    5    5    0  502 -0.58381402969E+02  0.55419532155E+01  0.39333790462E+02  0.70769615869E+02  0.47000000000E+01 0.  1.
         13    1    6    6    0    0 -0.99375799395E+01  0.25616881147E+01  0.46590299974E+02  0.47707167100E+02  0.00000000000E+00 0. -1.
        -14    1    6    6    0    0  0.57766968637E+02  0.12111027856E+03  0.13199273900E+03  0.18822009826E+03  0.00000000000E+00 0.  1.
</event>
<event>
12    1  0.1030140E-001  0.2431086E+03  0.7818608E-02  0.1117845E+00
         21   -1    0    0  501  502  0.00000000000E+00  0.00000000000E+00  0.11227554684E+04  0.11227554684E+04  0.00000000000E+00 0.  1.
         21   -1    0    0  502  503 -0.00000000000E+00 -0.00000000000E+00 -0.71862739199E+02  0.71862739199E+02  0.00000000000E+00 0. -1.
         -6    2    1    2    0  503 -0.16591669790E+03  0.40027317760E+02  0.21489638116E+03  0.32399102541E+03  0.17221844589E+03 0.  0.
        -24    2    3    3    0    0 -0.25068146473E+02  0.49542739647E+02  0.58404514712E+02  0.11318150960E+03  0.79473717400E+02 0.  0.
          6    2    1    2  501    0  0.16591669790E+03 -0.40027317760E+02  0.83599634799E+03  0.87062718214E+03  0.17312209453E+03 0.  0.
         24    2    5    5    0    0  0.15023356963E+02 -0.88059559509E+01  0.39048076468E+03  0.39919341293E+03  0.81098133336E+02 0.  0.
          5    1    5    5  501    0  0.15089334094E+03 -0.31221361809E+02  0.44551558331E+03  0.47143376921E+03  0.47000000000E+01 0. -1.
        -11    1    6    6    0    0 -0.69238921178E+01 -0.37913348077E+02  0.28493098378E+03  0.28752569931E+03  0.00000000000E+00 0.  1.
         12    1    6    6    0    0  0.21947249081E+02  0.29107392126E+02  0.10554978090E+03  0.11166771362E+03  0.00000000000E+00 0. -1.
         -5    1    3    3    0  503 -0.14084855143E+03 -0.95154218867E+01  0.15649186645E+03  0.21080951581E+03  0.47000000000E+01 0.  1.
         13    1    4    4    0    0 -0.38948936817E+02  0.28930133557E+02  0.70469770222E+02  0.85556769586E+02  0.00000000000E+00 0. -1.
        -14    1    4    4    0    0  0.13880790344E+02  0.20612606090E+02 -0.12065255510E+02  0.27624740015E+02  0.00000000000E+00 0.  1.
</event>
<event>
12    1  0.1030140E-001  0.1858314E+03  0.7818608E-02  0.1162440E+00
         21   -1    0    0  503  502  0.00000000000E+00  0.00000000000E+00  0.47763346878E+03  0.47763346878E+03  0.00000000000E+00 0.  1.
         21   -1    0    0  501  503 -0.00000000000E+00 -0.00000000000E+00 -0.72027258582E+02  0.72027258582E+02  0.00000000000E+00 0.  1.
          6    2    1    2  501    0  0.45265580803E+02  0.52195215844E+02  0.20322402838E+03  0.27490292863E+03  0.17175069460E+03 0.  0.
         24    2    3    3    0    0  0.24663997061E+02  0.92801659800E+02  0.19068985415E+03  0.22744237588E+03  0.78402506708E+02 0.  0.
         -6    2    1    2    0  502 -0.45265580803E+02 -0.52195215844E+02  0.20238218182E+03  0.27475779873E+03  0.17251083179E+03 0.  0.
        -24    2    5    5    0    0 -0.29082372228E+02  0.10031402000E+02  0.19136441699E+03  0.20935497502E+03  0.79137551605E+02 0.  0.
          5    1    3    3  501    0  0.20601583742E+02 -0.40606443956E+02  0.12534174231E+02  0.47460552747E+02  0.47000000000E+01 0. -1.
        -11    1    4    4    0    0  0.49957401308E+02  0.50466483820E+02  0.84614064591E+02  0.11046333265E+03  0.00000000000E+00 0.  1.
         12    1    4    4    0    0 -0.25293404247E+02  0.42335175981E+02  0.10607578956E+03  0.11697904322E+03  0.00000000000E+00 0. -1.
         -5    1    5    5    0  502 -0.16183208575E+02 -0.62226617844E+02  0.11017764827E+02  0.65402823715E+02  0.47000000000E+01 0.  1.
         11    1    6    6    0    0  0.79102462104E+01  0.25780236282E+02  0.14712255702E+03  0.14957352493E+03  0.00000000000E+00 0. -1.
        -12    1    6    6    0    0 -0.36992618439E+02 -0.15748834283E+02  0.44241859974E+02  0.59781450084E+02  0.00000000000E+00 0.  1.
</event>
<event>
12    1  0.1030140E-001  0.1913820E+03  0.7818608E-02  0.1158719E+00
         21   -1    0    0  503  502  0.00000000000E+00  0.00000000000E+00  0.16797734573E+03  0.16797734573E+03  0.00000000000E+00 0.  1.
         21   -1    0    0  501  503 -0.00000000000E+00 -0.00000000000E+00 -0.22955219221E+03  0.22955219221E+03  0.00000000000E+00 0. -1.
          6    2    1    2  501    0  0.80988112057E+01  0.84484704153E+02 -0.87379860504E+02  0.20441562959E+03  0.16415618667E+03 0.  0.
         24    2    3    3    0    0  0.29432252403E+02  0.86919492889E+01 -0.92122701024E+02  0.12539511365E+03  0.79344407617E+02 0.  0.
         -6    2    1    2    0  502 -0.80988112057E+01 -0.84484704153E+02  0.25805014024E+02  0.19311390835E+03  0.17153374849E+03 0.  0.
        -24    2    5    5    0    0 -0.49968200819E+02 -0.31117995335E+01 -0.80532770082E+01  0.95425274084E+02  0.80837016731E+02 0.  0.
          5    1    3    3  501    0 -0.21333441197E+02  0.75792754864E+02  0.47428405204E+01  0.79020515940E+02  0.47000000000E+01 0. -1.
        -13    1    4    4    0    0 -0.24740137357E+01  0.43575500343E+01 -0.93047673366E+02  0.93182501067E+02  0.00000000000E+00 0.  1.
         14    1    4    4    0    0  0.31906266139E+02  0.43343992547E+01  0.92497234153E+00  0.32212612586E+02  0.00000000000E+00 0. -1.
         -5    1    5    5    0  502  0.41869389614E+02 -0.81372904620E+02  0.33858291032E+02  0.97688634265E+02  0.47000000000E+01 0.  1.
         13    1    6    6    0    0 -0.17603091757E+02 -0.36156196753E+02 -0.23601430861E+02  0.46627963088E+02  0.00000000000E+00 0. -1.
        -14    1    6    6    0    0 -0.32365109062E+02  0.33044397219E+02  0.15548153853E+02  0.48797310996E+02  0.00000000000E+00 0.  1.
</event>
<event>
12    1  0.1030140E-001  0.1936632E+03  0.7818608E-02  0.1157073E+00
         21   -1    0    0  501  502  0.00000000000E+00  0.00000000000E+00  0.79143727070E+02  0.79143727070E+02  0.00000000000E+00 0. -1.
         21   -1    0    0  502  503 -0.00000000000E+00 -0.00000000000E+00 -0.45383568187E+03  0.45383568187E+03  0.00000000000E+00 0. -1.
         -6    2    1    2    0  503  0.76220203230E+01  0.78836785963E+02 -0.17934622817E+03  0.25790597751E+03  0.16756219640E+03 0.  0.
        -24    2    3    3    0    0  0.14055492979E+02 -0.15671008244E+02 -0.12000737100E+03  0.14602969447E+03  0.80496988708E+02 0.  0.
          6    2    1    2  501    0 -0.76220203230E+01 -0.78836785963E+02 -0.19534572664E+03  0.27507343143E+03  0.17672607547E+03 0.  0.
         24    2    5    5    0    0  0.62790341717E+01 -0.10429364324E+03 -0.20578112460E+03  0.24389205191E+03  0.78872501255E+02 0.  0.
          5    1    5    5  501    0 -0.13901054495E+02  0.25456857274E+02  0.10435397963E+02  0.31181379523E+02  0.47000000000E+01 0. -1.
        -11    1    6    6    0    0 -0.57975538739E+01 -0.18845824027E+02  0.10852835248E+01  0.19747267014E+02  0.00000000000E+00 0.  1.
         12    1    6    6    0    0  0.12076588046E+02 -0.85447819210E+02 -0.20686640812E+03  0.22414478490E+03  0.00000000000E+00 0. -1.
         -5    1    3    3    0  503 -0.64334726565E+01  0.94507794207E+02 -0.59338857168E+02  0.11187628304E+03  0.47000000000E+01 0.  1.
         11    1    4    4    0    0 -0.18863827261E+02 -0.26957638906E+02 -0.10132170806E+03  0.10653002768E+03  0.00000000000E+00 0. -1.
        -12    1    4    4    0    0  0.32919320241E+02  0.11286630662E+02 -0.18685662939E+02  0.39499666787E+02  0.00000000000E+00 0.  1.
</event>
<event>
12    1  0.1030140E-001  0.2009159E+03  0.7818608E-02  0.1149295E+00
         21   -1    0    0  501  502  0.00000000000E+00  0.00000000000E+00  0.26342195440E+03  0.26342195440E+03  0.00000000000E+00 0. -1.
         21   -1    0    0  502  503 -0.00000000000E+00 -0.00000000000E+00 -0.16489409911E+03  0.16489409911E+03  0.00000000000E+00 0. -1.
         -6    2    1    2    0  503 -0.82030840121E+02 -0.54931205439E+02 -0.10301696181E+02  0.20117987377E+03  0.17498777273E+03 0.  0.
        -24    2    3    3    0    0 -0.12013728614E+03 -0.23875893360E+02 -0.27418030306E+02  0.14891523439E+03  0.80130973047E+02 0.  0.
          6    2    1    2  501    0  0.82030840121E+02  0.54931205439E+02  0.10882955147E+03  0.22713617974E+03  0.17320645719E+03 0.  0.
         24    2    5    5    0    0  0.73811973392E+02  0.49605927153E+02  0.31388610821E+01  0.12088873086E+03  0.81824674618E+02 0.  0.
          5    1    5    5  501    0  0.82188667291E+01  0.53252782858E+01  0.10569069039E+03  0.10624744888E+03  0.47000000000E+01 0. -1.
        -11    1    6    6    0    0  0.36096793644E+02 -0.20255827971E+02 -0.79327611838E+00  0.41399352231E+02  0.00000000000E+00 0.  1.
         12    1    6    6    0    0  0.37715179748E+02  0.69861755125E+02  0.39321372005E+01  0.79489378633E+02  0.00000000000E+00 0. -1.
         -5    1    3    3    0  503  0.38106446019E+02 -0.31055312079E+02  0.17116334125E+02  0.52264639388E+02  0.47000000000E+01 0.  1.
         11    1    4    4    0    0 -0.20442768316E+02 -0.28777402983E+02 -0.33832211891E+02  0.48894419521E+02  0.00000000000E+00 0. -1.
        -12    1    4    4    0    0 -0.99694517824E+02  0.49015096221E+01  0.64141815856E+01  0.10002081486E+03  0.00000000000E+00 0.  1.
</event>
<event>
12    1  0.1030140E-001  0.2106813E+03  0.7818608E-02  0.1141060E+00
         21   -1    0    0  501  502  0.00000000000E+00  0.00000000000E+00  0.12150970260E+04  0.12150970260E+04  0.00000000000E+00 0. -1.
         21   -1    0    0  502  503 -0.00000000000E+00 -0.00000000000E+00 -0.50337102523E+02  0.50337102523E+02  0.00000000000E+00 0. -1.
         -6    2    1    2    0  503  0.53109204504E+02  0.10896200433E+03  0.25082213980E+03  0.32756426212E+03  0.17231742225E+03 0.  0.
        -24    2    3    3    0    0  0.53923084965E+02  0.14497060691E+03  0.21464417680E+03  0.27629812449E+03  0.79651459486E+02 0.  0.
          6    2    1    2  501    0 -0.53109204504E+02 -0.10896200433E+03  0.91393778366E+03  0.93786986639E+03  0.17211713422E+03 0.  0.
         24    2    5    5    0    0 -0.56807300933E+02 -0.12291864726E+02  0.64459005932E+03  0.65163730637E+03  0.75872755993E+02 0.  0.
          5    1    5    5  501    0  0.36980964287E+01 -0.96670139607E+02  0.26934772434E+03  0.28623256002E+03  0.47000000000E+01 0. -1.
        -11    1    6    6    0    0 -0.29454732029E+01  0.12929189990E+02  0.18680955029E+02  0.22908903225E+02  0.00000000000E+00 0.  1.
         12    1    6    6    0    0 -0.53861827730E+02 -0.25221054716E+02  0.62590910429E+03  0.62872840314E+03  0.00000000000E+00 0. -1.
         -5    1    3    3    0  503 -0.81388046089E+00 -0.36008602578E+02  0.36177963000E+02  0.51266137633E+02  0.47000000000E+01 0.  1.
         13    1    4    4    0    0  0.32977639321E+02  0.14739044073E+03  0.20002017105E+03  0.25063825634E+03  0.00000000000E+00 0. -1.
        -14    1    4    4    0    0  0.20945445644E+02 -0.24198338226E+01  0.14624005758E+02  0.25659868148E+02  0.00000000000E+00 0.  1.
</event>
<event>
12    1  0.1030140E-001  0.1746304E+03  0.7818608E-02  0.1173549E+00
         21   -1    0    0  501  502  0.00000000000E+00  0.00000000000E+00  0.19170227664E+03  0.19170227664E+03  0.00000000000E+00 0. -1.
         21   -1    0    0  502  503 -0.00000000000E+00 -0.00000000000E+00 -0.16049070590E+03  0.16049070590E+03  0.00000000000E+00 0. -1.
         -6    2    1    2    0  503 -0.14997996553E+02  0.15629232555E+02  0.39658488485E+02  0.17735840830E+03  0.17150509169E+03 0.  0.
        -24    2    3    3    0    0 -0.32408784703E+02 -0.52801280326E+02  0.28874287410E+02  0.10577447414E+03  0.80723047363E+02 0.  0.
          6    2    1    2  501    0  0.14997996553E+02 -0.15629232555E+02 -0.84469177440E+01  0.17483457424E+03  0.17328175068E+03 0.  0.
         24    2    5    5    0    0  0.43205461878E+02 -0.55674012234E+02 -0.43621570088E+02  0.11434828118E+03  0.78780584274E+02 0.  0.
          5    1    5    5  501    0 -0.28207465325E+02  0.40044779679E+02  0.35174652344E+02  0.60486293052E+02  0.47000000000E+01 0. -1.
        -13    1    6    6    0    0  0.81791879224E+01 -0.49210779417E+02 -0.57498577371E+02  0.76122837083E+02  0.00000000000E+00 0.  1.
         14    1    6    6    0    0  0.35026273956E+02 -0.64632328172E+01  0.13877007282E+02  0.38225444102E+02  0.00000000000E+00 0. -1.
         -5    1    3    3    0  503  0.17410788150E+02  0.68430512880E+02  0.10784201075E+02  0.71583934161E+02  0.47000000000E+01 0.  1.
         11    1    4    4    0    0 -0.29899464046E+02  0.13818238832E+02 -0.45513745050E+00  0.32941293611E+02  0.00000000000E+00 0. -1.
        -12    1    4    4    0    0 -0.25093206567E+01 -0.66619519158E+02  0.29329424860E+02  0.72833180526E+02  0.00000000000E+00 0.  1.
</event>
<event>
12    1  0.1030140E-001  0.1855138E+03  0.7818608E-02  0.1162826E+00
         21   -1    0    0  503  502  0.00000000000E+00  0.00000000000E+00  0.80527396955E+02  0.80527396955E+02  0.00000000000E+00 0.  1.
         21   -1    0    0  501  503 -0.00000000000E+00 -0.00000000000E+00 -0.53313776050E+03  0.53313776050E+03  0.00000000000E+00 0.  1.
          6    2    1    2  501    0  0.61749483601E+02 -0.25320744679E+02 -0.36511852983E+03  0.40954474335E+03  0.17309308808E+03 0.  0.
         24    2    3    3    0    0 -0.72581197249E+01 -0.26944744590E+02 -0.30998196404E+03  0.32107544031E+03  0.78879153004E+02 0.  0.
         -6    2    1    2    0  502 -0.61749483601E+02  0.25320744679E+02 -0.87491833715E+02  0.20412041411E+03  0.17191911951E+03 0.  0.
        -24    2    5    5    0    0 -0.97974876032E+02 -0.16476322094E+02 -0.67917864327E+02  0.14526037567E+03  0.81346142635E+02 0.  0.
          5    1    3    3  501    0  0.69007603326E+02  0.16239999110E+01 -0.55136565795E+02  0.88469303039E+02  0.47000000000E+01 0. -1.
        -13    1    4    4    0    0  0.11464448833E+02 -0.43455781094E+02 -0.27157647436E+03  0.27527008541E+03  0.00000000000E+00 0.  1.
         14    1    4    4    0    0 -0.18722568558E+02  0.16511036504E+02 -0.38405489677E+02  0.45805354897E+02  0.00000000000E+00 0. -1.
         -5    1    5    5    0  502  0.36225392431E+02  0.41797066773E+02 -0.19573969389E+02  0.58860038441E+02  0.47000000000E+01 0.  1.
         13    1    6    6    0    0 -0.13406134156E+01  0.18956023930E+02 -0.30120563952E+02  0.35614273268E+02  0.00000000000E+00 0. -1.
        -14    1    6    6    0    0 -0.96634262617E+02 -0.35432346025E+02 -0.37797300374E+02  0.10964610240E+03  0.00000000000E+00 0.  1.
</event>
<event>
12    1  0.1030140E-001  0.1972510E+03  0.7818608E-02  0.1152326E+00
         21   -1    0    0  503  502  0.00000000000E+00  0.00000000000E+00  0.19914987023E+03  0.19914987023E+03  0.00000000000E+00 0.  1.
         21   -1    0    0  501  503 -0.00000000000E+00 -0.00000000000E+00 -0.26771246088E+03  0.26771246088E+03  0.00000000000E+00 0.  1.
          6    2    1    2  501    0 -0.65663391898E+02  0.66713000076E+02 -0.15650045241E+03  0.25089699199E+03  0.17232122205E+03 0.  0.
         24    2    3    3    0    0 -0.29097390671E+02 -0.46726727363E+01 -0.14797899708E+03  0.17010285897E+03  0.78541116865E+02 0.  0.
         -6    2    1    2    0  502  0.65663391898E+02 -0.66713000076E+02  0.87937861767E+02  0.21596533913E+03  0.17362504070E+03 0.  0.
        -24    2    5    5    0    0  0.25996310408E+02 -0.31062439803E+00  0.10267626835E+03  0.13708528158E+03  0.87029039412E+02 0.  0.
          5    1    3    3  501    0 -0.36566001227E+02  0.71385672812E+02 -0.85214553284E+01  0.80794133014E+02  0.47000000000E+01 0. -1.
        -11    1    4    4    0    0  0.13632629571E+02  0.23643822436E+02 -0.82795274912E+02  0.87177614536E+02  0.00000000000E+00 0.  1.
         12    1    4    4    0    0 -0.42730020242E+02 -0.28316495173E+02 -0.65183722172E+02  0.82925244437E+02  0.00000000000E+00 0. -1.
         -5    1    5    5    0  502  0.39667081491E+02 -0.66402375678E+02 -0.14738406585E+02  0.78880057545E+02  0.47000000000E+01 0.  1.
         13    1    6    6    0    0  0.90914305936E+01  0.32949834162E+02  0.76917447027E+01  0.35035819073E+02  0.00000000000E+00 0. -1.
        -14    1    6    6    0    0  0.16904879814E+02 -0.33260458560E+02  0.94984523649E+02  0.10204946251E+03  0.00000000000E+00 0.  1.
</event>
<event>
12    1  0.1030140E-001  0.1833860E+03  0.7818608E-02  0.1164691E+00
         21   -1    0    0  503  502  0.00000000000E+00  0.00000000000E+00  0.99902221916E+03  0.99902221916E+03  0.00000000000E+00 0. -1.
         21   -1    0    0  501  503 -0.00000000000E+00 -0.00000000000E+00 -0.37461690846E+02  0.37461690846E+02  0.00000000000E+00 0. -1.
          6    2    1    2  501    0 -0.45636751163E+02 -0.38478956409E+02  0.31428221766E+03  0.36387325500E+03  0.17339864538E+03 0.  0.
         24    2    3    3    0    0  0.19295210495E+02 -0.72795735959E+02  0.17275358219E+03  0.20435446093E+03  0.79027977439E+02 0.  0.
         -6    2    1    2    0  502  0.45636751163E+02  0.38478956409E+02  0.64727831065E+03  0.67261065501E+03  0.17283673988E+03 0.  0.
        -24    2    5    5    0    0 -0.30172499907E+02  0.38739013994E+02  0.22647980666E+03  0.24501203347E+03  0.79540573086E+02 0.  0.
          5    1    3    3  501    0 -0.64931961657E+02  0.34316779550E+02  0.14152863547E+03  0.15951879407E+03  0.47000000000E+01 0. -1.
        -11    1    4    4    0    0 -0.16785427842E+02 -0.21456285714E+02  0.11790840867E+03  0.12101452649E+03  0.00000000000E+00 0.  1.
         12    1    4    4    0    0  0.36080638336E+02 -0.51339450245E+02  0.54845173518E+02  0.83339934440E+02  0.00000000000E+00 0. -1.
         -5    1    5    5    0  502  0.75809251070E+02 -0.26005758472E+00  0.42079850400E+03  0.42759862154E+03  0.47000000000E+01 0.  1.
         13    1    6    6    0    0  0.15078361960E+02  0.17867669225E+02  0.16119615622E+03  0.16288281488E+03  0.00000000000E+00 0. -1.
        -14    1    6    6    0    0 -0.45250861866E+02  0.20871344769E+02  0.65283650432E+02  0.82129218588E+02  0.00000000000E+00 0.  1.
</event>
<event>
12    1  0.1030140E-001  0.1733607E+03  0.7818608E-02  0.1175252E+00
         21   -1    0    0  501  502  0.00000000000E+00  0.00000000000E+00  0.42710423773E+02  0.42710423773E+02  0.00000000000E+00 0. -1.
         21   -1    0    0  502  503 -0.00000000000E+00 -0.00000000000E+00 -0.75267529637E+03  0.75267529637E+03  0.00000000000E+00 0. -1.
         -6    2    1    2    0  503  0.52028841343E+01  0.76361036056E+01 -0.47285891647E+03  0.50363627628E+03  0.17311430854E+03 0.  0.
        -24    2    3    3    0    0  0.54893769597E+02  0.49690841404E+02 -0.30210801114E+03  0.32083653137E+03  0.78640471806E+02 0.  0.
          6    2    1    2  501    0 -0.52028841343E+01 -0.76361036056E+01 -0.23710595612E+03  0.29174944386E+03  0.16974428851E+03 0.  0.
         24    2    5    5    0    0 -0.53564481050E+02 -0.41261544999E+02 -0.11375351415E+03  0.15497433901E+03  0.80656773086E+02 0.  0.
          5    1    5    5  501    0  0.48361596915E+02  0.33625441393E+02 -0.12335244197E+03  0.13677510485E+03  0.47000000000E+01 0. -1.
        -11    1    6    6    0    0 -0.35713815112E+02  0.15687109241E+02 -0.19996551488E+02  0.43834051348E+02  0.00000000000E+00 0.  1.
         12    1    6    6    0    0 -0.17850665938E+02 -0.56948654240E+02 -0.93756962661E+02  0.11114028766E+03  0.00000000000E+00 0. -1.
         -5    1    3    3    0  503 -0.49690885463E+02 -0.42054737798E+02 -0.17075090533E+03  0.18279974492E+03  0.47000000000E+01 0.  1.
         11    1    4    4    0    0  0.16332901955E+02  0.63976011145E+02 -0.20530199503E+03  0.21565853299E+03  0.00000000000E+00 0. -1.
        -12    1    4    4    0    0  0.38560867641E+02 -0.14285169741E+02 -0.96806016108E+02  0.10517799838E+03  0.00000000000E+00 0.  1.
</event>
<event>
12    1  0.1030140E-001  0.2497820E+03  0.7818608E-02  0.1113567E+00
         21   -1    0    0  501  502  0.00000000000E+00  0.00000000000E+00  0.21744230179E+03  0.21744230179E+03  0.00000000000E+00 0. -1.
         21   -1    0    0  502  503 -0.00000000000E+00 -0.00000000000E+00 -0.32351877001E+03  0.32351877001E+03  0.00000000000E+00 0.  1.
         -6    2    1    2    0  503  0.12808494174E+03 -0.12866082408E+03 -0.14518560410E+03  0.28891160307E+03  0.17155668100E+03 0.  0.
        -24    2    3    3    0    0  0.10863573029E+03 -0.69593201364E+02 -0.24267064594E+02  0.15285779359E+03  0.78305038555E+02 0.  0.
          6    2    1    2  501    0 -0.12808494174E+03  0.12866082408E+03  0.39109135881E+02  0.25204946873E+03  0.17041141460E+03 0.  0.
         24    2    5    5    0    0 -0.33506439307E+02  0.41960618591E+01 -0.12677001687E+02  0.87305836983E+02  0.79506693991E+02 0.  0.
          5    1    5    5  501    0 -0.94578502435E+02  0.12446476222E+03  0.51786137568E+02  0.16474363175E+03  0.47000000000E+01 0. -1.
        -11    1    6    6    0    0  0.64196008267E+01  0.10088797020E+02 -0.37881097067E+02  0.39723703441E+02  0.00000000000E+00 0.  1.
         12    1    6    6    0    0 -0.39926040134E+02 -0.58927351606E+01  0.25204095380E+02  0.47582133542E+02  0.00000000000E+00 0. -1.
         -5    1    3    3    0  503  0.19449211448E+02 -0.59067622717E+02 -0.12091853951E+03  0.13605380949E+03  0.47000000000E+01 0.  1.
         13    1    4    4    0    0  0.57414112845E+01 -0.42644755393E+02  0.27440416760E+01  0.43116919310E+02  0.00000000000E+00 0. -1.
        -14    1    4    4    0    0  0.10289431901E+03 -0.26948445970E+02 -0.27011106270E+02  0.10974087427E+03  0.00000000000E+00 0.  1.
</event>
<event>
12    1  0.1030140E-001  0.1789637E+03  0.7818608E-02  0.1168844E+00
         21   -1    0    0  503  502  0.00000000000E+00  0.00000000000E+00  0.62498203136E+02  0.62498203136E+02  0.00000000000E+00 0. -1.
         21   -1    0    0  501  503 -0.00000000000E+00 -0.00000000000E+00 -0.64153532404E+03  0.64153532404E+03  0.00000000000E+00 0. -1.
          6    2    1    2  501    0  0.31719908342E+02 -0.38268206475E+02 -0.13146596523E+03  0.22206147518E+03  0.17192262950E+03 0.  0.
         24    2    3    3    0    0  0.18850823195E+02 -0.26687427129E+01 -0.15637885097E+03  0.17650187632E+03  0.79599570293E+02 0.  0.
         -6    2    1    2    0  502 -0.31719908342E+02  0.38268206475E+02 -0.44757115567E+03  0.48197205199E+03  0.17177459446E+03 0.  0.
        -24    2    5    5    0    0  0.16508980467E+02  0.57887382004E+01 -0.39436033258E+03  0.40301368784E+03  0.81202861711E+02 0.  0.
          5    1    3    3  501    0  0.12869085147E+02 -0.35599463762E+02  0.24912885739E+02  0.45559598862E+02  0.47000000000E+01 0. -1.
        -11    1    4    4    0    0  0.27036145132E+01  0.36471715473E+02 -0.49522061527E+02  0.61562408488E+02  0.00000000000E+00 0.  1.
         12    1    4    4    0    0  0.16147208682E+02 -0.39140458186E+02 -0.10685678945E+03  0.11493946783E+03  0.00000000000E+00 0. -1.
         -5    1    5    5    0  502 -0.48228888809E+02  0.32479468274E+02 -0.53210823089E+02  0.78958364148E+02  0.47000000000E+01 0.  1.
         13    1    6    6    0    0 -0.52145043543E+01 -0.31087380147E+02 -0.26239426412E+03  0.26428084702E+03  0.00000000000E+00 0. -1.
        -14    1    6    6    0    0  0.21723484821E+02  0.36876118347E+02 -0.13196606846E+03  0.13873284082E+03  0.00000000000E+00 0.  1.
</event>
<event>
12    1  0.1030140E-001  0.1920681E+03  0.7818608E-02  0.1156921E+00
         21   -1    0    0  501  502  0.00000000000E+00  0.00000000000E+00  0.14587019807E+03  0.14587019807E+03  0.00000000000E+00 0. -1.
         21   -1    0    0  502  503 -0.00000000000E+00 -0.00000000000E+00 -0.25955128343E+03  0.25955128343E+03  0.00000000000E+00 0.  1.
         -6    2    1    2    0  503  0.39797546287E+02 -0.70860732731E+02 -0.93697927495E+02  0.21370416102E+03  0.17402608623E+03 0.  0.
        -24    2    3    3    0    0 -0.39473778193E+02 -0.71858398178E+02 -0.79996798986E+02  0.13311415455E+03  0.67809156756E+02 0.  0.
          6    2    1    2  501    0 -0.39797546287E+02  0.70860732731E+02 -0.19983157867E+02  0.19171732047E+03  0.17248511889E+03 0.  0.
         24    2    5    5    0    0 -0.41925737500E+02 -0.13729450963E+02  0.27165061633E+02  0.94737564972E+02  0.79315826634E+02 0.  0.
          5    1    5    5  501    0  0.21281912124E+01  0.84590183695E+02 -0.47148219500E+02  0.96979755503E+02  0.47000000000E+01 0. -1.
        -11    1    6    6    0    0 -0.15292728776E+02 -0.15591019638E+02 -0.26774883458E+02  0.34552016308E+02  0.00000000000E+00 0.  1.
         12    1    6    6    0    0 -0.26633008724E+02  0.18615686746E+01  0.53939945091E+02  0.60185548664E+02  0.00000000000E+00 0. -1.
         -5    1    3    3    0  503  0.79271324480E+02  0.99766544718E+00 -0.13701128509E+02  0.80590006475E+02  0.47000000000E+01 0.  1.
         13    1    4    4    0    0 -0.49419905244E+02 -0.27284711888E+02 -0.25311146445E+02  0.61866280570E+02  0.00000000000E+00 0. -1.
        -14    1    4    4    0    0  0.99461270515E+01 -0.44573686291E+02 -0.54685652541E+02  0.71247873980E+02  0.00000000000E+00 0.  1.
</event>
<event>
12    1  0.1030140E-001  0.2003340E+03  0.7818608E-02  0.1150641E+00
         21   -1    0    0  501  502  0.00000000000E+00  0.00000000000E+00  0.14429672035E+03  0.14429672035E+03  0.00000000000E+00 0. -1.
         21   -1    0    0  502  503 -0.00000000000E+00 -0.00000000000E+00 -0.32004150251E+03  0.32004150251E+03  0.00000000000E+00 0. -1.
         -6    2    1    2    0  503 -0.12269004604E+02  0.89435102495E+02 -0.17817273182E+03  0.26398951952E+03  0.17261453595E+03 0.  0.
        -24    2    3    3    0    0 -0.55320973783E+02  0.78203541860E+02 -0.18018146815E+03  0.21920397469E+03  0.80055086992E+02 0.  0.
          6    2    1    2  501    0  0.12269004604E+02 -0.89435102495E+02  0.24279496643E+01  0.20034870333E+03  0.17884222643E+03 0.  0.
         24    2    5    5    0    0  0.44090716531E+02 -0.36977722221E+02 -0.58285506774E+02  0.11390443292E+03  0.79156025124E+02 0.  0.
          5    1    5    5  501    0 -0.31821711927E+02 -0.52457380274E+02  0.60713456438E+02  0.86444270416E+02  0.47000000000E+01 0. -1.
        -13    1    6    6    0    0 -0.19315197613E+02 -0.27418214348E+02 -0.23520991027E+02  0.40964281462E+02  0.00000000000E+00 0.  1.
         14    1    6    6    0    0  0.63405914144E+02 -0.95595078736E+01 -0.34764515747E+02  0.72940151455E+02  0.00000000000E+00 0. -1.
         -5    1    3    3    0  503  0.43051969179E+02  0.11231560634E+02  0.20087363312E+01  0.44785544835E+02  0.47000000000E+01 0.  1.
         13    1    4    4    0    0 -0.46526077924E+02  0.17276479204E+02 -0.13203077489E+03  0.14105062275E+03  0.00000000000E+00 0. -1.
        -14    1    4    4    0    0 -0.87948958588E+01  0.60927062657E+02 -0.48150693264E+02  0.78153351937E+02  0.00000000000E+00 0.  1.
</event>
<event>
12    1  0.1030140E-001  0.1848072E+03  0.7818608E-02  0.1163317E+00
         21   -1    0    0  503  502  0.00000000000E+00  0.00000000000E+00  0.23428442166E+03  0.23428442166E+03  0.00000000000E+00 0. -1.
         21   -1    0    0  501  503 -0.00000000000E+00 -0.00000000000E+00 -0.15476465353E+03  0.15476465353E+03  0.00000000000E+00 0. -1.
          6    2    1    2  501    0  0.61828407133E+02  0.33356071834E+02 -0.78308183073E+01  0.18497307691E+03  0.17093372403E+03 0.  0.
         24    2    3    3    0    0  0.36173118159E+00 -0.32236562930E+02 -0.26546449237E+02  0.93033363902E+02  0.83133422839E+02 0.  0.
         -6    2    1    2    0  502 -0.61828407133E+02 -0.33356071834E+02  0.87350586435E+02  0.20407599827E+03  0.17053301341E+03 0.  0.
        -24    2    5    5    0    0 -0.85776030396E+02 -0.71578080942E+02  0.60033255607E+02  0.15113511423E+03  0.82200254935E+02 0.  0.
          5    1    3    3  501    0  0.61466675952E+02  0.65592634764E+02  0.18715630930E+02  0.91939713013E+02  0.47000000000E+01 0. -1.
        -13    1    4    4    0    0 -0.31824203197E+02  0.95334769782E+01  0.15993993436E+01  0.33259963480E+02  0.00000000000E+00 0.  1.
         14    1    4    4    0    0  0.32185934378E+02 -0.41770039908E+02 -0.28145848581E+02  0.59773400422E+02  0.00000000000E+00 0. -1.
         -5    1    5    5    0  502  0.23947623263E+02  0.38222009109E+02  0.27317330828E+02  0.52940884048E+02  0.47000000000E+01 0.  1.
         13    1    6    6    0    0 -0.88149688904E+02 -0.24453603905E+02  0.37932128974E+02  0.99031271861E+02  0.00000000000E+00 0. -1.
        -14    1    6    6    0    0  0.23736585079E+01 -0.47124477037E+02  0.22101126634E+02  0.52103842366E+02  0.00000000000E+00 0.  1.
</event>
<event>
12    1  0.1030140E-001  0.3399586E+03  0.7818608E-02  0.1066980E+00
         21   -1    0    0  503  502  0.00000000000E+00  0.00000000000E+00  0.69615562519E+03  0.69615562519E+03  0.00000000000E+00 0. -1.
         21   -1    0    0  501  503 -0.00000000000E+00 -0.00000000000E+00 -0.27651592635E+03  0.27651592635E+03  0.00000000000E+00 0. -1.
          6    2    1    2  501    0 -0.14935359676E+02 -0.29203377707E+03 -0.98385307465E+02  0.35390887696E+03  0.17339271193E+03 0.  0.
         24    2    3    3    0    0  0.30232497685E+02 -0.25175342741E+03 -0.38351453958E+02  0.26853443421E+03  0.79662514469E+02 0.  0.
         -6    2    1    2    0  502  0.14935359676E+02  0.29203377707E+03  0.51802500631E+03  0.61876267458E+03  0.17032483193E+03 0.  0.
        -24    2    5    5    0    0 -0.31963122492E+02  0.25481536975E+03  0.47138818119E+03  0.54272478316E+03  0.79942848589E+02 0.  0.
          5    1    3    3  501    0 -0.45167857361E+02 -0.40280349661E+02 -0.60033853507E+02  0.85374442747E+02  0.47000000000E+01 0. -1.
        -11    1    4    4    0    0  0.24086940469E+02 -0.86426002920E+02 -0.49949415876E+02  0.10268679968E+03  0.00000000000E+00 0.  1.
         12    1    4    4    0    0  0.61455572160E+01 -0.16532742449E+03  0.11597961918E+02  0.16584763454E+03  0.00000000000E+00 0. -1.
         -5    1    5    5    0  502  0.46898482168E+02  0.37218407321E+02  0.46636825121E+02  0.76037891412E+02  0.47000000000E+01 0.  1.
         13    1    6    6    0    0 -0.29269911800E+02  0.12098766318E+03  0.15229723002E+03  0.19669567521E+03  0.00000000000E+00 0. -1.
        -14    1    6    6    0    0 -0.26932106914E+01  0.13382770657E+03  0.31909095117E+03  0.34602910795E+03  0.00000000000E+00 0.  1.
</event>
<event>
12    1  0.1030140E-001  0.2343088E+03  0.7818608E-02  0.1123695E+00
         21   -1    0    0  503  502  0.00000000000E+00  0.00000000000E+00  0.60795763518E+03  0.60795763518E+03  0.00000000000E+00 0. -1.
         21   -1    0    0  501  503 -0.00000000000E+00 -0.00000000000E+00 -0.17544783229E+03  0.17544783229E+03  0.00000000000E+00 0. -1.
          6    2    1    2  501    0  0.68071541141E+02 -0.14581174128E+03 -0.56732817843E+02  0.24107930688E+03  0.17031095377E+03 0.  0.
         24    2    3    3    0    0  0.47627688418E+02 -0.21201975006E+02 -0.64291051784E+02  0.11449035844E+03  0.79099825467E+02 0.  0.
         -6    2    1    2    0  502 -0.68071541141E+02  0.14581174128E+03  0.48924262074E+03  0.54232616059E+03  0.16989562650E+03 0.  0.
        -24    2    5    5    0    0  0.21598445673E+02  0.59920898447E+02  0.15464064107E+03  0.18539687037E+03  0.80007904275E+02 0.  0.
          5    1    3    3  501    0  0.20443852723E+02 -0.12460976628E+03  0.75582339412E+01  0.12658894844E+03  0.47000000000E+01 0. -1.
        -13    1    4    4    0    0 -0.43394782276E+01  0.77921806462E+00  0.15864940921E+02  0.16466165386E+02  0.00000000000E+00 0.  1.
         14    1    4    4    0    0  0.51967166646E+02 -0.21981193070E+02 -0.80155992706E+02  0.98024193058E+02  0.00000000000E+00 0. -1.
         -5    1    5    5    0  502 -0.89669986815E+02  0.85890842835E+02  0.33460197967E+03  0.35692929022E+03  0.47000000000E+01 0.  1.
         11    1    6    6    0    0 -0.89991579018E+01  0.15010838702E+02  0.11929192083E+03  0.12056895329E+03  0.00000000000E+00 0. -1.
        -12    1    6    6    0    0  0.30597603575E+02  0.44910059745E+02  0.35348720242E+02  0.64827917086E+02  0.00000000000E+00 0.  1.
</event>
<event>
12    1  0.1030140E-001  0.3088323E+03  0.7818608E-02  0.1081618E+00
         21   -1    0    0  503  502  0.00000000000E+00  0.00000000000E+00  0.38070655855E+03  0.38070655855E+03  0.00000000000E+00 0. -1.
         21   -1    0    0  501  503 -0.00000000000E+00 -0.00000000000E+00 -0.40612372668E+03  0.40612372668E+03  0.00000000000E+00 0.  1.
          6    2    1    2  501    0 -0.64280272416E+02 -0.24591467533E+03 -0.25980787339E+03  0.39912367812E+03  0.16490481616E+03 0.  0.
         24    2    3    3    0    0 -0.86385032859E+02 -0.24428961319E+03 -0.20232069064E+03  0.33733268005E+03  0.75629928977E+02 0.  0.
         -6    2    1    2    0  502  0.64280272416E+02  0.24591467533E+03  0.23439070526E+03  0.38770660711E+03  0.17541787116E+03 0.  0.
        -24    2    5    5    0    0  0.24075276329E+02  0.10187338732E+03  0.30685591059E+02  0.13495732836E+03  0.79461116302E+02 0.  0.
          5    1    3    3  501    0  0.22104760443E+02 -0.16250621482E+01 -0.57487182754E+02  0.61790998068E+02  0.47000000000E+01 0. -1.
        -13    1    4    4    0    0  0.13365003296E+02 -0.34929713020E+02 -0.20525869292E+02  0.42661686265E+02  0.00000000000E+00 0.  1.
         14    1    4    4    0    0 -0.99750036155E+02 -0.20935990016E+03 -0.18179482135E+03  0.29467099378E+03  0.00000000000E+00 0. -1.
         -5    1    5    5    0  502  0.40204996087E+02  0.14404128801E+03  0.20370511420E+03  0.25274927876E+03  0.47000000000E+01 0.  1.
         13    1    6    6    0    0  0.32835792278E+02  0.51443030206E+02  0.51349466003E+02  0.79758023233E+02  0.00000000000E+00 0. -1.
        -14    1    6    6    0    0 -0.87605159489E+01  0.50430357116E+02 -0.20663874943E+02  0.55199305125E+02  0.00000000000E+00 0.  1.
</event>
<event>
12    1  0.1030140E-001  0.1762290E+03  0.7818608E-02  0.1171804E+00
         21   -1    0    0  501  502  0.00000000000E+00  0.00000000000E+00  0.48973569265E+03  0.48973569265E+03  0.00000000000E+00 0.  1.
         21   -1    0    0  502  503 -0.00000000000E+00 -0.00000000000E+00 -0.85040606130E+02  0.85040606130E+02  0.00000000000E+00 0.  1.
         -6    2    1    2    0  503  0.22579681066E+02  0.32623740712E+02  0.55465864941E+02  0.18360150940E+03  0.17046671706E+03 0.  0.
        -24    2    3    3    0    0 -0.32720887147E+02  0.51368888991E+02  0.70920130054E+02  0.12301720665E+03  0.79963423352E+02 0.  0.
          6    2    1    2  501    0 -0.22579681066E+02 -0.32623740712E+02  0.34922922158E+03  0.39117478938E+03  0.17170473549E+03 0.  0.
         24    2    5    5    0    0 -0.25193586110E+02 -0.71785762281E+02  0.32791011289E+03  0.34626275504E+03  0.81147649063E+02 0.  0.
          5    1    5    5  501    0  0.26139050443E+01  0.39162021569E+02  0.21319108688E+02  0.44912034336E+02  0.47000000000E+01 0. -1.
        -11    1    6    6    0    0  0.29444739773E+02 -0.25766233741E+02  0.98456860978E+02  0.10594642502E+03  0.00000000000E+00 0.  1.
         12    1    6    6    0    0 -0.54638325883E+02 -0.46019528540E+02  0.22945325191E+03  0.24031633002E+03  0.00000000000E+00 0. -1.
         -5    1    3    3    0  503  0.55300568213E+02 -0.18745148279E+02 -0.15454265113E+02  0.60584302743E+02  0.47000000000E+01 0.  1.
         13    1    4    4    0    0  0.10837900118E+02 -0.14112602594E+02  0.10626803533E+01  0.17825681487E+02  0.00000000000E+00 0. -1.
        -14    1    4    4    0    0 -0.43558787265E+02  0.65481491585E+02  0.69857449701E+02  0.10519152517E+03  0.00000000000E+00 0.  1.
</event>
<event>
12    1  0.1030140E-001  0.1744211E+03  0.7818608E-02  0.1173999E+00
         21   -1    0    0  503  502  0.00000000000E+00  0.00000000000E+00  0.51396962411E+03  0.51396962411E+03  0.00000000000E+00 0. -1.
         21   -1    0    0  501  503 -0.00000000000E+00 -0.00000000000E+00 -0.11822624214E+03  0.11822624214E+03  0.00000000000E+00 0. -1.
          6    2    1    2  501    0 -0.32665998514E+01 -0.11146913827E+02 -0.26447812050E+02  0.17641490763E+03  0.17403392919E+03 0.  0.
         24    2    3    3    0    0 -0.64677604554E+02 -0.19091061804E+02 -0.41305164568E+02  0.11256154508E+03  0.80101957769E+02 0.  0.
         -6    2    1    2    0  502  0.32665998514E+01  0.11146913827E+02  0.42219119402E+03  0.45578095862E+03  0.17133579185E+03 0.  0.
        -24    2    5    5    0    0  0.10853508718E+02  0.71430985769E+02  0.30677200229E+03  0.32526118871E+03  0.80408924351E+02 0.  0.
          5    1    3    3  501    0  0.61411004703E+02  0.79441479775E+01  0.14857352518E+02  0.63853362555E+02  0.47000000000E+01 0. -1.
        -11    1    4    4    0    0 -0.48837600692E+02 -0.38698133535E+02  0.21245462222E+01  0.62347176978E+02  0.00000000000E+00 0.  1.
         12    1    4    4    0    0 -0.15840003862E+02  0.19607071731E+02 -0.43429710790E+02  0.50214368099E+02  0.00000000000E+00 0. -1.
         -5    1    5    5    0  502 -0.75869088662E+01 -0.60284071942E+02  0.11541919173E+03  0.13051976990E+03  0.47000000000E+01 0.  1.
         13    1    6    6    0    0  0.26784081316E+01 -0.62108184905E+01  0.14973949914E+03  0.14989218038E+03  0.00000000000E+00 0. -1.
        -14    1    6    6    0    0  0.81751005860E+01  0.77641804260E+02  0.15703250315E+03  0.17536900833E+03  0.00000000000E+00 0.  1.
</event>
<event>
12    1  0.1030140E-001  0.3825936E+03  0.7818608E-02  0.1050014E+00
         21   -1    0    0  503  502  0.00000000000E+00  0.00000000000E+00  0.40473631719E+03  0.40473631719E+03  0.00000000000E+00 0. -1.
         21   -1    0    0  501  503 -0.00000000000E+00 -0.00000000000E+00 -0.37323206792E+03  0.37323206792E+03  0.00000000000E+00 0.  1.
          6    2    1    2  501    0 -0.23043527575E+03  0.25341320586E+03 -0.53788565578E+02  0.38598279954E+03  0.16961969973E+03 0.  0.
         24    2    3    3    0    0 -0.10685447772E+03  0.48222400964E+02 -0.35028575040E+02  0.14567152785E+03  0.79056395009E+02 0.  0.
         -6    2    1    2    0  502  0.23043527575E+03 -0.25341320586E+03  0.85292814855E+02  0.39198558557E+03  0.17046749196E+03 0.  0.
        -24    2    5    5    0    0  0.11113449027E+03 -0.47792716941E+02  0.35813838534E+02  0.14912199839E+03  0.79496670710E+02 0.  0.
          5    1    3    3  501    0 -0.12358079803E+03  0.20519080489E+03 -0.18759990538E+02  0.24031127169E+03  0.47000000000E+01 0. -1.
        -13    1    4    4    0    0 -0.69348739306E+01  0.38053048339E+02 -0.21711615195E+02  0.44356749190E+02  0.00000000000E+00 0.  1.
         14    1    4    4    0    0 -0.99919603794E+02  0.10169352626E+02 -0.13316959845E+02  0.10131477866E+03  0.00000000000E+00 0. -1.
         -5    1    5    5    0  502  0.11930078548E+03 -0.20562048892E+03  0.49478976321E+02  0.24286358718E+03  0.47000000000E+01 0.  1.
         11    1    6    6    0    0  0.96044868184E+02 -0.24228097498E+02  0.56764745698E+02  0.11416590457E+03  0.00000000000E+00 0. -1.
        -12    1    6    6    0    0  0.15089622086E+02 -0.23564619443E+02 -0.20950907163E+02  0.34956093820E+02  0.00000000000E+00 0.  1.
</event>
<event>
12    1  0.1030140E-001  0.2999835E+03  0.7818608E-02  0.1085388E+00
         21   -1    0    0  503  502  0.00000000000E+00  0.00000000000E+00  0.80167115549E+03  0.80167115549E+03  0.00000000000E+00 0.  1.
         21   -1    0    0  501  503 -0.00000000000E+00 -0.00000000000E+00 -0.12762924889E+03  0.12762924889E+03  0.00000000000E+00 0. -1.
          6    2    1    2  501    0 -0.50170974889E+01  0.24458267723E+03  0.17412440990E+03  0.34685648458E+03  0.17362100537E+03 0.  0.
         24    2    3    3    0    0  0.44160428980E+01  0.50524509348E+02  0.74145472907E+01  0.90806050193E+02  0.74956892681E+02 0.  0.
         -6    2    1    2    0  502  0.50170974889E+01 -0.24458267723E+03  0.49991749669E+03  0.58244391980E+03  0.17169029949E+03 0.  0.
        -24    2    5    5    0    0 -0.33546265563E+02 -0.82190220105E+02  0.13275162541E+03  0.17909381116E+03  0.81061797001E+02 0.  0.
          5    1    3    3  501    0 -0.94331403868E+01  0.19405816788E+03  0.16670986261E+03  0.25605043439E+03  0.47000000000E+01 0. -1.
        -13    1    4    4    0    0  0.22944349525E+02  0.22639025997E+02  0.34886517525E+02  0.47497766034E+02  0.00000000000E+00 0.  1.
         14    1    4    4    0    0 -0.18528306627E+02  0.27885483351E+02 -0.27471970235E+02  0.43308284158E+02  0.00000000000E+00 0. -1.
         -5    1    5    5    0  502  0.38563363052E+02 -0.16239245712E+03  0.36716587129E+03  0.40335010864E+03  0.47000000000E+01 0.  1.
         13    1    6    6    0    0 -0.17932964911E+02 -0.42575938852E+02  0.12820120312E+03  0.13627123791E+03  0.00000000000E+00 0. -1.
        -14    1    6    6    0    0 -0.15613300652E+02 -0.39614281253E+02  0.45504222818E+01  0.42822573246E+02  0.00000000000E+00 0.  1.
</event>
<event>
12    1  0.1030140E-001  0.3953278E+03  0.7818608E-02  0.1045434E+00
         21   -1    0    0  501  502  0.00000000000E+00  0.00000000000E+00  0.41016050252E+03  0.41016050252E+03  0.00000000000E+00 0. -1.
         21   -1    0    0  502  503 -0.00000000000E+00 -0.00000000000E+00 -0.57357369716E+03  0.57357369716E+03  0.00000000000E+00 0.  1.
         -6    2    1    2    0  503  0.10638639178E+02 -0.35532594678E+03 -0.36686698768E+03  0.53912484137E+03  0.17232091816E+03 0.  0.
        -24    2    3    3    0    0  0.34953960481E+02 -0.15402234097E+03 -0.24552137619E+03  0.30277504977E+03  0.80295228535E+02 0.  0.
          6    2    1    2  501    0 -0.10638639178E+02  0.35532594678E+03  0.20345379304E+03  0.44460935831E+03  0.17295758585E+03 0.  0.
         24    2    5    5    0    0 -0.13623699107E+02  0.67642631326E+02  0.34374916280E+02  0.11087240031E+03  0.79686407443E+02 0.  0.
          5    1    5    5  501    0  0.29850599285E+01  0.28768331545E+03  0.16907887676E+03  0.33373695800E+03  0.47000000000E+01 0. -1.
        -11    1    6    6    0    0  0.33271011913E+02  0.23609305195E+02  0.93916215879E+01  0.41863612859E+02  0.00000000000E+00 0.  1.
         12    1    6    6    0    0 -0.46894711020E+02  0.44033326131E+02  0.24983294693E+02  0.69008787451E+02  0.00000000000E+00 0. -1.
         -5    1    3    3    0  503 -0.24315321303E+02 -0.20130360581E+03 -0.12134561149E+03  0.23634979160E+03  0.47000000000E+01 0.  1.
         13    1    4    4    0    0  0.18340918150E+02 -0.80760665671E+01 -0.45295669943E+01  0.20545780758E+02  0.00000000000E+00 0. -1.
        -14    1    4    4    0    0  0.16613042331E+02 -0.14594627440E+03 -0.24099180920E+03  0.28222926901E+03  0.00000000000E+00 0.  1.
</event>
<event>
12    1  0.1030140E-001  0.1800155E+03  0.7818608E-02  0.1168089E+00
         21   -1    0    0  503  502  0.00000000000E+00  0.00000000000E+00  0.23240956498E+03  0.23240956498E+03  0.00000000000E+00 0.  1.
         21   -1    0    0  501  503 -0.00000000000E+00 -0.00000000000E+00 -0.53097007847E+03  0.53097007847E+03  0.00000000000E+00 0.  1.
          6    2    1    2  501    0  0.10207024855E+02 -0.52211913004E+02 -0.47757970183E+03  0.51038020420E+03  0.17197474821E+03 0.  0.
         24    2    3    3    0    0  0.39434968417E+02 -0.35653396523E+02 -0.17127692780E+03  0.20220503237E+03  0.93406679103E+02 0.  0.
         -6    2    1    2    0  502 -0.10207024855E+02  0.52211913004E+02  0.17901918834E+03  0.25299943926E+03  0.17067682695E+03 0.  0.
        -24    2    5    5    0    0 -0.24433903996E+02 -0.17079167331E+02  0.33836980721E+02  0.91433287753E+02  0.79538614671E+02 0.  0.
          5    1    3    3  501    0 -0.29227943563E+02 -0.16558516481E+02 -0.30630277403E+03  0.30817517183E+03  0.47000000000E+01 0. -1.
        -13    1    4    4    0    0  0.74883981731E+01 -0.62354633065E+02 -0.78628722409E+02  0.10063126929E+03  0.00000000000E+00 0.  1.
         14    1    4    4    0    0  0.31946570244E+02  0.26701236542E+02 -0.92648205390E+02  0.10157376308E+03  0.00000000000E+00 0. -1.
         -5    1    5    5    0  502  0.14226879141E+02  0.69291080335E+02  0.14518220762E+03  0.16156615150E+03  0.47000000000E+01 0.  1.
         13    1    6    6    0    0 -0.47116788490E+02 -0.26452647074E+02  0.60704661847E+01  0.54374487166E+02  0.00000000000E+00 0. -1.
        -14    1    6    6    0    0  0.22682884495E+02  0.93734797427E+01  0.27766514537E+02  0.37058800588E+02  0.00000000000E+00 0.  1.
</event>
<event>
12    1  0.1030140E-001  0.1764446E+03  0.7818608E-02  0.1171336E+00
         21   -1    0    0  503  502  0.00000000000E+00  0.00000000000E+00  0.83350273726E+02  0.83350273726E+02  0.00000000000E+00 0.  1.
         21   -1    0    0  501  503 -0.00000000000E+00 -0.00000000000E+00 -0.37311466064E+03  0.37311466064E+03  0.00000000000E+00 0.  1.
          6    2    1    2  501    0  0.14511304334E+02  0.38722213733E+02 -0.14552307508E+03  0.22871305014E+03  0.17153048165E+03 0.  0.
         24    2    3    3    0    0  0.68683986555E+02  0.56532924573E+02 -0.98283599469E+02  0.15451359613E+03  0.79380878644E+02 0.  0.
         -6    2    1    2    0  502 -0.14511304334E+02 -0.38722213733E+02 -0.14424131184E+03  0.22775188423E+03  0.17133410909E+03 0.  0.
        -24    2    5    5    0    0 -0.37238727885E+02 -0.30216823156E+02 -0.12221845626E+02  0.93438419122E+02  0.79256453373E+02 0.  0.
          5    1    3    3  501    0 -0.54172682221E+02 -0.17810710840E+02 -0.47239475609E+02  0.74199454011E+02  0.47000000000E+01 0. -1.
        -11    1    4    4    0    0  0.55306099946E+02  0.41669661338E+02 -0.17682428541E+02  0.71468829894E+02  0.00000000000E+00 0.  1.
         12    1    4    4    0    0  0.13377886609E+02  0.14863263235E+02 -0.80601170928E+02  0.83044766236E+02  0.00000000000E+00 0. -1.
         -5    1    5    5    0  502  0.22727423551E+02 -0.85053905767E+01 -0.13201946621E+03  0.13431346510E+03  0.47000000000E+01 0.  1.
         13    1    6    6    0    0  0.20893710187E+02  0.82615501975E+00 -0.17581271694E+02  0.27319055105E+02  0.00000000000E+00 0. -1.
        -14    1    6    6    0    0 -0.58132438071E+02 -0.31042978176E+02  0.53594260677E+01  0.66119364016E+02  0.00000000000E+00 0.  1.
</event>
<event>
12    1  0.1030140E-001  0.2398663E+03  0.7818608E-02  0.1120028E+00
         21   -1    0    0  501  502  0.00000000000E+00  0.00000000000E+00  0.80029400487E+02  0.80029400487E+02  0.00000000000E+00 0.  1.
         21   -1    0    0  502  503 -0.00000000000E+00 -0.00000000000E+00 -0.71648286223E+03  0.71648286223E+03  0.00000000000E+00 0.  1.
         -6    2    1    2    0  503 -0.15530062619E+02  0.16530101861E+03 -0.32483331720E+03  0.40379760675E+03  0.17311907365E+03 0.  0.
        -24    2    3    3    0    0 -0.70881855290E+01  0.19267200859E+03 -0.26186099082E+03  0.33445757308E+03  0.78217289699E+02 0.  0.
          6    2    1    2  501    0  0.15530062619E+02 -0.16530101861E+03 -0.31162014455E+03  0.39271465596E+03  0.17190717531E+03 0.  0.
         24    2    5    5    0    0  0.23493895942E+02 -0.19016044262E+03 -0.28809050448E+03  0.35725837916E+03  0.89019400247E+02 0.  0.
          5    1    5    5  501    0 -0.79638333234E+01  0.24859424011E+02 -0.23529640061E+02  0.35456276804E+02  0.47000000000E+01 0. -1.
        -11    1    6    6    0    0  0.19328337426E+02 -0.87908800477E+01 -0.72231719345E+02  0.75288016836E+02  0.00000000000E+00 0.  1.
         12    1    6    6    0    0  0.41655585162E+01 -0.18136956258E+03 -0.21585878514E+03  0.28197036232E+03  0.00000000000E+00 0. -1.
         -5    1    3    3    0  503 -0.84418770897E+01 -0.27370989976E+02 -0.62972326375E+02  0.69340033675E+02  0.47000000000E+01 0.  1.
         11    1    4    4    0    0 -0.92762292443E+01 -0.42743404967E+01 -0.20740276905E+02  0.23118769469E+02  0.00000000000E+00 0. -1.
        -12    1    4    4    0    0  0.21880437154E+01  0.19694634908E+03 -0.24112071392E+03  0.31133880361E+03  0.00000000000E+00 0.  1.
</event>
<event>
12    1  0.1030140E-001  0.1797416E+03  0.7818608E-02  0.1168166E+00
         21   -1    0    0  501  502  0.00000000000E+00  0.00000000000E+00  0.28551485948E+03  0.28551485948E+03  0.00000000000E+00 0. -1.
         21   -1    0    0  502  503 -0.00000000000E+00 -0.00000000000E+00 -0.11287914410E+03  0.11287914410E+03  0.00000000000E+00 0. -1.
         -6    2    1    2    0  503 -0.46828627955E+02  0.14568187326E+02  0.83976965203E+02  0.19839149779E+03  0.17292166791E+03 0.  0.
        -24    2    3    3    0    0  0.76270348052E+00 -0.27141757548E+02 -0.24100621045E+01  0.91202585974E+02  0.87033594488E+02 0.  0.
          6    2    1    2  501    0  0.46828627955E+02 -0.14568187326E+02  0.88658750173E+02  0.20000250579E+03  0.17243977459E+03 0.  0.
         24    2    5    5    0    0  0.45352631554E+02 -0.40235042260E+02 -0.69176490553E+01  0.10091716834E+03  0.80378487066E+02 0.  0.
          5    1    5    5  501    0  0.14759964008E+01  0.25666854934E+02  0.95576399228E+02  0.99085337447E+02  0.47000000000E+01 0. -1.
        -11    1    6    6    0    0  0.35236493608E+02 -0.60800449769E+02  0.11886731176E+02  0.71271309459E+02  0.00000000000E+00 0.  1.
         12    1    6    6    0    0  0.10116137946E+02  0.20565407509E+02 -0.18804380232E+02  0.29645858882E+02  0.00000000000E+00 0. -1.
         -5    1    3    3    0  503 -0.47591331435E+02  0.41709944874E+02  0.86387027308E+02  0.10718891182E+03  0.47000000000E+01 0.  1.
         13    1    4    4    0    0  0.26392557915E+02  0.79530452787E+01 -0.29196693647E+02  0.40153019343E+02  0.00000000000E+00 0. -1.
        -14    1    4    4    0    0 -0.25629854434E+02 -0.35094802827E+02  0.26786631542E+02  0.51049566631E+02  0.00000000000E+00 0.  1.
</event>
<event>
12    1  0.1030140E-001  0.2683913E+03  0.7818608E-02  0.1102269E+00
         21   -1    0    0  503  502  0.00000000000E+00  0.00000000000E+00  0.10091095909E+03  0.10091095909E+03  0.00000000000E+00 0. -1.
         21   -1    0    0  501  503 -0.00000000000E+00 -0.00000000000E+00 -0.10516710938E+04  0.10516710938E+04  0.00000000000E+00 0. -1.
          6    2    1    2  501    0  0.19962488221E+03 -0.48866322203E+02 -0.80231511156E+03  0.84587402936E+03  0.17191662011E+03 0.  0.
         24    2    3    3    0    0  0.62152716658E+02  0.32008728016E+02 -0.26171324929E+03  0.28221470535E+03  0.79144148289E+02 0.  0.
         -6    2    1    2    0  502 -0.19962488221E+03  0.48866322203E+02 -0.14844502316E+03  0.30670802355E+03  0.17261481907E+03 0.  0.
        -24    2    5    5    0    0 -0.92993382781E+02  0.22972796123E+02 -0.43676111973E+01  0.12554196160E+03  0.81032027564E+02 0.  0.
          5    1    3    3  501    0  0.13747216555E+03 -0.80875050219E+02 -0.54060186227E+03  0.56365932401E+03  0.47000000000E+01 0. -1.
        -11    1    4    4    0    0 -0.13228719936E+02 -0.66798826964E+01 -0.13905861527E+02  0.20322225488E+02  0.00000000000E+00 0.  1.
         12    1    4    4    0    0  0.75381436593E+02  0.38688610713E+02 -0.24780738776E+03  0.26189247986E+03  0.00000000000E+00 0. -1.
         -5    1    5    5    0  502 -0.10663149943E+03  0.25893526080E+02 -0.14407741197E+03  0.18116606195E+03  0.47000000000E+01 0.  1.
         13    1    6    6    0    0 -0.88629362356E+02  0.46359834556E+02  0.45737090442E+01  0.10012650471E+03  0.00000000000E+00 0. -1.
        -14    1    6    6    0    0 -0.43640204260E+01 -0.23387038433E+02 -0.89413202415E+01  0.25415456884E+02  0.00000000000E+00 0.  1.
</event>
<event>
12    1  0.1030140E-001  0.1813497E+03  0.7818608E-02  0.1166711E+00
         21   -1    0    0  503  502  0.00000000000E+00  0.00000000000E+00  0.53333766136E+02  0.53333766136E+02  0.00000000000E+00 0. -1.
         21   -1    0    0  501  503 -0.00000000000E+00 -0.00000000000E+00 -0.63676218447E+03  0.63676218447E+03  0.00000000000E+00 0.  1.
          6    2    1    2  501    0  0.58337649465E+02 -0.34766444986E+01 -0.35804221956E+03  0.40135017187E+03  0.17167516147E+03 0.  0.
         24    2    3    3    0    0 -0.21445799199E+02 -0.41135395720E+02 -0.15986653325E+03  0.18437258576E+03  0.79271046693E+02 0.  0.
         -6    2    1    2    0  502 -0.58337649465E+02  0.34766444986E+01 -0.22538619877E+03  0.28874577874E+03  0.17076245999E+03 0.  0.
        -24    2    5    5    0    0 -0.43983716946E+02 -0.44917758452E+01 -0.24530794342E+03  0.26250655216E+03  0.82334436393E+02 0.  0.
          5    1    3    3  501    0  0.79783448664E+02  0.37658751222E+02 -0.19817568632E+03  0.21697758610E+03  0.47000000000E+01 0. -1.
        -11    1    4    4    0    0 -0.20225948576E+02  0.15540279800E+02 -0.94341628325E+02  0.97728870489E+02  0.00000000000E+00 0.  1.
         12    1    4    4    0    0 -0.12198506234E+01 -0.56675675520E+02 -0.65524904921E+02  0.86643715272E+02  0.00000000000E+00 0. -1.
         -5    1    5    5    0  502 -0.14353932519E+02  0.79684203438E+01  0.19921744649E+02  0.26239226578E+02  0.47000000000E+01 0.  1.
         13    1    6    6    0    0 -0.33194051676E+02  0.20747333915E+02 -0.42229511680E+02  0.57581495187E+02  0.00000000000E+00 0. -1.
        -14    1    6    6    0    0 -0.10789665270E+02 -0.25239109760E+02 -0.20307843174E+03  0.20492505697E+03  0.00000000000E+00 0.  1.
</event>
<event>
12    1  0.1030140E-001  0.2349811E+03  0.7818608E-02  0.1123208E+00
         21   -1    0    0  501  502  0.00000000000E+00  0.00000000000E+00  0.20197258190E+02  0.20197258190E+02  0.00000000000E+00 0. -1.
         21   -1    0    0  502  503 -0.00000000000E+00 -0.00000000000E+00 -0.31960205140E+04  0.31960205140E+04  0.00000000000E+00 0. -1.
         -6    2    1    2    0  503 -0.14772048720E+03  0.61947228455E+02 -0.97565073048E+03  0.10035489371E+04  0.17192242408E+03 0.  0.
        -24    2    3    3    0    0 -0.15125235250E+03  0.51939612690E+02 -0.56005290259E+03  0.58778906535E+03  0.79131119934E+02 0.  0.
          6    2    1    2  501    0  0.14772048720E+03 -0.61947228455E+02 -0.22001725253E+04  0.22126688351E+04  0.17171322293E+03 0.  0.
         24    2    5    5    0    0  0.26260560776E+02  0.21687578641E+02 -0.95774293937E+03  0.96150910874E+03  0.77899038153E+02 0.  0.
          5    1    5    5  501    0  0.12145992642E+03 -0.83634807096E+02 -0.12424295860E+04  0.12511597263E+04  0.47000000000E+01 0. -1.
        -11    1    6    6    0    0  0.14778906996E+02  0.85029794377E+01 -0.38578348835E+02  0.42178261583E+02  0.00000000000E+00 0.  1.
         12    1    6    6    0    0  0.11481653780E+02  0.13184599203E+02 -0.91916459054E+03  0.91933084716E+03  0.00000000000E+00 0. -1.
         -5    1    3    3    0  503  0.35318653046E+01  0.10007615765E+02 -0.41559782789E+03  0.41575987179E+03  0.47000000000E+01 0.  1.
         11    1    4    4    0    0 -0.15680850481E+03  0.35232866840E+02 -0.49849967726E+03  0.52376730551E+03  0.00000000000E+00 0. -1.
        -12    1    4    4    0    0  0.55561523068E+01  0.16706745850E+02 -0.61553225331E+02  0.64021759847E+02  0.00000000000E+00 0.  1.
</event>
<event>
12    1  0.1030140E-001  0.2072263E+03  0.7818608E-02  0.1144170E+00
         21   -1    0    0  503  502  0.00000000000E+00  0.00000000000E+00  0.82817887587E+03  0.82817887587E+03  0.00000000000E+00 0.  1.
         21   -1    0    0  501  503 -0.00000000000E+00 -0.00000000000E+00 -0.64454413464E+02  0.64454413464E+02  0.00000000000E+00 0. -1.
          6    2    1    2  501    0  0.81168679696E+02 -0.77719614230E+02  0.58434392878E+03  0.62000044623E+03  0.17410925657E+03 0.  0.
         24    2    3    3    0    0  0.25423893700E+02 -0.10966047060E+03  0.45577148314E+03  0.47619271608E+03  0.79750014573E+02 0.  0.
         -6    2    1    2    0  502 -0.81168679696E+02  0.77719614230E+02  0.17938053362E+03  0.27263284310E+03  0.17182141396E+03 0.  0.
        -24    2    5    5    0    0  0.19900164089E+02  0.11828653315E+02  0.63060743291E+02  0.10497571222E+03  0.80667894733E+02 0.  0.
          5    1    3    3  501    0  0.55744785996E+02  0.31940856373E+02  0.12857244565E+03  0.14380773015E+03  0.47000000000E+01 0. -1.
        -11    1    4    4    0    0  0.17229519634E+02 -0.29559431089E+02  0.28881113466E+03  0.29083068583E+03  0.00000000000E+00 0.  1.
         12    1    4    4    0    0  0.81943740659E+01 -0.80101039514E+02  0.16696034847E+03  0.18536203025E+03  0.00000000000E+00 0. -1.
         -5    1    5    5    0  502 -0.10106884378E+03  0.65890960915E+02  0.11631979033E+03  0.16765713089E+03  0.47000000000E+01 0.  1.
         11    1    6    6    0    0 -0.19568312181E+02  0.26553869166E+02  0.51820133398E+01  0.33389819879E+02  0.00000000000E+00 0. -1.
        -12    1    6    6    0    0  0.39468476269E+02 -0.14725215851E+02  0.57878729951E+02  0.71585892337E+02  0.00000000000E+00 0.  1.
</event>
<event>
12    1  0.1030140E-001  0.2203619E+03  0.7818608E-02  0.1133637E+00
         21   -1    0    0  501  502  0.00000000000E+00  0.00000000000E+00  0.14076265139E+04  0.14076265139E+04  0.00000000000E+00 0.  1.
         21   -1    0    0  502  503 -0.00000000000E+00 -0.00000000000E+00 -0.64789003410E+02  0.64789003410E+02  0.00000000000E+00 0.  1.
         -6    2    1    2    0  503  0.16789480236E+01 -0.13743814566E+03  0.16796011800E+03  0.27707396098E+03  0.17224202700E+03 0.  0.
        -24    2    3    3    0    0 -0.35869022902E+02 -0.45618798573E+02  0.24758017329E+02  0.10280527688E+03  0.81168367890E+02 0.  0.
          6    2    1    2  501    0 -0.16789480236E+01  0.13743814566E+03  0.11748773925E+04  0.11953415564E+04  0.17208278869E+03 0.  0.
         24    2    5    5    0    0  0.33262857181E+02  0.13696440108E+03  0.11185722081E+04  0.11289072431E+04  0.57983738961E+02 0.  0.
          5    1    5    5  501    0 -0.34941805205E+02  0.47374457883E+00  0.56305184439E+02  0.66434313270E+02  0.47000000000E+01 0. -1.
        -13    1    6    6    0    0  0.61765455806E+01  0.20395280383E+02  0.38913392296E+03  0.38971698343E+03  0.00000000000E+00 0.  1.
         14    1    6    6    0    0  0.27086311600E+02  0.11656912070E+03  0.72943828512E+03  0.73919025966E+03  0.00000000000E+00 0. -1.
         -5    1    3    3    0  503  0.37547970925E+02 -0.91819347085E+02  0.14320210067E+03  0.17426868409E+03  0.47000000000E+01 0.  1.
         13    1    4    4    0    0  0.34615764401E+01  0.21048080387E+02  0.11632135542E+02  0.24296311997E+02  0.00000000000E+00 0. -1.
        -14    1    4    4    0    0 -0.39330599342E+02 -0.66666878960E+02  0.13125881788E+02  0.78508964886E+02  0.00000000000E+00 0.  1.
</event>
<event>
12    1  0.1030140E-001  0.1973726E+03  0.7818608E-02  0.1152333E+00
         21   -1    0    0  503  502  0.00000000000E+00  0.00000000000E+00  0.87410425778E+03  0.87410425778E+03  0.00000000000E+00 0. -1.
         21   -1    0    0  501  503 -0.00000000000E+00 -0.00000000000E+00 -0.64577014184E+02  0.64577014184E+02  0.00000000000E+00 0. -1.
          6    2    1    2  501    0  0.92506414768E+02 -0.25169546716E+02  0.14224189756E+03  0.24328724276E+03  0.17252530890E+03 0.  0.
         24    2    3    3    0    0  0.96041093674E+02 -0.63764598917E+02  0.60655067293E+02  0.15284072330E+03  0.79946443075E+02 0.  0.
         -6    2    1    2    0  502 -0.92506414768E+02  0.25169546716E+02  0.66728534603E+03  0.69539402920E+03  0.17062291747E+03 0.  0.
        -24    2    5    5    0    0 -0.76734454456E+00  0.31999051848E+02  0.46386526491E+03  0.47209038268E+03  0.81693434830E+02 0.  0.
          5    1    3    3  501    0 -0.35346789059E+01  0.38595052202E+02  0.81586830269E+02  0.90446519462E+02  0.47000000000E+01 0. -1.
        -13    1    4    4    0    0  0.83740679858E+02 -0.91961995377E+01  0.39381165605E+02  0.92994342588E+02  0.00000000000E+00 0.  1.
         14    1    4    4    0    0  0.12300413817E+02 -0.54568399380E+02  0.21273901688E+02  0.59846380709E+02  0.00000000000E+00 0. -1.
         -5    1    5    5    0  502 -0.91739070224E+02 -0.68295051322E+01  0.20342008113E+03  0.22330364652E+03  0.47000000000E+01 0.  1.
         11    1    6    6    0    0  0.35720437649E+02  0.28350804811E+02  0.17248862615E+03  0.17841536916E+03  0.00000000000E+00 0. -1.
        -12    1    6    6    0    0 -0.36487782194E+02  0.36482470372E+01  0.29137663875E+03  0.29367501352E+03  0.00000000000E+00 0.  1.
</event>
<event>
12    1  0.1030140E-001  0.1971108E+03  0.7818608E-02  0.1152407E+00
         21   -1    0    0  501  502  0.00000000000E+00  0.00000000000E+00  0.19557594869E+03  0.19557594869E+03  0.00000000000E+00 0. -1.
         21   -1    0    0  502  503 -0.00000000000E+00 -0.00000000000E+00 -0.19850322670E+03  0.19850322670E+03  0.00000000000E+00 0. -1.
         -6    2    1    2    0  503 -0.25299729365E+02  0.93200321445E+02 -0.14092467415E+02  0.19761395589E+03  0.17183219052E+03 0.  0.
        -24    2    3    3    0    0  0.31170023829E+02 -0.15055764122E+01  0.63092983882E+01  0.85380439669E+02  0.79222314319E+02 0.  0.
          6    2    1    2  501    0  0.25299729365E+02 -0.93200321445E+02  0.11165189412E+02  0.19646521950E+03  0.17072652048E+03 0.  0.
         24    2    5    5    0    0  0.49615651039E+02  0.17462872518E+01  0.23927349748E+02  0.97515306485E+02  0.80448459188E+02 0.  0.
          5    1    5    5  501    0 -0.24315921674E+02 -0.94946608697E+02 -0.12762160336E+02  0.98949913018E+02  0.47000000000E+01 0. -1.
        -11    1    6    6    0    0 -0.15941374327E+02  0.10594321510E+02 -0.11646282955E+02  0.22405422789E+02  0.00000000000E+00 0.  1.
         12    1    6    6    0    0  0.65557025366E+02 -0.88480342582E+01  0.35573632704E+02  0.75109883696E+02  0.00000000000E+00 0. -1.
         -5    1    3    3    0  503 -0.56469753194E+02  0.94705897857E+02 -0.20401765803E+02  0.11223351622E+03  0.47000000000E+01 0.  1.
         11    1    4    4    0    0  0.62958958816E+01  0.35126244854E+02  0.17446558871E+02  0.39722459628E+02  0.00000000000E+00 0. -1.
        -12    1    4    4    0    0  0.24874127948E+02 -0.36631821266E+02 -0.11137260482E+02  0.45657980041E+02  0.00000000000E+00 0.  1.
</event>
<event>
12    1  0.1030140E-001  0.2085694E+03  0.7818608E-02  0.1142864E+00
         21   -1    0    0  501  502  0.00000000000E+00  0.00000000000E+00  0.41613036021E+03  0.41613036021E+03  0.00000000000E+00 0. -1.
         21   -1    0    0  502  503 -0.00000000000E+00 -0.00000000000E+00 -0.36829982434E+03  0.36829982434E+03  0.00000000000E+00 0. -1.
         -6    2    1    2    0  503 -0.54263497060E+02  0.10356036491E+03 -0.30824127822E+03  0.37217453586E+03  0.17271920348E+03 0.  0.
        -24    2    3    3    0    0 -0.52694709236E+01 -0.11229211812E+02 -0.96644012690E+02  0.12646626514E+03  0.80621265853E+02 0.  0.
          6    2    1    2  501    0  0.54263497060E+02 -0.10356036491E+03  0.35607181408E+03  0.41225564869E+03  0.17175071121E+03 0.  0.
         24    2    5    5    0    0  0.17011398862E+02 -0.13441710246E+03  0.25048113758E+03  0.29601736740E+03  0.80796883581E+02 0.  0.
          5    1    5    5  501    0  0.37252098198E+02  0.30856737553E+02  0.10559067650E+03  0.11623828129E+03  0.47000000000E+01 0. -1.
        -11    1    6    6    0    0  0.20027636498E+02 -0.47139798760E+02  0.31166270197E+02  0.59955010206E+02  0.00000000000E+00 0.  1.
         12    1    6    6    0    0 -0.30162376363E+01 -0.87277303703E+02  0.21931486738E+03  0.23606235720E+03  0.00000000000E+00 0. -1.
         -5    1    3    3    0  503 -0.48994026136E+02  0.11478957672E+03 -0.21159726553E+03  0.24570827072E+03  0.47000000000E+01 0.  1.
         13    1    4    4    0    0  0.11547904798E+02 -0.19188037630E+02 -0.10405601505E+03  0.10643866385E+03  0.00000000000E+00 0. -1.
        -14    1    4    4    0    0 -0.16817375721E+02  0.79588258179E+01  0.74120023603E+01  0.20027601293E+02  0.00000000000E+00 0.  1.
</event>
<event>
12    1  0.1030140E-001  0.1992152E+03  0.7818608E-02  0.1150846E+00
         21   -1    0    0  503  502  0.00000000000E+00  0.00000000000E+00  0.39591653238E+03  0.39591653238E+03  0.00000000000E+00 0. -1.
         21   -1    0    0  501  503 -0.00000000000E+00 -0.00000000000E+00 -0.10591755621E+03  0.10591755621E+03  0.00000000000E+00 0.  1.
          6    2    1    2  501    0 -0.97494729617E+02  0.43836360144E+01  0.20748900485E+03  0.28620803644E+03  0.17128606020E+03 0.  0.
         24    2    3    3    0    0 -0.64826708543E+02  0.67954640059E+02  0.10720340759E+03  0.16296939325E+03  0.79032381281E+02 0.  0.
         -6    2    1    2    0  502  0.97494729617E+02 -0.43836360144E+01  0.82509971312E+02  0.21562605215E+03  0.17367285463E+03 0.  0.
        -24    2    5    5    0    0  0.47208995518E+02  0.60976239130E+02  0.70783768810E+02  0.13219846584E+03  0.80742191250E+02 0.  0.
          5    1    3    3  501    0 -0.32668021073E+02 -0.63571004045E+02  0.10028559726E+03  0.12323864319E+03  0.47000000000E+01 0. -1.
        -11    1    4    4    0    0  0.12028036382E+02  0.38154851468E+02  0.29693151023E+02  0.49821175894E+02  0.00000000000E+00 0.  1.
         12    1    4    4    0    0 -0.76854744925E+02  0.29799788591E+02  0.77510256568E+02  0.11314821736E+03  0.00000000000E+00 0. -1.
         -5    1    5    5    0  502  0.50285734099E+02 -0.65359875145E+02  0.11726202502E+02  0.83427586312E+02  0.47000000000E+01 0.  1.
         11    1    6    6    0    0  0.66538278593E+02  0.32559706268E+02  0.62317302322E+02  0.96803528649E+02  0.00000000000E+00 0. -1.
        -12    1    6    6    0    0 -0.19329283075E+02  0.28416532862E+02  0.84664664884E+01  0.35394937193E+02  0.00000000000E+00 0.  1.
</event>
<event>
12    1  0.1030140E-001  0.2696342E+03  0.7818608E-02  0.1101652E+00
         21   -1    0    0  501  502  0.00000000000E+00  0.00000000000E+00  0.35851300493E+03  0.35851300493E+03  0.00000000000E+00 0. -1.
         21   -1    0    0  502  503 -0.00000000000E+00 -0.00000000000E+00 -0.11795024612E+04  0.11795024612E+04  0.00000000000E+00 0. -1.
         -6    2    1    2    0  503  0.18746420188E+03 -0.81504927162E+02 -0.11104370926E+04  0.11424367139E+04  0.17408396927E+03 0.  0.
        -24    2    3    3    0    0  0.79905726029E+02 -0.10327738491E+03 -0.76401805699E+03  0.77902083103E+03  0.78094305051E+02 0.  0.
          6    2    1    2  501    0 -0.18746420188E+03  0.81504927162E+02  0.28944763638E+03  0.39557875226E+03  0.17583155263E+03 0.  0.
         24    2    5    5    0    0 -0.15591227818E+03 -0.65593357131E+01  0.19863324995E+03  0.26511733625E+03  0.80500749214E+02 0.  0.
          5    1    5    5  501    0 -0.31551923699E+02  0.88064262875E+02  0.90814386421E+02  0.13046141600E+03  0.47000000000E+01 0. -1.
        -11    1    6    6    0    0 -0.22927637657E+02 -0.23037884333E+02  0.79223042294E+02  0.85631250799E+02  0.00000000000E+00 0.  1.
         12    1    6    6    0    0 -0.13298464052E+03  0.16478548620E+02  0.11941020766E+03  0.17948608546E+03  0.00000000000E+00 0. -1.
         -5    1    3    3    0  503  0.10755847585E+03  0.21772457752E+02 -0.34641903565E+03  0.36341588285E+03  0.47000000000E+01 0.  1.
         13    1    4    4    0    0  0.52217389038E+02 -0.15279232758E+02 -0.18996974488E+03  0.19760722315E+03  0.00000000000E+00 0. -1.
        -14    1    4    4    0    0  0.27688336991E+02 -0.87998152156E+02 -0.57404831211E+03  0.58141360787E+03  0.00000000000E+00 0.  1.
</event>
<event>
12    1  0.1030140E-001  0.1763817E+03  0.7818608E-02  0.1171759E+00
         21   -1    0    0  501  502  0.00000000000E+00  0.00000000000E+00  0.19687954879E+03  0.19687954879E+03  0.00000000000E+00 0.  1.
         21   -1    0    0  502  503 -0.00000000000E+00 -0.00000000000E+00 -0.19605159157E+03  0.19605159157E+03  0.00000000000E+00 0. -1.
         -6    2    1    2    0  503 -0.17757427621E+02 -0.28721532603E+02 -0.87765912221E+02  0.19554982204E+03  0.17145443966E+03 0.  0.
        -24    2    3    3    0    0 -0.24739055890E+02 -0.48850309086E+02  0.91602263592E+01  0.96198540634E+02  0.78561287471E+02 0.  0.
          6    2    1    2  501    0  0.17757427621E+02  0.28721532603E+02  0.88593869438E+02  0.19738131832E+03  0.17311920301E+03 0.  0.
         24    2    5    5    0    0  0.69296613334E+01  0.86966147207E+02  0.63753072329E+02  0.13296989966E+03  0.77494574115E+02 0.  0.
          5    1    5    5  501    0  0.10827766287E+02 -0.58244614604E+02  0.24840797109E+02  0.64411418663E+02  0.47000000000E+01 0. -1.
        -13    1    6    6    0    0  0.11462212913E+02  0.52774536399E+02  0.78644521412E+02  0.95401754518E+02  0.00000000000E+00 0.  1.
         14    1    6    6    0    0 -0.45325515794E+01  0.34191610808E+02 -0.14891449083E+02  0.37568145140E+02  0.00000000000E+00 0. -1.
         -5    1    3    3    0  503  0.69816282689E+01  0.20128776483E+02 -0.96926138580E+02  0.99351281401E+02  0.47000000000E+01 0.  1.
         13    1    4    4    0    0 -0.25208191930E+02 -0.25599854570E+02 -0.32526366953E+02  0.48464110861E+02  0.00000000000E+00 0. -1.
        -14    1    4    4    0    0  0.46913603998E+00 -0.23250454516E+02  0.41686593312E+02  0.47734429773E+02  0.00000000000E+00 0.  1.
</event>
<event>
12    1  0.1030140E-001  0.1752873E+03  0.7818608E-02  0.1172690E+00
         21   -1    0    0  503  502  0.00000000000E+00  0.00000000000E+00  0.27680975900E+03  0.27680975900E+03  0.00000000000E+00 0. -1.
         21   -1    0    0  501  503 -0.00000000000E+00 -0.00000000000E+00 -0.14701583190E+03  0.14701583190E+03  0.00000000000E+00 0. -1.
          6    2    1    2  501    0  0.51790308268E+00  0.36707826750E+02 -0.40753612646E+02  0.17996245346E+03  0.17139981022E+03 0.  0.
         24    2    3    3    0    0  0.56496994703E+02  0.58103948693E+02 -0.23312544137E+02  0.11737065205E+03  0.81635874373E+02 0.  0.
         -6    2    1    2    0  502 -0.51790308268E+00 -0.36707826750E+02  0.17054753975E+03  0.24386313744E+03  0.17039669516E+03 0.  0.
        -24    2    5    5    0    0  0.62396258004E+02 -0.48689269902E+02  0.87133600795E+02  0.13859337988E+03  0.73156835242E+02 0.  0.
          5    1    3    3  501    0 -0.55979091620E+02 -0.21396121943E+02 -0.17441068508E+02  0.62591801408E+02  0.47000000000E+01 0. -1.
        -11    1    4    4    0    0  0.20413193800E+01 -0.58340559124E+01  0.21365221191E+02  0.22241309982E+02  0.00000000000E+00 0.  1.
         12    1    4    4    0    0  0.54455675323E+02  0.63938004605E+02 -0.44677765328E+02  0.95129342069E+02  0.00000000000E+00 0. -1.
         -5    1    5    5    0  502 -0.62914161087E+02  0.11981443152E+02  0.83413938952E+02  0.10526975756E+03  0.47000000000E+01 0.  1.
         13    1    6    6    0    0  0.67307209461E+02 -0.11926297966E+02  0.42212258659E+02  0.80339105109E+02  0.00000000000E+00 0. -1.
        -14    1    6    6    0    0 -0.49109514573E+01 -0.36762971936E+02  0.44921342136E+02  0.58254274771E+02  0.00000000000E+00 0.  1.
</event>
<event>
12    1  0.1030140E-001  0.2408252E+03  0.7818608E-02  0.1119724E+00
         21   -1    0    0  501  502  0.00000000000E+00  0.00000000000E+00  0.65797444174E+03  0.65797444174E+03  0.00000000000E+00 0. -1.
         21   -1    0    0  502  503 -0.00000000000E+00 -0.00000000000E+00 -0.10618134751E+03  0.10618134751E+03  0.00000000000E+00 0. -1.
         -6    2    1    2    0  503 -0.15324203477E+03 -0.70009022746E+02  0.11254576054E+03  0.26322165029E+03  0.16803185555E+03 0.  0.
        -24    2    3    3    0    0 -0.10498077565E+03 -0.45044891176E+02  0.14541454188E+01  0.13946465474E+03  0.79989186188E+02 0.  0.
          6    2    1    2  501    0  0.15324203477E+03  0.70009022746E+02  0.43924733369E+03  0.50093413895E+03  0.17208255847E+03 0.  0.
         24    2    5    5    0    0  0.12925809600E+03  0.10634710632E+03  0.28120504642E+03  0.33693676031E+03  0.80204363417E+02 0.  0.
          5    1    5    5  501    0  0.23983938767E+02 -0.36338083576E+02  0.15804228727E+03  0.16399737864E+03  0.47000000000E+01 0. -1.
        -13    1    6    6    0    0  0.86055977496E+01  0.47870500721E+02  0.10319166467E+03  0.11407962486E+03  0.00000000000E+00 0.  1.
         14    1    6    6    0    0  0.12065249825E+03  0.58476605601E+02  0.17801338176E+03  0.22285713545E+03  0.00000000000E+00 0. -1.
         -5    1    3    3    0  503 -0.48261259123E+02 -0.24964131571E+02  0.11109161512E+03  0.12375699555E+03  0.47000000000E+01 0.  1.
         13    1    4    4    0    0 -0.47222416100E+02  0.20548181826E+02 -0.54881785178E+01  0.51790968924E+02  0.00000000000E+00 0. -1.
        -14    1    4    4    0    0 -0.57758359545E+02 -0.65593073001E+02  0.69423239366E+01  0.87673685817E+02  0.00000000000E+00 0.  1.
</event>
<event>
12    1  0.1030140E-001  0.1763105E+03  0.7818608E-02  0.1172360E+00
         21   -1    0    0  501  502  0.00000000000E+00  0.00000000000E+00  0.83243749181E+02  0.83243749181E+02  0.00000000000E+00 0.  1.
         21   -1    0    0  502  503 -0.00000000000E+00 -0.00000000000E+00 -0.40434116258E+03  0.40434116258E+03  0.00000000000E+00 0.  1.
         -6    2    1    2    0  503  0.19150062659E+02  0.33128130197E+02 -0.83504298892E+02  0.19172029095E+03  0.16828399841E+03 0.  0.
        -24    2    3    3    0    0  0.71568196621E+02  0.43365916260E+02 -0.73509979228E+02  0.13718177743E+03  0.80078171515E+02 0.  0.
          6    2    1    2  501    0 -0.19150062659E+02 -0.33128130197E+02 -0.23759311451E+03  0.29586462081E+03  0.17210807033E+03 0.  0.
         24    2    5    5    0    0  0.23575814193E+02 -0.81785188008E+02 -0.15737358204E+03  0.19266445987E+03  0.71473867823E+02 0.  0.
          5    1    5    5  501    0 -0.42725876852E+02  0.48657057811E+02 -0.80219532472E+02  0.10320016094E+03  0.47000000000E+01 0. -1.
        -13    1    6    6    0    0  0.45048623402E+02 -0.38378381697E+02 -0.62060895024E+02  0.85754494595E+02  0.00000000000E+00 0.  1.
         14    1    6    6    0    0 -0.21472809209E+02 -0.43406806311E+02 -0.95312687013E+02  0.10690996527E+03  0.00000000000E+00 0. -1.
         -5    1    3    3    0  503 -0.52418133962E+02 -0.10237786062E+02 -0.99943196641E+01  0.54538513521E+02  0.47000000000E+01 0.  1.
         13    1    4    4    0    0  0.35243872486E+02 -0.17809430711E+02 -0.46685436216E+02  0.61146024603E+02  0.00000000000E+00 0. -1.
        -14    1    4    4    0    0  0.36324324135E+02  0.61175346970E+02 -0.26824543012E+02  0.76035752831E+02  0.00000000000E+00 0.  1.
</event>
<event>
12    1  0.1030140E-001  0.1825424E+03  0.7818608E-02  0.1165747E+00
         21   -1    0    0  503  502  0.00000000000E+00  0.00000000000E+00  0.12113418541E+04  0.12113418541E+04  0.00000000000E+00 0.  1.
         21   -1    0    0  501  503 -0.00000000000E+00 -0.00000000000E+00 -0.61588184959E+02  0.61588184959E+02  0.00000000000E+00 0. -1.
          6    2    1    2  501    0 -0.37694383721E+02  0.45812343853E+02  0.98635177185E+02  0.20607868119E+03  0.17093825567E+03 0.  0.
         24    2    3    3    0    0 -0.40405908836E+02  0.42918646901E+02 -0.94730919302E+01  0.97795655278E+02  0.77457104257E+02 0.  0.
         -6    2    1    2    0  502  0.37694383721E+02 -0.45812343853E+02  0.10511184920E+04  0.10668513579E+04  0.17263284228E+03 0.  0.
        -24    2    5    5    0    0  0.33110301208E+00 -0.45293162866E+02  0.28719834912E+03  0.30200342597E+03  0.81679846523E+02 0.  0.
          5    1    3    3  501    0  0.27115251148E+01  0.28936969519E+01  0.10810826911E+03  0.10828302592E+03  0.47000000000E+01 0. -1.
        -11    1    4    4    0    0 -0.26384623559E+02  0.14460698349E+02  0.33081235324E+02  0.44717203486E+02  0.00000000000E+00 0.  1.
         12    1    4    4    0    0 -0.14021285277E+02  0.28457948553E+02 -0.42554327254E+02  0.53078451792E+02  0.00000000000E+00 0. -1.
         -5    1    5    5    0  502  0.37363280709E+02 -0.51918098725E+00  0.76392014286E+03  0.76484793192E+03  0.47000000000E+01 0.  1.
         11    1    6    6    0    0 -0.14516237084E+02  0.18929612038E+02  0.44235869277E+02  0.50257969335E+02  0.00000000000E+00 0. -1.
        -12    1    6    6    0    0  0.14847340096E+02 -0.64222774904E+02  0.24296247984E+03  0.25174545663E+03  0.00000000000E+00 0.  1.
</event>
<event>
12    1  0.1030140E-001  0.2139721E+03  0.7818608E-02  0.1138554E+00
         21   -1    0    0  501  502  0.00000000000E+00  0.00000000000E+00  0.52728138375E+03  0.52728138375E+03  0.00000000000E+00 0. -1.
         21   -1    0    0  502  503 -0.00000000000E+00 -0.00000000000E+00 -0.97044398444E+02  0.97044398444E+02  0.00000000000E+00 0. -1.
         -6    2    1    2    0  503  0.78475718311E+02  0.10037571733E+03  0.31715882188E+03  0.38231183517E+03  0.17128601234E+03 0.  0.
        -24    2    3    3    0    0  0.10947060346E+03  0.90093082719E+02  0.18188848325E+03  0.24307617166E+03  0.76824659555E+02 0.  0.
          6    2    1    2  501    0 -0.78475718311E+02 -0.10037571733E+03  0.11307816343E+03  0.24201394702E+03  0.17190217135E+03 0.  0.
         24    2    5    5    0    0 -0.11595019722E+02  0.12359277580E+02  0.56599297294E+02  0.99205826659E+02  0.79693910460E+02 0.  0.
          5    1    5    5  501    0 -0.66880698589E+02 -0.11273499491E+03  0.56478866133E+02  0.14280812036E+03  0.47000000000E+01 0. -1.
        -13    1    6    6    0    0 -0.26116298729E+02  0.41102602896E+02  0.28228809341E+02  0.56288104435E+02  0.00000000000E+00 0.  1.
         14    1    6    6    0    0  0.14521279007E+02 -0.28743325316E+02  0.28370487953E+02  0.42917722224E+02  0.00000000000E+00 0. -1.
         -5    1    3    3    0  503 -0.30994885152E+02  0.10282634610E+02  0.13527033863E+03  0.13923566351E+03  0.47000000000E+01 0.  1.
         11    1    4    4    0    0  0.37614760755E+02 -0.51684050161E+01  0.23070452898E+02  0.44427788983E+02  0.00000000000E+00 0. -1.
        -12    1    4    4    0    0  0.71855842709E+02  0.95261487735E+02  0.15881803035E+03  0.19864838268E+03  0.00000000000E+00 0.  1.
</event>
<event>
12    1  0.1030140E-001  0.1941865E+03  0.7818608E-02  0.1155779E+00
         21   -1    0    0  503  502  0.00000000000E+00  0.00000000000E+00  0.74782996670E+02  0.74782996670E+02  0.00000000000E+00 0. -1.
         21   -1    0    0  501  503 -0.00000000000E+00 -0.00000000000E+00 -0.54932049893E+03  0.54932049893E+03  0.00000000000E+00 0. -1.
          6    2    1    2  501    0  0.44796714921E+02 -0.70151944710E+02 -0.34052838992E+03  0.39200506418E+03  0.17544328138E+03 0.  0.
         24    2    3    3    0    0  0.23373230051E+02  0.18901119701E+02 -0.24419224674E+03  0.25899319828E+03  0.80895384171E+02 0.  0.
         -6    2    1    2    0  502 -0.44796714921E+02  0.70151944710E+02 -0.13400911234E+03  0.23209843142E+03  0.17024452610E+03 0.  0.
        -24    2    5    5    0    0 -0.73328049046E+02  0.46695405254E+02 -0.15096243276E+03  0.19118692517E+03  0.78773857356E+02 0.  0.
          5    1    3    3  501    0  0.21423484871E+02 -0.89053064411E+02 -0.96336143187E+02  0.13301186590E+03  0.47000000000E+01 0. -1.
        -13    1    4    4    0    0 -0.94404114049E+01  0.43056647857E+02 -0.10291531574E+03  0.11195784254E+03  0.00000000000E+00 0.  1.
         14    1    4    4    0    0  0.32813641456E+02 -0.24155528156E+02 -0.14127693100E+03  0.14703535574E+03  0.00000000000E+00 0. -1.
         -5    1    5    5    0  502  0.28531334125E+02  0.23456539456E+02  0.16953320427E+02  0.40911506251E+02  0.47000000000E+01 0.  1.
         13    1    6    6    0    0 -0.17030869231E+02 -0.14486920633E+02 -0.45539004408E+01  0.22817961903E+02  0.00000000000E+00 0. -1.
        -14    1    6    6    0    0 -0.56297179815E+02  0.61182325887E+02 -0.14640853232E+03  0.16836896327E+03  0.00000000000E+00 0.  1.
</event>
<event>
12    1  0.1030140E-001  0.1776824E+03  0.7818608E-02  0.1170384E+00
         21   -1    0    0  501  502  0.00000000000E+00  0.00000000000E+00  0.51259312711E+02  0.51259312711E+02  0.00000000000E+00 0.  1.
         21   -1    0    0  502  503 -0.00000000000E+00 -0.00000000000E+00 -0.62498167610E+03  0.62498167610E+03  0.00000000000E+00 0. -1.
         -6    2    1    2    0  503  0.19627663236E+02  0.36048584093E+02 -0.33560074858E+03  0.37913338910E+03  0.17155033868E+03 0.  0.
        -24    2    3    3    0    0  0.70887403722E+02  0.15217684341E+02 -0.14217409978E+03  0.17789361707E+03  0.78587927978E+02 0.  0.
          6    2    1    2  501    0 -0.19627663236E+02 -0.36048584093E+02 -0.23812161481E+03  0.29710759972E+03  0.17287647842E+03 0.  0.
         24    2    5    5    0    0 -0.52408399710E+02  0.26607815680E+02 -0.99368922864E+02  0.14130387499E+03  0.81473836538E+02 0.  0.
          5    1    5    5  501    0  0.32780736474E+02 -0.62656399772E+02 -0.13875269195E+03  0.15580372473E+03  0.47000000000E+01 0. -1.
        -11    1    6    6    0    0 -0.15091101975E+02 -0.92925452044E+01  0.99615865323E+01  0.20330419608E+02  0.00000000000E+00 0.  1.
         12    1    6    6    0    0 -0.37317297736E+02  0.35900360884E+02 -0.10933050940E+03  0.12097345538E+03  0.00000000000E+00 0. -1.
         -5    1    3    3    0  503 -0.51259740486E+02  0.20830899752E+02 -0.19342664880E+03  0.20123977203E+03  0.47000000000E+01 0.  1.
         13    1    4    4    0    0  0.72182265262E+02  0.35586873049E+02 -0.13314067440E+03  0.15557359716E+03  0.00000000000E+00 0. -1.
        -14    1    4    4    0    0 -0.12948615404E+01 -0.20369188708E+02 -0.90334253784E+01  0.22320019917E+02  0.00000000000E+00 0.  1.
</event>
<event>
12    1  0.1030140E-001  0.1974883E+03  0.7818608E-02  0.1152100E+00
         21   -1    0    0  501  502  0.00000000000E+00  0.00000000000E+00  0.31690946690E+03  0.31690946690E+03  0.00000000000E+00 0. -1.
         21   -1    0    0  502  503 -0.00000000000E+00 -0.00000000000E+00 -0.19784654794E+03  0.19784654794E+03  0.00000000000E+00 0.  1.
         -6    2    1    2    0  503  0.59821203823E+02 -0.74864960189E+02 -0.99288891284E+02  0.22104274820E+03  0.17267968586E+03 0.  0.
        -24    2    3    3    0    0  0.60193555836E+02 -0.31026750486E+02  0.82072625912E+01  0.10485565609E+03  0.79633071301E+02 0.  0.
          6    2    1    2  501    0 -0.59821203823E+02  0.74864960189E+02  0.21835181024E+03  0.29371326663E+03  0.17148361808E+03 0.  0.
         24    2    5    5    0    0  0.17766131123E+02  0.18154597429E+02  0.86823074603E+02  0.13074775468E+03  0.94400764013E+02 0.  0.
          5    1    5    5  501    0 -0.77587334947E+02  0.56710362760E+02  0.13152873564E+03  0.16296551196E+03  0.47000000000E+01 0. -1.
        -13    1    6    6    0    0 -0.21493349780E+02  0.67264100707E+01 -0.10748639658E+02  0.24954797769E+02  0.00000000000E+00 0.  1.
         14    1    6    6    0    0  0.39259480903E+02  0.11428187358E+02  0.97571714262E+02  0.10579295691E+03  0.00000000000E+00 0. -1.
         -5    1    3    3    0  503 -0.37235201293E+00 -0.43838209703E+02 -0.10749615387E+03  0.11618709211E+03  0.47000000000E+01 0.  1.
         11    1    4    4    0    0  0.30226644564E+02 -0.56767007556E+02  0.11025633102E+02  0.65251113199E+02  0.00000000000E+00 0. -1.
        -12    1    4    4    0    0  0.29966911272E+02  0.25740257070E+02 -0.28183705104E+01  0.39604542890E+02  0.00000000000E+00 0.  1.
</event>
<event>
12    1  0.1030140E-001  0.1973738E+03  0.7818608E-02  0.1152150E+00
         21   -1    0    0  501  502  0.00000000000E+00  0.00000000000E+00  0.55013926109E+02  0.55013926109E+02  0.00000000000E+00 0.  1.
         21   -1    0    0  502  503 -0.00000000000E+00 -0.00000000000E+00 -0.71245839545E+03  0.71245839545E+03  0.00000000000E+00 0. -1.
         -6    2    1    2    0  503  0.68800602216E+02  0.67388841953E+02 -0.29060345675E+03  0.35129299306E+03  0.17228354248E+03 0.  0.
        -24    2    3    3    0    0  0.85103328610E+02  0.23361670259E+02 -0.27574130422E+03  0.30182437358E+03  0.85301473949E+02 0.  0.
          6    2    1    2  501    0 -0.68800602216E+02 -0.67388841953E+02 -0.36684101259E+03  0.41617932850E+03  0.17134213162E+03 0.  0.
         24    2    5    5    0    0 -0.10929463013E+02 -0.48308931473E+02 -0.80395265705E+02  0.12328622915E+03  0.79264680213E+02 0.  0.
          5    1    5    5  501    0 -0.57871139203E+02 -0.19079910481E+02 -0.28644574689E+03  0.29289309935E+03  0.47000000000E+01 0. -1.
        -11    1    6    6    0    0 -0.24650130620E+02  0.45608039358E+00 -0.66251751307E+02  0.70690391852E+02  0.00000000000E+00 0.  1.
         12    1    6    6    0    0  0.13720667607E+02 -0.48765011866E+02 -0.14143514398E+02  0.52595837301E+02  0.00000000000E+00 0. -1.
         -5    1    3    3    0  503 -0.16302726394E+02  0.44027171695E+02 -0.14862152537E+02  0.49468619481E+02  0.47000000000E+01 0.  1.
         11    1    4    4    0    0 -0.81167138283E+01 -0.14196695097E+02 -0.14272464280E+02  0.21705539193E+02  0.00000000000E+00 0. -1.
        -12    1    4    4    0    0  0.93220042438E+02  0.37558365355E+02 -0.26146883994E+03  0.28011883439E+03  0.00000000000E+00 0.  1.
</event>
<event>
12    1  0.1030140E-001  0.1739393E+03  0.7818608E-02  0.1174349E+00
         21   -1    0    0  501  502  0.00000000000E+00  0.00000000000E+00  0.72378309897E+03  0.72378309897E+03  0.00000000000E+00 0.  1.
         21   -1    0    0  502  503 -0.00000000000E+00 -0.00000000000E+00 -0.70488921447E+02  0.70488921447E+02  0.00000000000E+00 0.  1.
         -6    2    1    2    0  503 -0.17000075371E+02  0.15888360675E+02  0.69836287153E+02  0.18543872830E+03  0.17020273906E+03 0.  0.
        -24    2    3    3    0    0 -0.21235680510E+02 -0.43166800045E+02  0.99180791724E-01  0.93837383538E+02  0.80567474576E+02 0.  0.
          6    2    1    2  501    0  0.17000075371E+02 -0.15888360675E+02  0.58345789037E+03  0.60883329211E+03  0.17237582541E+03 0.  0.
         24    2    5    5    0    0  0.75994264882E+02  0.97664154396E+01  0.35088957364E+03  0.36748583744E+03  0.77793551548E+02 0.  0.
          5    1    5    5  501    0 -0.58994189510E+02 -0.25654776115E+02  0.23256831672E+03  0.24134745467E+03  0.47000000000E+01 0. -1.
        -11    1    6    6    0    0  0.10058226317E+02 -0.55916837769E+01  0.21838191752E+03  0.21868492573E+03  0.00000000000E+00 0.  1.
         12    1    6    6    0    0  0.65936038565E+02  0.15358099216E+02  0.13250765613E+03  0.14880091171E+03  0.00000000000E+00 0. -1.
         -5    1    3    3    0  503  0.42356051387E+01  0.59055160721E+02  0.69737106361E+02  0.91601344763E+02  0.47000000000E+01 0.  1.
         13    1    4    4    0    0 -0.41563932050E+02 -0.40354640471E+02  0.23673665926E+02  0.62581945587E+02  0.00000000000E+00 0. -1.
        -14    1    4    4    0    0  0.20328251540E+02 -0.28121595740E+01 -0.23574485135E+02  0.31255437951E+02  0.00000000000E+00 0.  1.
</event>
<event>
12    1  0.1030140E-001  0.1879583E+03  0.7818608E-02  0.1162600E+00
         21   -1    0    0  503  502  0.00000000000E+00  0.00000000000E+00  0.47540197446E+02  0.47540197446E+02  0.00000000000E+00 0. -1.
         21   -1    0    0  501  503 -0.00000000000E+00 -0.00000000000E+00 -0.71981926650E+03  0.71981926650E+03  0.00000000000E+00 0. -1.
          6    2    1    2  501    0 -0.42598862084E+02 -0.26417419797E+02 -0.29028944561E+03  0.34582694473E+03  0.18115123612E+03 0.  0.
         24    2    3    3    0    0 -0.55789263005E+02 -0.91304048645E+01 -0.64176545128E+02  0.11862227637E+03  0.82199813540E+02 0.  0.
         -6    2    1    2    0  502  0.42598862084E+02  0.26417419797E+02 -0.38198962345E+03  0.42153251922E+03  0.17105861340E+03 0.  0.
        -24    2    5    5    0    0 -0.25339574327E+02  0.14050637304E+02 -0.31313167724E+03  0.32390017209E+03  0.77590977246E+02 0.  0.
          5    1    3    3  501    0  0.13190400921E+02 -0.17287014932E+02 -0.22611290048E+03  0.22720466836E+03  0.47000000000E+01 0. -1.
        -11    1    4    4    0    0 -0.28847071347E+02 -0.40330675659E+02 -0.59009256231E+02  0.77076645265E+02  0.00000000000E+00 0.  1.
         12    1    4    4    0    0 -0.26942191658E+02  0.31200270795E+02 -0.51672888974E+01  0.41545631101E+02  0.00000000000E+00 0. -1.
         -5    1    5    5    0  502  0.67938436411E+02  0.12366782493E+02 -0.68857946205E+02  0.97632347134E+02  0.47000000000E+01 0.  1.
         13    1    6    6    0    0 -0.28878485738E+02 -0.20099609541E+02 -0.69884420189E+02  0.78241890490E+02  0.00000000000E+00 0. -1.
        -14    1    6    6    0    0  0.35389114111E+01  0.34150246845E+02 -0.24324725706E+03  0.24565828160E+03  0.00000000000E+00 0.  1.
</event>
<event>
12    1  0.1030140E-001  0.2197314E+03  0.7818608E-02  0.1134677E+00
         21   -1    0    0  503  502  0.00000000000E+00  0.00000000000E+00  0.98951309362E+03  0.98951309362E+03  0.00000000000E+00 0.  1.
         21   -1    0    0  501  503 -0.00000000000E+00 -0.00000000000E+00 -0.27337883963E+03  0.27337883963E+03  0.00000000000E+00 0. -1.
          6    2    1    2  501    0 -0.13035995585E+03  0.21536600533E+02 -0.21469068882E+03  0.30720345732E+03  0.17556858794E+03 0.  0.
         24    2    3    3    0    0 -0.15785792499E+03  0.25632996006E+02 -0.21356862586E+03  0.27898524001E+03  0.81517060958E+02 0.  0.
         -6    2    1    2    0  502  0.13035995585E+03 -0.21536600533E+02  0.93082494281E+03  0.95568847592E+03  0.17160374585E+03 0.  0.
        -24    2    5    5    0    0  0.15782059394E+03 -0.39501501923E+02  0.76428002768E+03  0.78587645313E+03  0.83726521195E+02 0.  0.
          5    1    3    3  501    0  0.27497969142E+02 -0.40963954724E+01 -0.11220629667E+01  0.28218217310E+02  0.47000000000E+01 0. -1.
        -11    1    4    4    0    0 -0.15178686034E+03 -0.97307858064E+00 -0.18756610867E+03  0.24129078510E+03  0.00000000000E+00 0.  1.
         12    1    4    4    0    0 -0.60710646529E+01  0.26606074587E+02 -0.26002517185E+02  0.37694454909E+02  0.00000000000E+00 0. -1.
         -5    1    5    5    0  502 -0.27460638091E+02  0.17964901390E+02  0.16654491514E+03  0.16981202279E+03  0.47000000000E+01 0.  1.
         13    1    6    6    0    0 -0.82533376363E+01  0.24983062043E+01  0.80697906997E+02  0.81157324436E+02  0.00000000000E+00 0. -1.
        -14    1    6    6    0    0  0.16607393157E+03 -0.41999808128E+02  0.68358212068E+03  0.70471912869E+03  0.00000000000E+00 0.  1.
</event>
<event>
12    1  0.1030140E-001  0.1902826E+03  0.7818608E-02  0.1158241E+00
         21   -1    0    0  501  502  0.00000000000E+00  0.00000000000E+00  0.16038982422E+03  0.16038982422E+03  0.00000000000E+00 0.  1.
         21   -1    0    0  502  503 -0.00000000000E+00 -0.00000000000E+00 -0.77309226618E+03  0.77309226618E+03  0.00000000000E+00 0.  1.
         -6    2    1    2    0  503 -0.36649975516E+01 -0.81396978134E+02 -0.69918007549E+03  0.72461040382E+03  0.17195510783E+03 0.  0.
        -24    2    3    3    0    0  0.25421055012E+02 -0.11105034613E+00 -0.17619446086E+03  0.19452602976E+03  0.78419677685E+02 0.  0.
          6    2    1    2  501    0  0.36649975516E+01  0.81396978134E+02  0.86477633524E+02  0.20887168658E+03  0.17178504038E+03 0.  0.
         24    2    5    5    0    0 -0.37297537586E+01  0.11616941763E+03  0.96949133002E+02  0.17151466319E+03  0.80677758056E+02 0.  0.
          5    1    5    5  501    0  0.73947513102E+01 -0.34772439493E+02 -0.10471499478E+02  0.37357023390E+02  0.47000000000E+01 0. -1.
        -11    1    6    6    0    0  0.27123205046E+02  0.34961756881E+02  0.42190621598E+01  0.44449895182E+02  0.00000000000E+00 0.  1.
         12    1    6    6    0    0 -0.30852958805E+02  0.81207660746E+02  0.92730070842E+02  0.12706476801E+03  0.00000000000E+00 0. -1.
         -5    1    3    3    0  503 -0.29086052564E+02 -0.81285927788E+02 -0.52298561463E+03  0.53008437406E+03  0.47000000000E+01 0.  1.
         11    1    4    4    0    0  0.42550684915E+02 -0.27116156868E+02 -0.10833453686E+03  0.11950823665E+03  0.00000000000E+00 0. -1.
        -12    1    4    4    0    0 -0.17129629903E+02  0.27005106522E+02 -0.67859923996E+02  0.75017793113E+02  0.00000000000E+00 0.  1.
</event>
<event>
12    1  0.1030140E-001  0.2502873E+03  0.7818608E-02  0.1113368E+00
         21   -1    0    0  501  502  0.00000000000E+00  0.00000000000E+00  0.11246456003E+03  0.11246456003E+03  0.00000000000E+00 0. -1.
         21   -1    0    0  502  503 -0.00000000000E+00 -0.00000000000E+00 -0.65464155096E+03  0.65464155096E+03  0.00000000000E+00 0.  1.
         -6    2    1    2    0  503  0.18103018997E+03  0.94555913924E+01 -0.12109698683E+03  0.27804352048E+03  0.17257572590E+03 0.  0.
        -24    2    3    3    0    0  0.14482468337E+03  0.36775412108E+02 -0.24378458277E+02  0.17111468864E+03  0.79745266899E+02 0.  0.
          6    2    1    2  501    0 -0.18103018997E+03 -0.94555913924E+01 -0.42108000410E+03  0.48906259051E+03  0.17033058942E+03 0.  0.
         24    2    5    5    0    0 -0.12394618121E+03 -0.53235517028E+02 -0.36709428495E+03  0.39899698211E+03  0.79017096732E+02 0.  0.
          5    1    5    5  501    0 -0.57084008763E+02  0.43779925635E+02 -0.53985719148E+02  0.90065608403E+02  0.47000000000E+01 0. -1.
        -11    1    6    6    0    0 -0.11430759201E+03 -0.58361470966E+02 -0.24651326378E+03  0.27792278802E+03  0.00000000000E+00 0.  1.
         12    1    6    6    0    0 -0.96385892003E+01  0.51259539382E+01 -0.12058102117E+03  0.12107419408E+03  0.00000000000E+00 0. -1.
         -5    1    3    3    0  503  0.36205506603E+02 -0.27319820716E+02 -0.96718528555E+02  0.10692883184E+03  0.47000000000E+01 0.  1.
         11    1    4    4    0    0  0.22662686392E+02  0.22376598218E+02  0.23013946574E+02  0.39293144939E+02  0.00000000000E+00 0. -1.
        -12    1    4    4    0    0  0.12216199697E+03  0.14398813890E+02 -0.47392404851E+02  0.13182154370E+03  0.00000000000E+00 0.  1.
</event>
<event>
12    1  0.1030140E-001  0.2043688E+03  0.7818608E-02  0.1146210E+00
         21   -1    0    0  501  502  0.00000000000E+00  0.00000000000E+00  0.66168449712E+03  0.66168449712E+03  0.00000000000E+00 0.  1.
         21   -1    0    0  502  503 -0.00000000000E+00 -0.00000000000E+00 -0.67727925639E+02  0.67727925639E+02  0.00000000000E+00 0.  1.
         -6    2    1    2    0  503  0.10978115871E+03  0.20737995452E+02  0.19990442644E+03  0.28551639227E+03  0.17051646044E+03 0.  0.
        -24    2    3    3    0    0  0.43317399445E+02  0.50955906104E+02  0.18299416453E+03  0.21042577782E+03  0.79493661752E+02 0.  0.
          6    2    1    2  501    0 -0.10978115871E+03 -0.20737995452E+02  0.39405214504E+03  0.44389603049E+03  0.17112751272E+03 0.  0.
         24    2    5    5    0    0 -0.51668979026E+02 -0.76044870939E+02  0.20673439590E+03  0.24006790424E+03  0.80255731328E+02 0.  0.
          5    1    5    5  501    0 -0.58112179688E+02  0.55306875487E+02  0.18731774915E+03  0.20382812625E+03  0.47000000000E+01 0. -1.
        -13    1    6    6    0    0 -0.44196630498E+02  0.14098465862E+01  0.73823393241E+02  0.86053606574E+02  0.00000000000E+00 0.  1.
         14    1    6    6    0    0 -0.74723485275E+01 -0.77454717525E+02  0.13291100265E+03  0.15401429767E+03  0.00000000000E+00 0. -1.
         -5    1    3    3    0  503  0.66463759269E+02 -0.30217910653E+02  0.16910261911E+02  0.75090614448E+02  0.47000000000E+01 0.  1.
         13    1    4    4    0    0  0.28463302757E+02  0.52950757652E+02  0.54757324018E+02  0.81316092340E+02  0.00000000000E+00 0. -1.
        -14    1    4    4    0    0  0.14854096688E+02 -0.19948515480E+01  0.12823684051E+03  0.12910968548E+03  0.00000000000E+00 0.  1.
</event>
<event>
12    1  0.1030140E-001  0.2112475E+03  0.7818608E-02  0.1142200E+00
         21   -1    0    0  501  502  0.00000000000E+00  0.00000000000E+00  0.41331308892E+02  0.41331308892E+02  0.00000000000E+00 0.  1.
         21   -1    0    0  502  503 -0.00000000000E+00 -0.00000000000E+00 -0.11012968902E+04  0.11012968902E+04  0.00000000000E+00 0.  1.
         -6    2    1    2    0  503 -0.16051137995E+02  0.10684461332E+03 -0.65626027661E+03  0.68699296858E+03  0.17207085110E+03 0.  0.
        -24    2    3    3    0    0  0.87700925931E+01 -0.11796721774E+02 -0.29986041985E+03  0.31051613294E+03  0.79296407557E+02 0.  0.
          6    2    1    2  501    0  0.16051137995E+02 -0.10684461332E+03 -0.40370530475E+03  0.45563523056E+03  0.18152707737E+03 0.  0.
         24    2    5    5    0    0  0.17264462171E+02 -0.13480900831E+03 -0.39594710284E+03  0.42621144360E+03  0.80065947991E+02 0.  0.
          5    1    5    5  501    0 -0.12133241756E+01  0.27964394983E+02 -0.77582019030E+01  0.29423786961E+02  0.47000000000E+01 0. -1.
        -11    1    6    6    0    0 -0.49221113415E+01 -0.45196088756E+02 -0.47535260542E+02  0.65776246576E+02  0.00000000000E+00 0.  1.
         12    1    6    6    0    0  0.22186573512E+02 -0.89612919549E+02 -0.34841184230E+03  0.36043519702E+03  0.00000000000E+00 0. -1.
         -5    1    3    3    0  503 -0.24821230588E+02  0.11864133510E+03 -0.35639985675E+03  0.37647683564E+03  0.47000000000E+01 0.  1.
         13    1    4    4    0    0  0.18799938264E+02  0.72207602930E+01 -0.15679383584E+02  0.25522933364E+02  0.00000000000E+00 0. -1.
        -14    1    4    4    0    0 -0.10029845671E+02 -0.19017482067E+02 -0.28418103627E+03  0.28499319957E+03  0.00000000000E+00 0.  1.
</event>
<event>
12    1  0.1030140E-001  0.2464374E+03  0.7818608E-02  0.1115707E+00
         21   -1    0    0  503  502  0.00000000000E+00  0.00000000000E+00  0.22682002541E+03  0.22682002541E+03  0.00000000000E+00 0.  1.
         21   -1    0    0  501  503 -0.00000000000E+00 -0.00000000000E+00 -0.28314482035E+03  0.28314482035E+03  0.00000000000E+00 0.  1.
          6    2    1    2  501    0  0.19442879852E+02  0.17478961997E+03  0.32906842728E+02  0.24862475125E+03  0.17263247033E+03 0.  0.
         24    2    3    3    0    0 -0.13700915455E+02  0.15718042153E+03  0.76771710994E+02  0.19070401485E+03  0.74704254735E+02 0.  0.
         -6    2    1    2    0  502 -0.19442879852E+02 -0.17478961997E+03 -0.89231637670E+02  0.26134009451E+03  0.17148446872E+03 0.  0.
        -24    2    5    5    0    0 -0.68591849370E+01 -0.13802142871E+03 -0.12935861382E+03  0.20528196860E+03  0.79435964524E+02 0.  0.
          5    1    3    3  501    0  0.33143795307E+02  0.17609198437E+02 -0.43864868266E+02  0.57920736398E+02  0.47000000000E+01 0. -1.
        -11    1    4    4    0    0 -0.18169934078E+02  0.42423868460E+02  0.58345399200E+02  0.74391644204E+02  0.00000000000E+00 0.  1.
         12    1    4    4    0    0  0.44690186229E+01  0.11475655307E+03  0.18426311794E+02  0.11631237065E+03  0.00000000000E+00 0. -1.
         -5    1    5    5    0  502 -0.12583694915E+02 -0.36768191253E+02  0.40126976151E+02  0.56058125912E+02  0.47000000000E+01 0.  1.
         13    1    6    6    0    0 -0.38505753804E+02 -0.96948856907E+02 -0.66125295345E+02  0.12350841516E+03  0.00000000000E+00 0. -1.
        -14    1    6    6    0    0  0.31646568867E+02 -0.41072571804E+02 -0.63233318476E+02  0.81773553434E+02  0.00000000000E+00 0.  1.
</event>
<event>
12    1  0.1030140E-001  0.1746595E+03  0.7818608E-02  0.1173160E+00
         21   -1    0    0  503  502  0.00000000000E+00  0.00000000000E+00  0.38813861201E+03  0.38813861201E+03  0.00000000000E+00 0. -1.
         21   -1    0    0  501  503 -0.00000000000E+00 -0.00000000000E+00 -0.88473852237E+02  0.88473852237E+02  0.00000000000E+00 0. -1.
          6    2    1    2  501    0  0.26770562704E+02 -0.61340398377E+01  0.69717542086E+02  0.18805973142E+03  0.17248662972E+03 0.  0.
         24    2    3    3    0    0  0.14876386390E+02  0.55925064120E+02  0.76258501092E+02  0.12435982593E+03  0.79379390572E+02 0.  0.
         -6    2    1    2    0  502 -0.26770562704E+02  0.61340398377E+01  0.22994721768E+03  0.28855273283E+03  0.17214141637E+03 0.  0.
        -24    2    5    5    0    0  0.18762275621E+02  0.31260403253E+02  0.46829472888E+02  0.98135370270E+02  0.78155713605E+02 0.  0.
          5    1    3    3  501    0  0.11894176314E+02 -0.62059103958E+02 -0.65409590065E+01  0.63699905487E+02  0.47000000000E+01 0. -1.
        -13    1    4    4    0    0 -0.31824122485E+02  0.34228379532E+02  0.36755599727E+02  0.59458648224E+02  0.00000000000E+00 0.  1.
         14    1    4    4    0    0  0.46700508875E+02  0.21696684588E+02  0.39502901365E+02  0.64901177705E+02  0.00000000000E+00 0. -1.
         -5    1    5    5    0  502 -0.45532838325E+02 -0.25126363416E+02  0.18311774480E+03  0.19041736256E+03  0.47000000000E+01 0.  1.
         11    1    6    6    0    0 -0.28275899781E+02 -0.25715804544E+00  0.23985895916E+02  0.37079857626E+02  0.00000000000E+00 0. -1.
        -12    1    6    6    0    0  0.47038175402E+02  0.31517561299E+02  0.22843576972E+02  0.61055512644E+02  0.00000000000E+00 0.  1.
</event>
<event>
12    1  0.1030140E-001  0.1861246E+03  0.7818608E-02  0.1162180E+00
         21   -1    0    0  503  502  0.00000000000E+00  0.00000000000E+00  0.27141385486E+03  0.27141385486E+03  0.00000000000E+00 0. -1.
         21   -1    0    0  501  503 -0.00000000000E+00 -0.00000000000E+00 -0.12821153918E+03  0.12821153918E+03  0.00000000000E+00 0. -1.
          6    2    1    2  501    0 -0.28777098061E+02  0.64347323871E+02  0.52981004608E+02  0.19278664270E+03  0.17143804505E+03 0.  0.
         24    2    3    3    0    0 -0.50112126605E+02  0.65479773437E+02 -0.18854234403E+02  0.11769431653E+03  0.81839135055E+02 0.  0.
         -6    2    1    2    0  502  0.28777098061E+02 -0.64347323871E+02  0.90221311072E+02  0.20683875134E+03  0.17226051382E+03 0.  0.
        -24    2    5    5    0    0 -0.49162569592E+02 -0.45662477853E+02  0.58657960322E+02  0.12057143206E+03  0.81207720001E+02 0.  0.
          5    1    3    3  501    0  0.21335028544E+02 -0.11324495663E+01  0.71835239010E+02  0.75092326164E+02  0.47000000000E+01 0. -1.
        -13    1    4    4    0    0  0.19926781167E+02  0.75756064063E+01 -0.16208748896E+02  0.26780402552E+02  0.00000000000E+00 0.  1.
         14    1    4    4    0    0 -0.70038907772E+02  0.57904167031E+02 -0.26454855062E+01  0.90913913979E+02  0.00000000000E+00 0. -1.
         -5    1    5    5    0  502  0.77939667653E+02 -0.18684846018E+02  0.31563350750E+02  0.86267319276E+02  0.47000000000E+01 0.  1.
         13    1    6    6    0    0  0.11628282415E+02 -0.35726750855E+02  0.42828029254E+02  0.56972429897E+02  0.00000000000E+00 0. -1.
        -14    1    6    6    0    0 -0.60790852007E+02 -0.99357269976E+01  0.15829931067E+02  0.63599002164E+02  0.00000000000E+00 0.  1.
</event>
<event>
12    1  0.1030140E-001  0.1885906E+03  0.7818608E-02  0.1159780E+00
         21   -1    0    0  501  502  0.00000000000E+00  0.00000000000E+00  0.16140465496E+03  0.16140465496E+03  0.00000000000E+00 0. -1.
         21   -1    0    0  502  503 -0.00000000000E+00 -0.00000000000E+00 -0.35148931718E+03  0.35148931718E+03  0.00000000000E+00 0. -1.
         -6    2    1    2    0  503  0.41017058290E+02  0.63221071153E+02 -0.25183725018E+03  0.31462425703E+03  0.17287891608E+03 0.  0.
        -24    2    3    3    0    0 -0.61091718803E+01  0.47898661351E+02 -0.25124472819E+03  0.26484374986E+03  0.68459438047E+02 0.  0.
          6    2    1    2  501    0 -0.41017058290E+02 -0.63221071153E+02  0.61752587968E+02  0.19826971511E+03  0.17267945709E+03 0.  0.
         24    2    5    5    0    0 -0.41432894428E+02  0.28431078934E+02  0.38155749720E+02  0.10351112547E+03  0.82059008460E+02 0.  0.
          5    1    5    5  501    0  0.41583613773E+00 -0.91652150087E+02  0.23596838248E+02  0.94758589640E+02  0.47000000000E+01 0. -1.
        -11    1    6    6    0    0 -0.26618954826E+02  0.12595887593E+02  0.63596031844E+02  0.70083381814E+02  0.00000000000E+00 0.  1.
         12    1    6    6    0    0 -0.14813939602E+02  0.15835191342E+02 -0.25440282124E+02  0.33427743656E+02  0.00000000000E+00 0. -1.
         -5    1    3    3    0  503  0.47126230170E+02  0.15322409802E+02 -0.59252199584E+00  0.49780507174E+02  0.47000000000E+01 0.  1.
         11    1    4    4    0    0 -0.30321113514E+02  0.47976693635E+02 -0.14145677085E+03  0.15241768623E+03  0.00000000000E+00 0. -1.
        -12    1    4    4    0    0  0.24211941634E+02 -0.78032283974E-01 -0.10978795734E+03  0.11242606363E+03  0.00000000000E+00 0.  1.
</event>
<event>
12    1  0.1030140E-001  0.2631583E+03  0.7818608E-02  0.1105282E+00
         21   -1    0    0  503  502  0.00000000000E+00  0.00000000000E+00  0.89974952636E+03  0.89974952636E+03  0.00000000000E+00 0.  1.
         21   -1    0    0  501  503 -0.00000000000E+00 -0.00000000000E+00 -0.36316943102E+03  0.36316943102E+03  0.00000000000E+00 0. -1.
          6    2    1    2  501    0 -0.95118024308E+02 -0.17480144568E+03 -0.29233262811E+03  0.39323591833E+03  0.17196842165E+03 0.  0.
         24    2    3    3    0    0 -0.11301684042E+03 -0.80136926905E+02 -0.22213525992E+03  0.27394007081E+03  0.80649584158E+02 0.  0.
         -6    2    1    2    0  502  0.95118024308E+02  0.17480144568E+03  0.82891272345E+03  0.86968303906E+03  0.17218972493E+03 0.  0.
        -24    2    5    5    0    0  0.83766107149E+02  0.84805932275E+02  0.68671666581E+03  0.70095287796E+03  0.74473828709E+02 0.  0.
          5    1    3    3  501    0  0.17898816111E+02 -0.94664518779E+02 -0.70197368188E+02  0.11929584751E+03  0.47000000000E+01 0. -1.
        -11    1    4    4    0    0 -0.34297462262E+02 -0.35535745383E+02 -0.21531657280E+02  0.53876872429E+02  0.00000000000E+00 0.  1.
         12    1    4    4    0    0 -0.78719378157E+02 -0.44601181522E+02 -0.20060360264E+03  0.22006319838E+03  0.00000000000E+00 0. -1.
         -5    1    5    5    0  502  0.11351917159E+02  0.89995513409E+02  0.14219605764E+03  0.16873016110E+03  0.47000000000E+01 0.  1.
         13    1    6    6    0    0  0.37480036585E+02 -0.65860293782E+01  0.19476853379E+03  0.19845128037E+03  0.00000000000E+00 0. -1.
        -14    1    6    6    0    0  0.46286070564E+02  0.91391961653E+02  0.49194813202E+03  0.50250159759E+03  0.00000000000E+00 0.  1.
</event>
<event>
12    1  0.1030140E-001  0.1915493E+03  0.7818608E-02  0.1157194E+00
         21   -1    0    0  501  502  0.00000000000E+00  0.00000000000E+00  0.12181098482E+03  0.12181098482E+03  0.00000000000E+00 0. -1.
         21   -1    0    0  502  503 -0.00000000000E+00 -0.00000000000E+00 -0.35703317999E+03  0.35703317999E+03  0.00000000000E+00 0.  1.
         -6    2    1    2    0  503 -0.38424889419E+01  0.83129876078E+02 -0.21314657541E+03  0.28657039437E+03  0.17252764213E+03 0.  0.
        -24    2    3    3    0    0 -0.23469908803E+02 -0.14532204775E+01 -0.36347397565E+02  0.89543555784E+02  0.78383458738E+02 0.  0.
          6    2    1    2  501    0  0.38424889419E+01 -0.83129876078E+02 -0.22075619753E+02  0.19227377045E+03  0.17192012330E+03 0.  0.
         24    2    5    5    0    0 -0.28882637119E+02  0.16251351213E+02 -0.59179427583E+01  0.86298666110E+02  0.79461466024E+02 0.  0.
          5    1    5    5  501    0  0.32725126061E+02 -0.99381227290E+02 -0.16157676994E+02  0.10597510434E+03  0.47000000000E+01 0. -1.
        -11    1    6    6    0    0  0.37791681263E+01  0.25571441687E+02 -0.33662236954E+02  0.42442042109E+02  0.00000000000E+00 0.  1.
         12    1    6    6    0    0 -0.32661805245E+02 -0.93200904741E+01  0.27744294196E+02  0.43856624001E+02  0.00000000000E+00 0. -1.
         -5    1    3    3    0  503  0.19627419861E+02  0.84583096555E+02 -0.17679917785E+03  0.19702683858E+03  0.47000000000E+01 0.  1.
         13    1    4    4    0    0 -0.31870920395E+01  0.21683498501E+02  0.17150067650E+02  0.27829058254E+02  0.00000000000E+00 0. -1.
        -14    1    4    4    0    0 -0.20282816764E+02 -0.23136718979E+02 -0.53497465215E+02  0.61714497530E+02  0.00000000000E+00 0.  1.
</event>
<event>
12    1  0.1030140E-001  0.2570718E+03  0.7818608E-02  0.1108916E+00
         21   -1    0    0  503  502  0.00000000000E+00  0.00000000000E+00  0.14910479423E+03  0.14910479423E+03  0.00000000000E+00 0. -1.
         21   -1    0    0  501  503 -0.00000000000E+00 -0.00000000000E+00 -0.97250008244E+03  0.97250008244E+03  0.00000000000E+00 0. -1.
          6    2    1    2  501    0 -0.91024839165E+02 -0.16775558854E+03 -0.82542101384E+03  0.86452514323E+03  0.17221037819E+03 0.  0.
         24    2    3    3    0    0 -0.11071316947E+02 -0.20411174705E+02 -0.19550155710E+03  0.21266353677E+03  0.80409768866E+02 0.  0.
         -6    2    1    2    0  502  0.91024839165E+02  0.16775558854E+03  0.20257256310E+01  0.25707973343E+03  0.17221622150E+03 0.  0.
        -24    2    5    5    0    0  0.49167124290E+02  0.24758969105E+02 -0.34660536920E+02  0.10356076612E+03  0.80579568117E+02 0.  0.
          5    1    3    3  501    0 -0.79953522217E+02 -0.14734441384E+03 -0.62991945674E+03  0.65186160646E+03  0.47000000000E+01 0. -1.
        -13    1    4    4    0    0  0.56190971798E+01 -0.45668525569E+02 -0.71547316670E+02  0.85065898005E+02  0.00000000000E+00 0.  1.
         14    1    4    4    0    0 -0.16690414127E+02  0.25257350864E+02 -0.12395424043E+03  0.12759763876E+03  0.00000000000E+00 0. -1.
         -5    1    5    5    0  502  0.41857714874E+02  0.14299661944E+03  0.36686262551E+02  0.15351896731E+03  0.47000000000E+01 0.  1.
         13    1    6    6    0    0  0.53439924123E+02 -0.56877812683E+01  0.43193924255E+01  0.53915058165E+02  0.00000000000E+00 0. -1.
        -14    1    6    6    0    0 -0.42727998324E+01  0.30446750373E+02 -0.38979929346E+02  0.49645707956E+02  0.00000000000E+00 0.  1.
</event>
<event>
12    1  0.1030140E-001  0.1889382E+03  0.7818608E-02  0.1159884E+00
         21   -1    0    0  503  502  0.00000000000E+00  0.00000000000E+00  0.74226479756E+02  0.74226479756E+02  0.00000000000E+00 0. -1.
         21   -1    0    0  501  503 -0.00000000000E+00 -0.00000000000E+00 -0.73068435455E+03  0.73068435455E+03  0.00000000000E+00 0. -1.
          6    2    1    2  501    0 -0.69141096062E+02  0.30252234246E+02 -0.56477533754E+03  0.59490291631E+03  0.17100470489E+03 0.  0.
         24    2    3    3    0    0 -0.30135078652E+02  0.40661750412E+02 -0.53774165486E+03  0.54608962488E+03  0.80537507488E+02 0.  0.
         -6    2    1    2    0  502  0.69141096062E+02 -0.30252234246E+02 -0.91682537253E+02  0.21000791800E+03  0.17321070736E+03 0.  0.
        -24    2    5    5    0    0  0.58289206106E+02 -0.89513390558E+02 -0.54743289376E+02  0.13918245509E+03  0.70460268478E+02 0.  0.
          5    1    3    3  501    0 -0.39006017410E+02 -0.10409516166E+02 -0.27033682675E+02  0.48813291427E+02  0.47000000000E+01 0. -1.
        -11    1    4    4    0    0  0.24214732222E+02  0.11733909460E+02 -0.27109543111E+03  0.27242755120E+03  0.00000000000E+00 0.  1.
         12    1    4    4    0    0 -0.54349810874E+02  0.28927840952E+02 -0.26664622376E+03  0.27366207368E+03  0.00000000000E+00 0. -1.
         -5    1    5    5    0  502  0.10851889956E+02  0.59261156312E+02 -0.36939247877E+02  0.70825462913E+02  0.47000000000E+01 0.  1.
         13    1    6    6    0    0  0.21672571239E+02 -0.76346971965E+02 -0.10167558921E+02  0.80012122374E+02  0.00000000000E+00 0. -1.
        -14    1    6    6    0    0  0.36616634867E+02 -0.13166418593E+02 -0.44575730455E+02  0.59170332711E+02  0.00000000000E+00 0.  1.
</event>
<event>
12    1  0.1030140E-001  0.1910328E+03  0.7818608E-02  0.1158419E+00
         21   -1    0    0  501  502  0.00000000000E+00  0.00000000000E+00  0.10876119834E+03  0.10876119834E+03  0.00000000000E+00 0.  1.
         21   -1    0    0  502  503 -0.00000000000E+00 -0.00000000000E+00 -0.36567145554E+03  0.36567145554E+03  0.00000000000E+00 0.  1.
         -6    2    1    2    0  503 -0.69392120130E+02  0.41774747588E+02 -0.20268286587E+03  0.27585234007E+03  0.16868246361E+03 0.  0.
        -24    2    3    3    0    0 -0.41723390574E+02 -0.38722027695E+02 -0.68337472807E+02  0.11674211392E+03  0.75620593912E+02 0.  0.
          6    2    1    2  501    0  0.69392120130E+02 -0.41774747588E+02 -0.54227391318E+02  0.19858031381E+03  0.17301195101E+03 0.  0.
         24    2    5    5    0    0  0.70251144121E+02 -0.89557516865E+02 -0.57030199305E+02  0.15047754160E+03  0.80220164641E+02 0.  0.
          5    1    5    5  501    0 -0.85902399193E+00  0.47782769277E+02  0.28028079869E+01  0.48102772213E+02  0.47000000000E+01 0. -1.
        -13    1    6    6    0    0 -0.38952642036E+01 -0.38001853240E+02  0.82041257099E+01  0.39072005472E+02  0.00000000000E+00 0.  1.
         14    1    6    6    0    0  0.74146408325E+02 -0.51555663625E+02 -0.65234325015E+02  0.11140553613E+03  0.00000000000E+00 0. -1.
         -5    1    3    3    0  503 -0.27668729556E+02  0.80496775283E+02 -0.13434539307E+03  0.15911022615E+03  0.47000000000E+01 0.  1.
         11    1    4    4    0    0 -0.21583592077E+02  0.86412138866E+01  0.80763571263E+01  0.24611980189E+02  0.00000000000E+00 0. -1.
        -12    1    4    4    0    0 -0.20139798497E+02 -0.47363241582E+02 -0.76413829934E+02  0.92130133733E+02  0.00000000000E+00 0.  1.
</event>
<event>
12    1  0.1030140E-001  0.2704662E+03  0.7818608E-02  0.1101465E+00
         21   -1    0    0  501  502  0.00000000000E+00  0.00000000000E+00  0.30896576815E+03  0.30896576815E+03  0.00000000000E+00 0.  1.
         21   -1    0    0  502  503 -0.00000000000E+00 -0.00000000000E+00 -0.26066133499E+03  0.26066133499E+03  0.00000000000E+00 0. -1.
         -6    2    1    2    0  503 -0.20489649088E+03 -0.30239002417E+02  0.11533909604E+03  0.29403241919E+03  0.17393960796E+03 0.  0.
        -24    2    3    3    0    0 -0.78599998913E+02 -0.81372240731E+02  0.45737760343E+02  0.14095777114E+03  0.70553165297E+02 0.  0.
          6    2    1    2  501    0  0.20489649088E+03  0.30239002417E+02 -0.67034662889E+02  0.27559468395E+03  0.16900240990E+03 0.  0.
         24    2    5    5    0    0  0.80799211661E+02 -0.31736906969E+02 -0.70826222246E+02  0.13675083649E+03  0.78413606315E+02 0.  0.
          5    1    5    5  501    0  0.12409727922E+03  0.61975909386E+02  0.37915593563E+01  0.13884384746E+03  0.47000000000E+01 0. -1.
        -13    1    6    6    0    0  0.33616691987E+02 -0.17239096039E+02  0.12592601383E+02  0.39822632033E+02  0.00000000000E+00 0.  1.
         14    1    6    6    0    0  0.47182519674E+02 -0.14497810930E+02 -0.83418823629E+02  0.96928204462E+02  0.00000000000E+00 0. -1.
         -5    1    3    3    0  503 -0.12629649197E+03  0.51133238314E+02  0.69601335700E+02  0.15307464805E+03  0.47000000000E+01 0.  1.
         13    1    4    4    0    0  0.10982097829E+02 -0.27005451550E+01 -0.36879985151E+01  0.11895408774E+02  0.00000000000E+00 0. -1.
        -14    1    4    4    0    0 -0.89582096741E+02 -0.78671695576E+02  0.49425758858E+02  0.12906236237E+03  0.00000000000E+00 0.  1.
</event>
<event>
12    1  0.1030140E-001  0.1750643E+03  0.7818608E-02  0.1172795E+00
         21   -1    0    0  501  502  0.00000000000E+00  0.00000000000E+00  0.68797205372E+02  0.68797205372E+02  0.00000000000E+00 0.  1.
         21   -1    0    0  502  503 -0.00000000000E+00 -0.00000000000E+00 -0.86484263292E+03  0.86484263292E+03  0.00000000000E+00 0.  1.
         -6    2    1    2    0  503  0.31366606968E+02  0.15258716342E+02 -0.72389102408E+03  0.74475883725E+03  0.17155412693E+03 0.  0.
        -24    2    3    3    0    0 -0.13114506712E+02 -0.14630489814E+02 -0.17388626808E+03  0.19212943545E+03  0.79317363926E+02 0.  0.
          6    2    1    2  501    0 -0.31366606968E+02 -0.15258716342E+02 -0.72154403466E+02  0.18888100103E+03  0.17103532429E+03 0.  0.
         24    2    5    5    0    0 -0.46230716423E+02 -0.38853826456E+01  0.18604839416E+02  0.96092938021E+02  0.82069101058E+02 0.  0.
          5    1    5    5  501    0  0.14864109454E+02 -0.11373333696E+02 -0.90759242882E+02  0.92788063014E+02  0.47000000000E+01 0. -1.
        -13    1    6    6    0    0 -0.21889567265E+02  0.39043374538E+02  0.60184384970E+01  0.45163700605E+02  0.00000000000E+00 0.  1.
         14    1    6    6    0    0 -0.24341149158E+02 -0.42928757184E+02  0.12586400919E+02  0.50929237416E+02  0.00000000000E+00 0. -1.
         -5    1    3    3    0  503  0.44481113680E+02  0.29889206156E+02 -0.55000475600E+03  0.55262940181E+03  0.47000000000E+01 0.  1.
         11    1    4    4    0    0  0.19613504896E+02 -0.82760544608E+01 -0.77091369373E+01  0.22640968267E+02  0.00000000000E+00 0. -1.
        -12    1    4    4    0    0 -0.32728011608E+02 -0.63544353537E+01 -0.16617713114E+03  0.16948846718E+03  0.00000000000E+00 0.  1.
</event>
<event>
12    1  0.1030140E-001  0.3467189E+03  0.7818608E-02  0.1064081E+00
         21   -1    0    0  503  502  0.00000000000E+00  0.00000000000E+00  0.17008588158E+03  0.17008588158E+03  0.00000000000E+00 0.  1.
         21   -1    0    0  501  503 -0.00000000000E+00 -0.00000000000E+00 -0.71379817951E+03  0.71379817951E+03  0.00000000000E+00 0. -1.
          6    2    1    2  501    0 -0.29739119943E+03 -0.38238786733E+02 -0.32241051884E+03  0.47345806876E+03  0.17409844891E+03 0.  0.
         24    2    3    3    0    0 -0.21805052619E+03 -0.12759965391E+02 -0.13356175199E+03  0.26698758781E+03  0.75728341858E+02 0.  0.
         -6    2    1    2    0  502  0.29739119943E+03  0.38238786733E+02 -0.22130177910E+03  0.41042599233E+03  0.17196304090E+03 0.  0.
        -24    2    5    5    0    0  0.21196267184E+03 -0.24620201580E+02 -0.95228519526E+02  0.24560535491E+03  0.75625332074E+02 0.  0.
          5    1    3    3  501    0 -0.79340673239E+02 -0.25478821342E+02 -0.18884876684E+03  0.20647048095E+03  0.47000000000E+01 0. -1.
        -11    1    4    4    0    0 -0.21361785477E+03 -0.35602861610E+01 -0.13951603021E+03  0.25516658519E+03  0.00000000000E+00 0.  1.
         12    1    4    4    0    0 -0.44326714224E+01 -0.91996792304E+01  0.59542782137E+01  0.11821002619E+02  0.00000000000E+00 0. -1.
         -5    1    5    5    0  502  0.85428527592E+02  0.62858988313E+02 -0.12607325957E+03  0.16482063741E+03  0.47000000000E+01 0.  1.
         13    1    6    6    0    0  0.15857060107E+03  0.13673119303E+02 -0.80113453954E+02  0.17818460994E+03  0.00000000000E+00 0. -1.
        -14    1    6    6    0    0  0.53392070764E+02 -0.38293320883E+02 -0.15115065573E+02  0.67420744967E+02  0.00000000000E+00 0.  1.
</event>
<event>
12    1  0.1030140E-001  0.2229061E+03  0.7818608E-02  0.1131851E+00
         21   -1    0    0  503  502  0.00000000000E+00  0.00000000000E+00  0.48227972610E+03  0.48227972610E+03  0.00000000000E+00 0. -1.
         21   -1    0    0  501  503 -0.00000000000E+00 -0.00000000000E+00 -0.12089887183E+03  0.12089887183E+03  0.00000000000E+00 0. -1.
          6    2    1    2  501    0  0.18254046560E+02  0.14028957043E+03  0.64003548417E+02  0.23191283856E+03  0.17225776235E+03 0.  0.
         24    2    3    3    0    0 -0.44089856792E+02  0.13179000612E+03  0.52478350299E+02  0.16777295182E+03  0.77982465523E+02 0.  0.
         -6    2    1    2    0  502 -0.18254046560E+02 -0.14028957043E+03  0.29737730585E+03  0.37126575938E+03  0.17143695127E+03 0.  0.
        -24    2    5    5    0    0 -0.57256516469E+02 -0.13672069882E+03  0.17766058667E+03  0.24521770363E+03  0.81225488343E+02 0.  0.
          5    1    3    3  501    0  0.62343903353E+02  0.84995643148E+01  0.11525198118E+02  0.64139886735E+02  0.47000000000E+01 0. -1.
        -13    1    4    4    0    0  0.70119207222E+01  0.61810924185E+02  0.52065252151E+02  0.81120576073E+02  0.00000000000E+00 0.  1.
         14    1    4    4    0    0 -0.51101777514E+02  0.69979081931E+02  0.41309814889E+00  0.86652375750E+02  0.00000000000E+00 0. -1.
         -5    1    5    5    0  502  0.39002469909E+02 -0.35688716088E+01  0.11971671919E+03  0.12604805574E+03  0.47000000000E+01 0.  1.
         13    1    6    6    0    0  0.10906497788E+02 -0.77046688520E+02  0.92547562821E+02  0.12091399956E+03  0.00000000000E+00 0. -1.
        -14    1    6    6    0    0 -0.68163014257E+02 -0.59674010302E+02  0.85113023846E+02  0.12430370407E+03  0.00000000000E+00 0.  1.
</event>
<event>
12    1  0.1030140E-001  0.1740524E+03  0.7818608E-02  0.1174008E+00
         21   -1    0    0  501  502  0.00000000000E+00  0.00000000000E+00  0.17422222535E+03  0.17422222535E+03  0.00000000000E+00 0. -1.
         21   -1    0    0  502  503 -0.00000000000E+00 -0.00000000000E+00 -0.27183766923E+03  0.27183766923E+03  0.00000000000E+00 0. -1.
         -6    2    1    2    0  503  0.73557765606E+01 -0.12002910421E+02 -0.18343512413E+03  0.25199997358E+03  0.17221313716E+03 0.  0.
        -24    2    3    3    0    0  0.19164762149E+02  0.50522692367E+02 -0.62581270212E+02  0.11533744341E+03  0.80414426062E+02 0.  0.
          6    2    1    2  501    0 -0.73557765606E+01  0.12002910421E+02  0.85819680256E+02  0.19405992100E+03  0.17348215502E+03 0.  0.
         24    2    5    5    0    0 -0.65148600934E+02  0.35045014863E+02  0.58802405373E+02  0.12606747827E+03  0.83443351618E+02 0.  0.
          5    1    5    5  501    0  0.57792824374E+02 -0.23042104442E+02  0.27017274883E+02  0.67992442730E+02  0.47000000000E+01 0. -1.
        -11    1    6    6    0    0 -0.48460656417E+02  0.23022423490E+02 -0.97200944589E+01  0.54524741540E+02  0.00000000000E+00 0.  1.
         12    1    6    6    0    0 -0.16687944517E+02  0.12022591373E+02  0.68522499832E+02  0.71542736729E+02  0.00000000000E+00 0. -1.
         -5    1    3    3    0  503 -0.11808985588E+02 -0.62525602788E+02 -0.12085385392E+03  0.13666253017E+03  0.47000000000E+01 0.  1.
         11    1    4    4    0    0  0.18622870676E+02  0.38786003950E+02 -0.82022263544E+02  0.92621904167E+02  0.00000000000E+00 0. -1.
        -12    1    4    4    0    0  0.54189147272E+00  0.11736688417E+02  0.19440993332E+02  0.22715539243E+02  0.00000000000E+00 0.  1.
</event>
<event>
12    1  0.1030140E-001  0.1762900E+03  0.7818608E-02  0.1173774E+00
         21   -1    0    0  503  502  0.00000000000E+00  0.00000000000E+00  0.30837438892E+02  0.30837438892E+02  0.00000000000E+00 0. -1.
         21   -1    0    0  501  503 -0.00000000000E+00 -0.00000000000E+00 -0.95659961807E+03  0.95659961807E+03  0.00000000000E+00 0. -1.
          6    2    1    2  501    0 -0.10229475221E+02 -0.40029521262E+02 -0.46772352831E+03  0.49984345321E+03  0.17138020320E+03 0.  0.
         24    2    3    3    0    0 -0.14026979958E+02  0.24008451523E+02 -0.38887764117E+03  0.39808861588E+03  0.80470891534E+02 0.  0.
         -6    2    1    2    0  502  0.10229475221E+02  0.40029521262E+02 -0.45803865086E+03  0.48759360375E+03  0.16199108615E+03 0.  0.
        -24    2    5    5    0    0 -0.65661235472E+01  0.84067931094E+02 -0.36557533621E+03  0.38370410362E+03  0.80454842474E+02 0.  0.
          5    1    3    3  501    0  0.37975047368E+01 -0.64037972785E+02 -0.78845887143E+02  0.10175483733E+03  0.47000000000E+01 0. -1.
        -11    1    4    4    0    0  0.14006717245E+02  0.41676312333E+01 -0.10116613806E+02  0.17773664590E+02  0.00000000000E+00 0.  1.
         12    1    4    4    0    0 -0.28033697202E+02  0.19840820290E+02 -0.37876102736E+03  0.38031495129E+03  0.00000000000E+00 0. -1.
         -5    1    5    5    0  502  0.16795598768E+02 -0.44038409832E+02 -0.92463314659E+02  0.10388950013E+03  0.47000000000E+01 0.  1.
         13    1    6    6    0    0  0.22873645604E+02  0.40098992709E-01 -0.12726912468E+03  0.12930829582E+03  0.00000000000E+00 0. -1.
        -14    1    6    6    0    0 -0.29439769151E+02  0.84027832102E+02 -0.23830621152E+03  0.25439580780E+03  0.00000000000E+00 0.  1.
</event>
<event>
12    1  0.1030140E-001  0.1849695E+03  0.7818608E-02  0.1163112E+00
         21   -1    0    0  503  502  0.00000000000E+00  0.00000000000E+00  0.22472516069E+03  0.22472516069E+03  0.00000000000E+00 0. -1.
         21   -1    0    0  501  503 -0.00000000000E+00 -0.00000000000E+00 -0.24338510501E+03  0.24338510501E+03  0.00000000000E+00 0. -1.
          6    2    1    2  501    0  0.65526174307E+02  0.22190214265E+02 -0.15265050592E+03  0.23982468499E+03  0.17154479720E+03 0.  0.
         24    2    3    3    0    0  0.38353659457E+01  0.10942370605E+02 -0.15769405588E+03  0.17673905098E+03  0.78960948415E+02 0.  0.
         -6    2    1    2    0  502 -0.65526174307E+02 -0.22190214265E+02  0.13399056161E+03  0.22828558070E+03  0.17139063752E+03 0.  0.
        -24    2    5    5    0    0 -0.80863760837E+02 -0.49918726852E+02  0.14805134188E+03  0.19330119115E+03  0.80095714983E+02 0.  0.
          5    1    3    3  501    0  0.61690808361E+02  0.11247843661E+02  0.50435499553E+01  0.63085634017E+02  0.47000000000E+01 0. -1.
        -11    1    4    4    0    0  0.11774004999E+02  0.44065010312E+02 -0.85133004885E+02  0.96581472593E+02  0.00000000000E+00 0.  1.
         12    1    4    4    0    0 -0.79386390537E+01 -0.33122639707E+02 -0.72561050991E+02  0.80157578382E+02  0.00000000000E+00 0. -1.
         -5    1    5    5    0  502  0.15337586530E+02  0.27728512587E+02 -0.14060780274E+02  0.34984389558E+02  0.47000000000E+01 0.  1.
         13    1    6    6    0    0 -0.40225119989E+02  0.15223218613E+00  0.11290840164E+03  0.11985987908E+03  0.00000000000E+00 0. -1.
        -14    1    6    6    0    0 -0.40638640848E+02 -0.50070959038E+02  0.35142940242E+02  0.73441312065E+02  0.00000000000E+00 0.  1.
</event>
<event>
12    1  0.1030140E-001  0.1934287E+03  0.7818608E-02  0.1155615E+00
         21   -1    0    0  501  502  0.00000000000E+00  0.00000000000E+00  0.18843846949E+03  0.18843846949E+03  0.00000000000E+00 0. -1.
         21   -1    0    0  502  503 -0.00000000000E+00 -0.00000000000E+00 -0.21316842260E+03  0.21316842260E+03  0.00000000000E+00 0.  1.
         -6    2    1    2    0  503 -0.73118421357E+02  0.49251400316E+02 -0.66646863057E+02  0.20368846081E+03  0.17109991448E+03 0.  0.
        -24    2    3    3    0    0 -0.18891990764E+01  0.63584010276E+02 -0.79163528561E+02  0.12981165301E+03  0.80856079344E+02 0.  0.
          6    2    1    2  501    0  0.73118421357E+02 -0.49251400316E+02  0.41916909948E+02  0.19791843129E+03  0.17217047984E+03 0.  0.
         24    2    5    5    0    0  0.84950424792E+02  0.13846132975E+02 -0.48234993970E+01  0.11836938429E+03  0.81115688493E+02 0.  0.
          5    1    5    5  501    0 -0.11832003435E+02 -0.63097533291E+02  0.46740409345E+02  0.79549046999E+02  0.47000000000E+01 0. -1.
        -11    1    6    6    0    0  0.28851805836E+02  0.44572813527E+01  0.37462142463E+02  0.47494275180E+02  0.00000000000E+00 0.  1.
         12    1    6    6    0    0  0.56098618956E+02  0.93888516225E+01 -0.42285641860E+02  0.70875109108E+02  0.00000000000E+00 0. -1.
         -5    1    3    3    0  503 -0.71229222280E+02 -0.14332609960E+02  0.12516665504E+02  0.73876807797E+02  0.47000000000E+01 0.  1.
         11    1    4    4    0    0  0.91835224886E+01  0.81330851334E+02 -0.60536239015E+02  0.10180216451E+03  0.00000000000E+00 0. -1.
        -12    1    4    4    0    0 -0.11072721565E+02 -0.17746841058E+02 -0.18627289546E+02  0.28009488504E+02  0.00000000000E+00 0.  1.
</event>
<event>
12    1  0.1030140E-001  0.1884308E+03  0.7818608E-02  0.1160269E+00
         21   -1    0    0  501  502  0.00000000000E+00  0.00000000000E+00  0.31765784351E+02  0.31765784351E+02  0.00000000000E+00 0. -1.
         21   -1    0    0  502  503 -0.00000000000E+00 -0.00000000000E+00 -0.11850529498E+04  0.11850529498E+04  0.00000000000E+00 0. -1.
         -6    2    1    2    0  503  0.16864754777E+02 -0.70917821913E+02 -0.41888787230E+03  0.45863110152E+03  0.17193510491E+03 0.  0.
        -24    2    3    3    0    0  0.23796449793E+01  0.11370627833E+02 -0.10891263616E+03  0.13755798775E+03  0.83218289996E+02 0.  0.
          6    2    1    2  501    0 -0.16864754777E+02  0.70917821913E+02 -0.73439929311E+03  0.75818763259E+03  0.17375962443E+03 0.  0.
         24    2    5    5    0    0  0.55698608728E+02  0.51603340038E+02 -0.49832965056E+03  0.51041867354E+03  0.80184424686E+02 0.  0.
          5    1    5    5  501    0 -0.72563363505E+02  0.19314481876E+02 -0.23606964255E+03  0.24776895905E+03  0.47000000000E+01 0. -1.
        -11    1    6    6    0    0  0.69030129089E+01 -0.94850223403E+01 -0.87486107756E+01  0.14634050243E+02  0.00000000000E+00 0.  1.
         12    1    6    6    0    0  0.48795595819E+02  0.61088362378E+02 -0.48958103978E+03  0.49578462330E+03  0.00000000000E+00 0. -1.
         -5    1    3    3    0  503  0.14485109798E+02 -0.82288449746E+02 -0.30997523614E+03  0.32107311377E+03  0.47000000000E+01 0.  1.
         11    1    4    4    0    0 -0.17082162231E+02 -0.29548976512E+02 -0.69808234358E+02  0.77705417209E+02  0.00000000000E+00 0. -1.
        -12    1    4    4    0    0  0.19461807211E+02  0.40919604344E+02 -0.39104401802E+02  0.59852570537E+02  0.00000000000E+00 0.  1.
</event>
<event>
12    1  0.1030140E-001  0.1746634E+03  0.7818608E-02  0.1173350E+00
         21   -1    0    0  503  502  0.00000000000E+00  0.00000000000E+00  0.10339413205E+03  0.10339413205E+03  0.00000000000E+00 0.  1.
         21   -1    0    0  501  503 -0.00000000000E+00 -0.00000000000E+00 -0.43732303389E+03  0.43732303389E+03  0.00000000000E+00 0.  1.
          6    2    1    2  501    0  0.20009155870E+02  0.10628716924E+02 -0.32253135939E+03  0.36678848520E+03  0.17318769917E+03 0.  0.
         24    2    3    3    0    0 -0.26317775850E+02 -0.14338959127E+02 -0.29465212514E+03  0.30704812069E+03  0.80996558530E+02 0.  0.
         -6    2    1    2    0  502 -0.20009155870E+02 -0.10628716924E+02 -0.11397542448E+02  0.17392868074E+03  0.17206959658E+03 0.  0.
        -24    2    5    5    0    0 -0.62929029334E+01  0.39571851240E+02  0.41060303026E+02  0.99887150568E+02  0.81767734017E+02 0.  0.
          5    1    3    3  501    0  0.46326931720E+02  0.24967676050E+02 -0.27879234249E+02  0.59740364514E+02  0.47000000000E+01 0. -1.
        -11    1    4    4    0    0 -0.49982647369E+02  0.11421747447E+02 -0.16740425760E+03  0.17507971560E+03  0.00000000000E+00 0.  1.
         12    1    4    4    0    0  0.23664871519E+02 -0.25760706574E+02 -0.12724786754E+03  0.13196840509E+03  0.00000000000E+00 0. -1.
         -5    1    5    5    0  502 -0.13716252936E+02 -0.50200568163E+02 -0.52457845474E+02  0.74041530172E+02  0.47000000000E+01 0.  1.
         13    1    6    6    0    0  0.22011865797E+02  0.49931628257E+02  0.80036051715E+01  0.55152039237E+02  0.00000000000E+00 0. -1.
        -14    1    6    6    0    0 -0.28304768731E+02 -0.10359777017E+02  0.33056697854E+02  0.44735111331E+02  0.00000000000E+00 0.  1.
</event>
<event>
12    1  0.1030140E-001  0.2398581E+03  0.7818608E-02  0.1119986E+00
         21   -1    0    0  503  502  0.00000000000E+00  0.00000000000E+00  0.30888336181E+03  0.30888336181E+03  0.00000000000E+00 0.  1.
         21   -1    0    0  501  503 -0.00000000000E+00 -0.00000000000E+00 -0.18971888789E+03  0.18971888789E+03  0.00000000000E+00 0. -1.
          6    2    1    2  501    0 -0.16543315751E+03  0.12548681039E+02  0.23672124457E+02  0.24043429147E+03  0.17240266830E+03 0.  0.
         24    2    3    3    0    0 -0.23127371503E+02 -0.19888813064E+02  0.37552709522E+02  0.93744522237E+02  0.80295636615E+02 0.  0.
         -6    2    1    2    0  502  0.16543315751E+03 -0.12548681039E+02  0.95492349462E+02  0.25816795823E+03  0.17322328611E+03 0.  0.
        -24    2    5    5    0    0  0.67073098518E+02 -0.53732398446E+02  0.89330361847E+02  0.15125275877E+03  0.86668981186E+02 0.  0.
          5    1    3    3  501    0 -0.14230578601E+03  0.32437494103E+02 -0.13880585066E+02  0.14668976923E+03  0.47000000000E+01 0. -1.
        -11    1    4    4    0    0 -0.33610201645E+02 -0.58655679378E+01  0.57712561419E+02  0.67043197174E+02  0.00000000000E+00 0.  1.
         12    1    4    4    0    0  0.10482830141E+02 -0.14023245126E+02 -0.20159851897E+02  0.26701325063E+02  0.00000000000E+00 0. -1.
         -5    1    5    5    0  502  0.98360058994E+02  0.41183717407E+02  0.61619876144E+01  0.10691519946E+03  0.47000000000E+01 0.  1.
         13    1    6    6    0    0  0.74932130611E+02 -0.46382141224E+02  0.33314068226E+02  0.94212283510E+02  0.00000000000E+00 0. -1.
        -14    1    6    6    0    0 -0.78590320931E+01 -0.73502572225E+01  0.56016293621E+02  0.57040475259E+02  0.00000000000E+00 0.  1.
</event>
<event>
12    1  0.1030140E-001  0.2518536E+03  0.7818608E-02  0.1112888E+00
         21   -1    0    0  501  502  0.00000000000E+00  0.00000000000E+00  0.89181714939E+02  0.89181714939E+02  0.00000000000E+00 0.  1.
         21   -1    0    0  502  503 -0.00000000000E+00 -0.00000000000E+00 -0.73429903330E+03  0.73429903330E+03  0.00000000000E+00 0.  1.
         -6    2    1    2    0  503 -0.15291700964E+03 -0.96049120025E+02 -0.41709076024E+03  0.48723191046E+03  0.17555963943E+03 0.  0.
        -24    2    3    3    0    0 -0.18057665655E+03 -0.95603286463E+02 -0.39426528524E+03  0.45106082886E+03  0.79138100266E+02 0.  0.
          6    2    1    2  501    0  0.15291700964E+03  0.96049120025E+02 -0.22802655812E+03  0.33624883778E+03  0.16869535976E+03 0.  0.
         24    2    5    5    0    0  0.50005394668E+02  0.28795770335E+01 -0.14323089084E+03  0.17351052199E+03  0.84154510806E+02 0.  0.
          5    1    5    5  501    0  0.10291161497E+03  0.93169542991E+02 -0.84795667279E+02  0.16273831579E+03  0.47000000000E+01 0. -1.
        -13    1    6    6    0    0  0.35044015397E+01  0.34216314366E+02 -0.24576722669E+02  0.42273541324E+02  0.00000000000E+00 0.  1.
         14    1    6    6    0    0  0.46500993128E+02 -0.31336737333E+02 -0.11865416817E+03  0.13123698066E+03  0.00000000000E+00 0. -1.
         -5    1    3    3    0  503  0.27659646913E+02 -0.44583356188E+00 -0.22825474998E+02  0.36171081596E+02  0.47000000000E+01 0.  1.
         13    1    4    4    0    0 -0.20614164665E+02 -0.31028853637E+02 -0.29347201238E+02  0.47423535965E+02  0.00000000000E+00 0. -1.
        -14    1    4    4    0    0 -0.15996249189E+03 -0.64574432826E+02 -0.36491808400E+03  0.40363729290E+03  0.00000000000E+00 0.  1.
</event>
<event>
12    1  0.1030140E-001  0.2020466E+03  0.7818608E-02  0.1148431E+00
         21   -1    0    0  501  502  0.00000000000E+00  0.00000000000E+00  0.19642197387E+04  0.19642197387E+04  0.00000000000E+00 0. -1.
         21   -1    0    0  502  503 -0.00000000000E+00 -0.00000000000E+00 -0.88091364223E+02  0.88091364223E+02  0.00000000000E+00 0. -1.
         -6    2    1    2    0  503 -0.34253806792E+02  0.99485756071E+02  0.40822416249E+02  0.20612935173E+03  0.17248797360E+03 0.  0.
        -24    2    3    3    0    0 -0.23959326135E+02  0.12842447236E+03  0.10720231097E+02  0.16286669828E+03  0.96663041764E+02 0.  0.
          6    2    1    2  501    0  0.34253806792E+02 -0.99485756071E+02  0.18353059582E+04  0.18461817512E+04  0.17020093767E+03 0.  0.
         24    2    5    5    0    0  0.59366936170E+02 -0.77225238282E+02  0.17463619637E+04  0.17510012696E+04  0.82080248693E+02 0.  0.
          5    1    5    5  501    0 -0.25113129377E+02 -0.22260517789E+02  0.88943994483E+02  0.95180481580E+02  0.47000000000E+01 0. -1.
        -11    1    6    6    0    0 -0.42923419186E+01 -0.10232857956E+02  0.27467450878E+02  0.29624254233E+02  0.00000000000E+00 0.  1.
         12    1    6    6    0    0  0.63659278088E+02 -0.66992380326E+02  0.17188945129E+04  0.17213770154E+04  0.00000000000E+00 0. -1.
         -5    1    3    3    0  503 -0.10294480657E+02 -0.28938716294E+02  0.30102185152E+02  0.43262653451E+02  0.47000000000E+01 0.  1.
         11    1    4    4    0    0  0.24240415153E+02  0.51677020895E+02 -0.28873966349E+02  0.63967320938E+02  0.00000000000E+00 0. -1.
        -12    1    4    4    0    0 -0.48199741288E+02  0.76747451470E+02  0.39594197446E+02  0.98899377343E+02  0.00000000000E+00 0.  1.
</event>
<event>
12    1  0.1030140E-001  0.2115835E+03  0.7818608E-02  0.1140940E+00
         21   -1    0    0  501  502  0.00000000000E+00  0.00000000000E+00  0.12883542109E+04  0.12883542109E+04  0.00000000000E+00 0. -1.
         21   -1    0    0  502  503 -0.00000000000E+00 -0.00000000000E+00 -0.56678454766E+02  0.56678454766E+02  0.00000000000E+00 0. -1.
         -6    2    1    2    0  503  0.10415927079E+03 -0.54874154740E+02  0.19542071404E+03  0.28802229081E+03  0.17580460170E+03 0.  0.
        -24    2    3    3    0    0  0.47372361583E+02 -0.84474533349E+02  0.18290466636E+03  0.22260305112E+03  0.81962881654E+02 0.  0.
          6    2    1    2  501    0 -0.10415927079E+03  0.54874154740E+02  0.10362550421E+04  0.10570103749E+04  0.17200608633E+03 0.  0.
         24    2    5    5    0    0 -0.45090941442E+02 -0.31617537589E+02  0.38044740072E+03  0.39287512292E+03  0.81103488292E+02 0.  0.
          5    1    5    5  501    0 -0.59068329351E+02  0.86491692329E+02  0.65580764141E+03  0.66413525197E+03  0.47000000000E+01 0. -1.
        -11    1    6    6    0    0  0.94623783751E+01 -0.13381292968E+01  0.25902812823E+01  0.99013510013E+01  0.00000000000E+00 0.  1.
         12    1    6    6    0    0 -0.54553319817E+02 -0.30279408292E+02  0.37785711944E+03  0.38297377192E+03  0.00000000000E+00 0. -1.
         -5    1    3    3    0  503  0.56786909209E+02  0.29600378609E+02  0.12516047683E+02  0.65419239685E+02  0.47000000000E+01 0.  1.
         11    1    4    4    0    0  0.70214665175E+02 -0.53288115201E+02  0.13062280220E+03  0.15758184820E+03  0.00000000000E+00 0. -1.
        -12    1    4    4    0    0 -0.22842303592E+02 -0.31186418148E+02  0.52281864157E+02  0.65021202926E+02  0.00000000000E+00 0.  1.
</event>
<event>
12    1  0.1030140E-001  0.2125526E+03  0.7818608E-02  0.1141118E+00
         21   -1    0    0  501  502  0.00000000000E+00  0.00000000000E+00  0.97706631735E+03  0.97706631735E+03  0.00000000000E+00 0.  1.
         21   -1    0    0  502  503 -0.00000000000E+00 -0.00000000000E+00 -0.58004973452E+02  0.58004973452E+02  0.00000000000E+00 0. -1.
         -6    2    1    2    0  503  0.98119487317E+02 -0.75295476326E+02  0.70212278461E+03  0.73135931304E+03  0.16313551902E+03 0.  0.
        -24    2    3    3    0    0  0.12434496668E+03 -0.31526210153E+02  0.44586912175E+03  0.47003278520E+03  0.75339052053E+02 0.  0.
          6    2    1    2  501    0 -0.98119487317E+02  0.75295476326E+02  0.21693855929E+03  0.30371197776E+03  0.17286348481E+03 0.  0.
         24    2    5    5    0    0 -0.31968032919E+02  0.66794795468E+02  0.21007150023E+03  0.23649945665E+03  0.79488728476E+02 0.  0.
          5    1    5    5  501    0 -0.66151454398E+02  0.85006808584E+01  0.68670590612E+01  0.67212521112E+02  0.47000000000E+01 0. -1.
        -11    1    6    6    0    0  0.23951251199E+02  0.39180249373E+01  0.53564328463E+02  0.58806042522E+02  0.00000000000E+00 0.  1.
         12    1    6    6    0    0 -0.55919284118E+02  0.62876770530E+02  0.15650717177E+03  0.17769341412E+03  0.00000000000E+00 0. -1.
         -5    1    3    3    0  503 -0.26225479365E+02 -0.43769266173E+02  0.25625366286E+03  0.26132652785E+03  0.47000000000E+01 0.  1.
         11    1    4    4    0    0  0.15611971476E+01  0.48794987309E+01  0.11693405483E+03  0.11704623029E+03  0.00000000000E+00 0. -1.
        -12    1    4    4    0    0  0.12278376953E+03 -0.36405708884E+02  0.32893506692E+03  0.35298655491E+03  0.00000000000E+00 0.  1.
</event>
<event>
12    1  0.1030140E-001  0.1875297E+03  0.7818608E-02  0.1160957E+00
         21   -1    0    0  501  502  0.00000000000E+00  0.00000000000E+00  0.42801983004E+03  0.42801983004E+03  0.00000000000E+00 0.  1.
         21   -1    0    0  502  503 -0.00000000000E+00 -0.00000000000E+00 -0.13036251591E+03  0.13036251591E+03  0.00000000000E+00 0.  1.
         -6    2    1    2    0  503 -0.49207920267E+02  0.57242105828E+02 -0.22036027333E+02  0.18774612308E+03  0.17048443370E+03 0.  0.
        -24    2    3    3    0    0 -0.49227571877E+02  0.10262613074E+03 -0.24533252197E+01  0.13809451358E+03  0.78157528954E+02 0.  0.
          6    2    1    2  501    0  0.49207920267E+02 -0.57242105828E+02  0.31969334146E+03  0.37063622288E+03  0.17166624316E+03 0.  0.
         24    2    5    5    0    0 -0.32653089194E+02 -0.11218352125E+02  0.93600954012E+02  0.12577040567E+03  0.76583161940E+02 0.  0.
          5    1    5    5  501    0  0.81861009461E+02 -0.46023753703E+02  0.22609238745E+03  0.24486581721E+03  0.47000000000E+01 0. -1.
        -11    1    6    6    0    0  0.17492097242E+02  0.61954920101E+00  0.63997498212E+02  0.66347849132E+02  0.00000000000E+00 0.  1.
         12    1    6    6    0    0 -0.50145186436E+02 -0.11837901326E+02  0.29603455800E+02  0.59422556540E+02  0.00000000000E+00 0. -1.
         -5    1    3    3    0  503  0.19651610775E-01 -0.45384024913E+02 -0.19582702113E+02  0.49651609496E+02  0.47000000000E+01 0.  1.
         13    1    4    4    0    0 -0.34337403070E+02  0.67563100738E+02  0.36055501467E+02  0.83927522405E+02  0.00000000000E+00 0. -1.
        -14    1    4    4    0    0 -0.14890168808E+02  0.35063030003E+02 -0.38508826687E+02  0.54166991175E+02  0.00000000000E+00 0.  1.
</event>
<event>
12    1  0.1030140E-001  0.2367055E+03  0.7818608E-02  0.1122131E+00
         21   -1    0    0  503  502  0.00000000000E+00  0.00000000000E+00  0.16403793267E+03  0.16403793267E+03  0.00000000000E+00 0. -1.
         21   -1    0    0  501  503 -0.00000000000E+00 -0.00000000000E+00 -0.36860480533E+03  0.36860480533E+03  0.00000000000E+00 0. -1.
          6    2    1    2  501    0 -0.13070719058E+03 -0.95542347853E+02 -0.28905072221E+02  0.23846383106E+03  0.17267537641E+03 0.  0.
         24    2    3    3    0    0 -0.97703660655E+02 -0.13397743519E+03 -0.29586904424E+02  0.18758118351E+03  0.82555175772E+02 0.  0.
         -6    2    1    2    0  502  0.13070719058E+03  0.95542347853E+02 -0.17566180043E+03  0.29417890694E+03  0.17167251164E+03 0.  0.
        -24    2    5    5    0    0  0.24653942323E+02  0.22886177447E+02 -0.13313310472E+03  0.15869093506E+03  0.79541154802E+02 0.  0.
          5    1    3    3  501    0 -0.33003529929E+02  0.38435087340E+02  0.68183220319E+00  0.50882647551E+02  0.47000000000E+01 0. -1.
        -11    1    4    4    0    0 -0.61532590496E+02 -0.86971585347E+02 -0.58559698437E+02  0.12157119162E+03  0.00000000000E+00 0.  1.
         12    1    4    4    0    0 -0.36171070159E+02 -0.47005849846E+02  0.28972794013E+02  0.66009991889E+02  0.00000000000E+00 0. -1.
         -5    1    5    5    0  502  0.10605324826E+03  0.72656170406E+02 -0.42528695713E+02  0.13548797188E+03  0.47000000000E+01 0.  1.
         13    1    6    6    0    0  0.43445123313E+02  0.40110151239E+02 -0.77369074968E+02  0.97376982566E+02  0.00000000000E+00 0. -1.
        -14    1    6    6    0    0 -0.18791180989E+02 -0.17223973793E+02 -0.55764029752E+02  0.61313952494E+02  0.00000000000E+00 0.  1.
</event>
<event>
12    1  0.1030140E-001  0.1999626E+03  0.7818608E-02  0.1149963E+00
         21   -1    0    0  501  502  0.00000000000E+00  0.00000000000E+00  0.41873966525E+03  0.41873966525E+03  0.00000000000E+00 0.  1.
         21   -1    0    0  502  503 -0.00000000000E+00 -0.00000000000E+00 -0.97635722374E+02  0.97635722374E+02  0.00000000000E+00 0.  1.
         -6    2    1    2    0  503  0.54518445293E+02  0.83896908914E+02  0.11892789306E+03  0.23265615901E+03  0.17313027573E+03 0.  0.
        -24    2    3    3    0    0 -0.42155850996E+01  0.10601265005E+03  0.10165052754E+03  0.16739215904E+03  0.80192593383E+02 0.  0.
          6    2    1    2  501    0 -0.54518445293E+02 -0.83896908914E+02  0.20217604982E+03  0.28371922861E+03  0.17207699836E+03 0.  0.
         24    2    5    5    0    0  0.31595473132E+02 -0.36081636970E+02  0.13271919521E+03  0.16310309442E+03  0.81780658967E+02 0.  0.
          5    1    5    5  501    0 -0.86113918425E+02 -0.47815271944E+02  0.69456854604E+02  0.12061613420E+03  0.47000000000E+01 0. -1.
        -13    1    6    6    0    0  0.33702525639E+02 -0.59563298124E+02  0.11414546887E+03  0.13308957427E+03  0.00000000000E+00 0.  1.
         14    1    6    6    0    0 -0.21070525072E+01  0.23481661155E+02  0.18573726348E+02  0.30013520142E+02  0.00000000000E+00 0. -1.
         -5    1    3    3    0  503  0.58734030393E+02 -0.22115741132E+02  0.17277365521E+02  0.65263999964E+02  0.47000000000E+01 0.  1.
         13    1    4    4    0    0  0.25232853437E+02  0.72720036754E+02  0.95284189477E+02  0.12249072374E+03  0.00000000000E+00 0. -1.
        -14    1    4    4    0    0 -0.29448438536E+02  0.33292613292E+02  0.63663380582E+01  0.44901435303E+02  0.00000000000E+00 0.  1.
</event>
<event>
12    1  0.1030140E-001  0.2001650E+03  0.7818608E-02  0.1150120E+00
         21   -1    0    0  501  502  0.00000000000E+00  0.00000000000E+00  0.89154155610E+03  0.89154155610E+03  0.00000000000E+00 0. -1.
         21   -1    0    0  502  503 -0.00000000000E+00 -0.00000000000E+00 -0.14591441490E+03  0.14591441490E+03  0.00000000000E+00 0.  1.
         -6    2    1    2    0  503 -0.55531026972E+02 -0.80945918552E+02 -0.59170682567E+02  0.20872758818E+03  0.17444225321E+03 0.  0.
        -24    2    3    3    0    0 -0.34159845981E+02 -0.89117709267E+02  0.20117762323E+02  0.12607014427E+03  0.79875501460E+02 0.  0.
          6    2    1    2  501    0  0.55531026972E+02  0.80945918552E+02  0.80479782377E+03  0.82872838281E+03  0.17162534384E+03 0.  0.
         24    2    5    5    0    0  0.10184290177E+02  0.27842978180E+02  0.16901816839E+03  0.18910809779E+03  0.79471883106E+02 0.  0.
          5    1    5    5  501    0  0.45346736795E+02  0.53102940372E+02  0.63577965538E+03  0.63962028502E+03  0.47000000000E+01 0. -1.
        -13    1    6    6    0    0  0.36120028040E+02  0.71145130467E+01  0.34153971298E+02  0.50217193041E+02  0.00000000000E+00 0.  1.
         14    1    6    6    0    0 -0.25935737863E+02  0.20728465133E+02  0.13486419709E+03  0.13889090475E+03  0.00000000000E+00 0. -1.
         -5    1    3    3    0  503 -0.21371180991E+02  0.81717907147E+01 -0.79288444890E+02  0.82657443909E+02  0.47000000000E+01 0.  1.
         13    1    4    4    0    0  0.20335230496E+02 -0.56467853254E+02  0.17380754420E+02  0.62483843309E+02  0.00000000000E+00 0. -1.
        -14    1    4    4    0    0 -0.54495076477E+02 -0.32649856013E+02  0.27370079030E+01  0.63586300964E+02  0.00000000000E+00 0.  1.
</event>
<event>
12    1  0.1030140E-001  0.2668641E+03  0.7818608E-02  0.1103112E+00
         21   -1    0    0  503  502  0.00000000000E+00  0.00000000000E+00  0.31853578121E+03  0.31853578121E+03  0.00000000000E+00 0. -1.
         21   -1    0    0  501  503 -0.00000000000E+00 -0.00000000000E+00 -0.65214458909E+03  0.65214458909E+03  0.00000000000E+00 0. -1.
          6    2    1    2  501    0 -0.19964474253E+03  0.40610435439E+02  0.22672177713E+03  0.35004614892E+03  0.17211133449E+03 0.  0.
         24    2    3    3    0    0 -0.79352833605E+02 -0.49572451428E+02  0.10786950419E+03  0.15834051723E+03  0.68422140577E+02 0.  0.
         -6    2    1    2    0  502  0.19964474253E+03 -0.40610435439E+02 -0.56033058501E+03  0.62063422137E+03  0.17236368976E+03 0.  0.
        -24    2    5    5    0    0  0.14602830195E+03  0.22113944101E+01 -0.50810491502E+03  0.53427426295E+03  0.77131239771E+02 0.  0.
          5    1    3    3  501    0 -0.12029190893E+03  0.90182886867E+02  0.11885227295E+03  0.19170563169E+03  0.47000000000E+01 0. -1.
        -11    1    4    4    0    0 -0.76369485739E+02 -0.60056661967E+02  0.72207154813E+02  0.12104947007E+03  0.00000000000E+00 0.  1.
         12    1    4    4    0    0 -0.29833478662E+01  0.10484210540E+02  0.35662349375E+02  0.37291047157E+02  0.00000000000E+00 0. -1.
         -5    1    5    5    0  502  0.53616440582E+02 -0.42821829849E+02 -0.52225669996E+02  0.86359958423E+02  0.47000000000E+01 0.  1.
         11    1    6    6    0    0  0.54627596460E+02  0.38337194432E+02 -0.19466512450E+03  0.20578733068E+03  0.00000000000E+00 0. -1.
        -12    1    6    6    0    0  0.91400705490E+02 -0.36125800022E+02 -0.31343979052E+03  0.32848693227E+03  0.00000000000E+00 0.  1.
</event>
<event>
12    1  0.1030140E-001  0.2234483E+03  0.7818608E-02  0.1131363E+00
         21   -1    0    0  501  502  0.00000000000E+00  0.00000000000E+00  0.68481562050E+03  0.68481562050E+03  0.00000000000E+00 0.  1.
         21   -1    0    0  502  503 -0.00000000000E+00 -0.00000000000E+00 -0.74616169014E+02  0.74616169014E+02  0.00000000000E+00 0. -1.
         -6    2    1    2    0  503  0.13769538131E+03  0.39806813983E+02  0.36318305133E+03  0.42634583448E+03  0.17124322274E+03 0.  0.
        -24    2    3    3    0    0  0.15310632016E+03  0.14027316578E+02  0.35508130594E+03  0.39488462343E+03  0.78821450812E+02 0.  0.
          6    2    1    2  501    0 -0.13769538131E+03 -0.39806813983E+02  0.24701640015E+03  0.33308595503E+03  0.17141922593E+03 0.  0.
         24    2    5    5    0    0 -0.12090675638E+03  0.85626558448E+01  0.24165268726E+03  0.28139143932E+03  0.78059964444E+02 0.  0.
          5    1    5    5  501    0 -0.16788624931E+02 -0.48369469828E+02  0.53637128957E+01  0.51694515710E+02  0.47000000000E+01 0. -1.
        -11    1    6    6    0    0 -0.69385009182E+02  0.40486467218E+01  0.20893619955E+03  0.22019311189E+03  0.00000000000E+00 0.  1.
         12    1    6    6    0    0 -0.51521747197E+02  0.45140091231E+01  0.32716487710E+02  0.61198327433E+02  0.00000000000E+00 0. -1.
         -5    1    3    3    0  503 -0.15410938853E+02  0.25779497404E+02  0.81017453919E+01  0.31461211057E+02  0.47000000000E+01 0.  1.
         13    1    4    4    0    0  0.16917809301E+02  0.17635638409E+02  0.15360494272E+02  0.28864732770E+02  0.00000000000E+00 0. -1.
        -14    1    4    4    0    0  0.13618851086E+03 -0.36083218302E+01  0.33972081167E+03  0.36601989066E+03  0.00000000000E+00 0.  1.
</event>
<event>
12    1  0.1030140E-001  0.1765787E+03  0.7818608E-02  0.1171181E+00
         21   -1    0    0  503  502  0.00000000000E+00  0.00000000000E+00  0.84830279629E+02  0.84830279629E+02  0.00000000000E+00 0.  1.
         21   -1    0    0  501  503 -0.00000000000E+00 -0.00000000000E+00 -0.41736934853E+03  0.41736934853E+03  0.00000000000E+00 0.  1.
          6    2    1    2  501    0  0.34673626517E+02 -0.22739910385E+02 -0.25315868379E+03  0.30859876960E+03  0.17153576163E+03 0.  0.
         24    2    3    3    0    0  0.64136622566E+01 -0.66749101682E+02 -0.15638451749E+03  0.19849534657E+03  0.10221402869E+03 0.  0.
         -6    2    1    2    0  502 -0.34673626517E+02  0.22739910385E+02 -0.79380385105E+02  0.19360085856E+03  0.17164114598E+03 0.  0.
        -24    2    5    5    0    0 -0.17445799179E+02  0.20598461208E+02 -0.12148083871E+03  0.14781961750E+03  0.79777143537E+02 0.  0.
          5    1    3    3  501    0  0.28259964261E+02  0.44009191298E+02 -0.96774166303E+02  0.11010342303E+03  0.47000000000E+01 0. -1.
        -11    1    4    4    0    0  0.28827120423E+02  0.13902364325E+02 -0.17879335948E+02  0.36659913525E+02  0.00000000000E+00 0.  1.
         12    1    4    4    0    0 -0.22413458166E+02 -0.80651466007E+02 -0.13850518154E+03  0.16183543305E+03  0.00000000000E+00 0. -1.
         -5    1    5    5    0  502 -0.17227827338E+02  0.21414491765E+01  0.42100453602E+02  0.45781241058E+02  0.47000000000E+01 0.  1.
         13    1    6    6    0    0  0.26346759823E+02  0.25343716524E+01 -0.13088635130E+02  0.29527735478E+02  0.00000000000E+00 0. -1.
        -14    1    6    6    0    0 -0.43792559003E+02  0.18064089556E+02 -0.10839220358E+03  0.11829188202E+03  0.00000000000E+00 0.  1.
</event>
<event>
12    1  0.1030140E-001  0.2587606E+03  0.7818608E-02  0.1108067E+00
         21   -1    0    0  503  502  0.00000000000E+00  0.00000000000E+00  0.81595713441E+02  0.81595713441E+02  0.00000000000E+00 0. -1.
         21   -1    0    0  501  503 -0.00000000000E+00 -0.00000000000E+00 -0.15999405001E+04  0.15999405001E+04  0.00000000000E+00 0.  1.
          6    2    1    2  501    0  0.52840903787E+02 -0.18449366539E+03 -0.13464847715E+04  0.13709030972E+04  0.17182545917E+03 0.  0.
         24    2    3    3    0    0 -0.31270486406E+02 -0.93315569165E+02 -0.54968747195E+03  0.56449364927E+03  0.82529536965E+02 0.  0.
         -6    2    1    2    0  502 -0.52840903787E+02  0.18449366539E+03 -0.17186001517E+03  0.31063311633E+03  0.17357129504E+03 0.  0.
        -24    2    5    5    0    0 -0.43137047697E+02  0.14549193104E+03 -0.48503164189E+02  0.18080899380E+03  0.85502212967E+02 0.  0.
          5    1    3    3  501    0  0.84111390193E+02 -0.91178096224E+02 -0.79679729956E+03  0.80640944798E+03  0.47000000000E+01 0. -1.
        -13    1    4    4    0    0  0.25892777344E+01 -0.90550434658E+02 -0.45413165914E+03  0.46307844844E+03  0.00000000000E+00 0.  1.
         14    1    4    4    0    0 -0.33859764140E+02 -0.27651345074E+01 -0.95555812812E+02  0.10141520083E+03  0.00000000000E+00 0. -1.
         -5    1    5    5    0  502 -0.97038560900E+01  0.39001734350E+02 -0.12335685098E+03  0.12982412252E+03  0.47000000000E+01 0.  1.
         11    1    6    6    0    0 -0.37387934638E+02  0.15031784222E+03 -0.60799412827E+02  0.16640276424E+03  0.00000000000E+00 0. -1.
        -12    1    6    6    0    0 -0.57491130595E+01 -0.48259111813E+01  0.12296248638E+02  0.14406229564E+02  0.00000000000E+00 0.  1.
</event>
<event>
12    1  0.1030140E-001  0.2182396E+03  0.7818608E-02  0.1135600E+00
         21   -1    0    0  501  502  0.00000000000E+00  0.00000000000E+00  0.35463559112E+03  0.35463559112E+03  0.00000000000E+00 0.  1.
         21   -1    0    0  502  503 -0.00000000000E+00 -0.00000000000E+00 -0.18606636963E+03  0.18606636963E+03  0.00000000000E+00 0.  1.
         -6    2    1    2    0  503  0.46966859459E+02 -0.12349556395E+03 -0.59784190203E+02  0.22628011256E+03  0.17369945233E+03 0.  0.
        -24    2    3    3    0    0  0.96894420685E+02 -0.10220362754E+03 -0.57091049335E+02  0.17173241844E+03  0.79990783137E+02 0.  0.
          6    2    1    2  501    0 -0.46966859459E+02  0.12349556395E+03  0.22835341169E+03  0.31442184819E+03  0.17105197392E+03 0.  0.
         24    2    5    5    0    0  0.31872955243E+02  0.10383676569E+03  0.14270439279E+03  0.19626928084E+03  0.79744138935E+02 0.  0.
          5    1    5    5  501    0 -0.78839814702E+02  0.19658798260E+02  0.85649018902E+02  0.11815256735E+03  0.47000000000E+01 0. -1.
        -13    1    6    6    0    0 -0.15534146373E+02  0.49101791261E+02  0.99260969321E+02  0.11182591667E+03  0.00000000000E+00 0.  1.
         14    1    6    6    0    0  0.47407101616E+02  0.54734974433E+02  0.43443423471E+02  0.84443364172E+02  0.00000000000E+00 0. -1.
         -5    1    3    3    0  503 -0.49927561226E+02 -0.21291936409E+02 -0.26931408681E+01  0.54547694119E+02  0.47000000000E+01 0.  1.
         13    1    4    4    0    0  0.94721664325E+02 -0.80312224092E+02 -0.16119124302E+02  0.12522808471E+03  0.00000000000E+00 0. -1.
        -14    1    4    4    0    0  0.21727563602E+01 -0.21891403452E+02 -0.40971925033E+02  0.46504333736E+02  0.00000000000E+00 0.  1.
</event>
<event>
12    1  0.1030140E-001  0.1945560E+03  0.7818608E-02  0.1154504E+00
         21   -1    0    0  503  502  0.00000000000E+00  0.00000000000E+00  0.16974938387E+03  0.16974938387E+03  0.00000000000E+00 0.  1.
         21   -1    0    0  501  503 -0.00000000000E+00 -0.00000000000E+00 -0.22319583288E+03  0.22319583288E+03  0.00000000000E+00 0. -1.
          6    2    1    2  501    0  0.81659313830E+02 -0.27296667738E+02 -0.37524719931E+02  0.19814170904E+03  0.17446684685E+03 0.  0.
         24    2    3    3    0    0  0.44535991429E+02 -0.79948211647E+02 -0.50091202545E+02  0.13233644612E+03  0.81416431518E+02 0.  0.
         -6    2    1    2    0  502 -0.81659313830E+02  0.27296667738E+02 -0.15921729080E+02  0.19480350772E+03  0.17401595777E+03 0.  0.
        -24    2    5    5    0    0 -0.90666651738E+01 -0.43886445700E+02 -0.22093484408E+02  0.92838274225E+02  0.78247035562E+02 0.  0.
          5    1    3    3  501    0  0.37123322402E+02  0.52651543909E+02  0.12566482614E+02  0.65805262916E+02  0.47000000000E+01 0. -1.
        -13    1    4    4    0    0  0.63567279751E+02 -0.79006463396E+02 -0.32721037894E+02  0.10655274109E+03  0.00000000000E+00 0.  1.
         14    1    4    4    0    0 -0.19031288323E+02 -0.94174825149E+00 -0.17370164651E+02  0.25783705028E+02  0.00000000000E+00 0. -1.
         -5    1    5    5    0  502 -0.72592648656E+02  0.71183113438E+02  0.61717553288E+01  0.10196523349E+03  0.47000000000E+01 0.  1.
         13    1    6    6    0    0 -0.77294491241E+01 -0.24359835317E+02  0.28684940521E+02  0.38418378064E+02  0.00000000000E+00 0. -1.
        -14    1    6    6    0    0 -0.13372160497E+01 -0.19526610383E+02 -0.50778424929E+02  0.54419896160E+02  0.00000000000E+00 0.  1.
</event>
<event>
12    1  0.1030140E-001  0.2801603E+03  0.7818608E-02  0.1096587E+00
         21   -1    0    0  503  502  0.00000000000E+00  0.00000000000E+00  0.17758038987E+03  0.17758038987E+03  0.00000000000E+00 0.  1.
         21   -1    0    0  501  503 -0.00000000000E+00 -0.00000000000E+00 -0.55292929203E+03  0.55292929203E+03  0.00000000000E+00 0. -1.
          6    2    1    2  501    0 -0.16272596236E+03 -0.13590954828E+03 -0.36118412373E+03  0.45710366759E+03  0.18313559881E+03 0.  0.
         24    2    3    3    0    0 -0.55444019453E+02 -0.46682105041E+02 -0.26891741587E+03  0.28975317527E+03  0.79919132859E+02 0.  0.
         -6    2    1    2    0  502  0.16272596236E+03  0.13590954828E+03 -0.14164778419E+02  0.27340601431E+03  0.17204378388E+03 0.  0.
        -24    2    5    5    0    0  0.22967249956E+02  0.90963563112E+02 -0.26562261707E+02  0.12600036018E+03  0.79803963779E+02 0.  0.
          5    1    3    3  501    0 -0.10728194291E+03 -0.89227443240E+02 -0.92266707868E+02  0.16735049233E+03  0.47000000000E+01 0. -1.
        -11    1    4    4    0    0 -0.52063407739E+02  0.77788793844E+01 -0.11579977853E+03  0.12720337298E+03  0.00000000000E+00 0.  1.
         12    1    4    4    0    0 -0.33806117135E+01 -0.54460984426E+02 -0.15311763733E+03  0.16254980228E+03  0.00000000000E+00 0. -1.
         -5    1    5    5    0  502  0.13975871240E+03  0.44945985170E+02  0.12397483289E+02  0.14740565412E+03  0.47000000000E+01 0.  1.
         11    1    6    6    0    0  0.17116684819E+02 -0.10469140107E+02 -0.11950472943E+02  0.23353749107E+02  0.00000000000E+00 0. -1.
        -12    1    6    6    0    0  0.58505651366E+01  0.10143270322E+03 -0.14611788764E+02  0.10264661108E+03  0.00000000000E+00 0.  1.
</event>
<event>
12    1  0.1030140E-001  0.2456684E+03  0.7818608E-02  0.1116610E+00
         21   -1    0    0  501  502  0.00000000000E+00  0.00000000000E+00  0.70354606619E+03  0.70354606619E+03  0.00000000000E+00 0.  1.
         21   -1    0    0  502  503 -0.00000000000E+00 -0.00000000000E+00 -0.17006113885E+03  0.17006113885E+03  0.00000000000E+00 0.  1.
         -6    2    1    2    0  503 -0.20817672322E+02  0.16982427409E+03 -0.43734370467E+02  0.24628345760E+03  0.17166591617E+03 0.  0.
        -24    2    3    3    0    0 -0.23772035235E+02  0.13901111788E+03 -0.93919712517E+02  0.18713248624E+03  0.79425779533E+02 0.  0.
          6    2    1    2  501    0  0.20817672322E+02 -0.16982427409E+03  0.57721929781E+03  0.62732374745E+03  0.17629324093E+03 0.  0.
         24    2    5    5    0    0  0.60345073176E+02 -0.87462356996E+02  0.45636212060E+03  0.47575050413E+03  0.82346616926E+02 0.  0.
          5    1    5    5  501    0 -0.39527400854E+02 -0.82361917094E+02  0.12085717721E+03  0.15157324331E+03  0.47000000000E+01 0. -1.
        -11    1    6    6    0    0  0.56455273215E+02 -0.14295962729E+02  0.15417229478E+03  0.16480494199E+03  0.00000000000E+00 0.  1.
         12    1    6    6    0    0  0.38897999601E+01 -0.73166394267E+02  0.30218982581E+03  0.31094556215E+03  0.00000000000E+00 0. -1.
         -5    1    3    3    0  503  0.29543629134E+01  0.30813156213E+02  0.50185342050E+02  0.59150971359E+02  0.47000000000E+01 0.  1.
         11    1    4    4    0    0 -0.18636992303E+02  0.25206275416E+02  0.10030198287E+02  0.32913503006E+02  0.00000000000E+00 0. -1.
        -12    1    4    4    0    0 -0.51350429321E+01  0.11380484246E+03 -0.10394991080E+03  0.15421898323E+03  0.00000000000E+00 0.  1.
</event>
<event>
12    1  0.1030140E-001  0.2112493E+03  0.7818608E-02  0.1140728E+00
         21   -1    0    0  501  502  0.00000000000E+00  0.00000000000E+00  0.51398533961E+03  0.51398533961E+03  0.00000000000E+00 0.  1.
         21   -1    0    0  502  503 -0.00000000000E+00 -0.00000000000E+00 -0.10011540756E+03  0.10011540756E+03  0.00000000000E+00 0.  1.
         -6    2    1    2    0  503 -0.12031227995E+03 -0.18390554114E+02  0.93447092952E+02  0.23030777365E+03  0.17174415342E+03 0.  0.
        -24    2    3    3    0    0 -0.89538339361E+01  0.12373979379E+01 -0.62141239064E+01  0.79508542399E+02  0.78748274157E+02 0.  0.
          6    2    1    2  501    0  0.12031227995E+03  0.18390554114E+02  0.32042283910E+03  0.38379297353E+03  0.17266439565E+03 0.  0.
         24    2    5    5    0    0  0.30651404983E+02 -0.40776563666E+01  0.25828702754E+03  0.27231722702E+03  0.80550280110E+02 0.  0.
          5    1    5    5  501    0  0.89660874965E+02  0.22468210480E+02  0.62135811563E+02  0.11147574651E+03  0.47000000000E+01 0. -1.
        -13    1    6    6    0    0  0.47857850008E+02 -0.10571419541E+02  0.85477892219E+02  0.98532222022E+02  0.00000000000E+00 0.  1.
         14    1    6    6    0    0 -0.17206445025E+02  0.64937631744E+01  0.17280913532E+03  0.17378500499E+03  0.00000000000E+00 0. -1.
         -5    1    3    3    0  503 -0.11135844601E+03 -0.19627952052E+02  0.99661216858E+02  0.15079923125E+03  0.47000000000E+01 0.  1.
         11    1    4    4    0    0 -0.18430958671E+01  0.39535576330E+02 -0.85291795769E+01  0.40487105384E+02  0.00000000000E+00 0. -1.
        -12    1    4    4    0    0 -0.71107380691E+01 -0.38298178392E+02  0.23150556704E+01  0.39021437016E+02  0.00000000000E+00 0.  1.
</event>
<event>
12    1  0.1030140E-001  0.1778752E+03  0.7818608E-02  0.1169939E+00
         21   -1    0    0  503  502  0.00000000000E+00  0.00000000000E+00  0.15633904372E+03  0.15633904372E+03  0.00000000000E+00 0.  1.
         21   -1    0    0  501  503 -0.00000000000E+00 -0.00000000000E+00 -0.20213214253E+03  0.20213214253E+03  0.00000000000E+00 0.  1.
          6    2    1    2  501    0 -0.92433246942E+00  0.45096449783E+02 -0.20168691641E+02  0.17875978473E+03  0.17179563540E+03 0.  0.
         24    2    3    3    0    0  0.18915016200E+00 -0.32864147616E+02 -0.44660936670E+02  0.96899814924E+02  0.79466262600E+02 0.  0.
         -6    2    1    2    0  502  0.92433246942E+00 -0.45096449783E+02 -0.25624407169E+02  0.17971140151E+03  0.17206113279E+03 0.  0.
        -24    2    5    5    0    0 -0.27182472959E+02  0.15726667020E+02 -0.61841804690E+02  0.10340128467E+03  0.76688995121E+02 0.  0.
          5    1    3    3  501    0 -0.11134826314E+01  0.77960597399E+02  0.24492245029E+02  0.81859969808E+02  0.47000000000E+01 0. -1.
        -13    1    4    4    0    0  0.28974803020E+02  0.12681925664E+02 -0.21550271760E+02  0.38272505295E+02  0.00000000000E+00 0.  1.
         14    1    4    4    0    0 -0.28785652858E+02 -0.45546073280E+02 -0.23110664911E+02  0.58627309629E+02  0.00000000000E+00 0. -1.
         -5    1    5    5    0  502  0.28106805429E+02 -0.60823116803E+02  0.36217397521E+02  0.76310116841E+02  0.47000000000E+01 0.  1.
         13    1    6    6    0    0 -0.41677180419E+01 -0.20354801291E+02 -0.56589992764E+02  0.60283622074E+02  0.00000000000E+00 0. -1.
        -14    1    6    6    0    0 -0.23014754917E+02  0.36081468311E+02 -0.52518119263E+01  0.43117662598E+02  0.00000000000E+00 0.  1.
</event>
<event>
12    1  0.1030140E-001  0.1821854E+03  0.7818608E-02  0.1166496E+00
         21   -1    0    0  501  502  0.00000000000E+00  0.00000000000E+00  0.63731631218E+03  0.63731631218E+03  0.00000000000E+00 0. -1.
         21   -1    0    0  502  503 -0.00000000000E+00 -0.00000000000E+00 -0.93858780264E+02  0.93858780264E+02  0.00000000000E+00 0. -1.
         -6    2    1    2    0  503  0.38295142059E+02  0.41849495825E+02  0.23757429854E+02  0.18046670500E+03  0.16966413272E+03 0.  0.
        -24    2    3    3    0    0  0.12756974550E+02 -0.31360496288E+02 -0.22798023958E+02  0.89905116976E+02  0.80105923845E+02 0.  0.
          6    2    1    2  501    0 -0.38295142059E+02 -0.41849495825E+02  0.51970010207E+03  0.55070838745E+03  0.17312895112E+03 0.  0.
         24    2    5    5    0    0 -0.57409318587E+01 -0.61228130479E+02  0.16401328376E+03  0.19297872583E+03  0.80985116628E+02 0.  0.
          5    1    5    5  501    0 -0.32554210200E+02  0.19378634654E+02  0.35568681831E+03  0.35772966162E+03  0.47000000000E+01 0. -1.
        -11    1    6    6    0    0 -0.41174425109E+02 -0.24234732366E+02  0.10131445081E+03  0.11201461279E+03  0.00000000000E+00 0.  1.
         12    1    6    6    0    0  0.35433493251E+02 -0.36993398112E+02  0.62698832948E+02  0.80964113043E+02  0.00000000000E+00 0. -1.
         -5    1    3    3    0  503  0.25538167509E+02  0.73209992113E+02  0.46555453812E+02  0.90561588019E+02  0.47000000000E+01 0.  1.
         13    1    4    4    0    0  0.26519051537E+02 -0.37879768519E+02 -0.43981442224E+02  0.63816175203E+02  0.00000000000E+00 0. -1.
        -14    1    4    4    0    0 -0.13762076987E+02  0.65192722307E+01  0.21183418266E+02  0.26088941773E+02  0.00000000000E+00 0.  1.
</event>
<event>
12    1  0.1030140E-001  0.1957056E+03  0.7818608E-02  0.1153528E+00
         21   -1    0    0  501  502  0.00000000000E+00  0.00000000000E+00  0.66745644723E+02  0.66745644723E+02  0.00000000000E+00 0. -1.
         21   -1    0    0  502  503 -0.00000000000E+00 -0.00000000000E+00 -0.63209647736E+03  0.63209647736E+03  0.00000000000E+00 0. -1.
         -6    2    1    2    0  503 -0.84593679187E+02  0.38077162039E+02 -0.17553540949E+03  0.26289416975E+03  0.17232151252E+03 0.  0.
        -24    2    3    3    0    0 -0.39730319213E+02  0.10560035539E+02 -0.18681189014E+03  0.20886489681E+03  0.83879975003E+02 0.  0.
          6    2    1    2  501    0  0.84593679187E+02 -0.38077162039E+02 -0.38981542315E+03  0.43594795234E+03  0.17172242776E+03 0.  0.
         24    2    5    5    0    0  0.59268244631E+01 -0.46677031143E+02 -0.30789243245E+03  0.32194839889E+03  0.81480973879E+02 0.  0.
          5    1    5    5  501    0  0.78666854724E+02  0.85998691038E+01 -0.81922990701E+02  0.11399955345E+03  0.47000000000E+01 0. -1.
        -11    1    6    6    0    0 -0.16834777931E+02  0.44351918040E+01 -0.12825401668E+02  0.21623404040E+02  0.00000000000E+00 0.  1.
         12    1    6    6    0    0  0.22761602394E+02 -0.51112222947E+02 -0.29506703078E+03  0.30032499485E+03  0.00000000000E+00 0. -1.
         -5    1    3    3    0  503 -0.44863359974E+02  0.27517126500E+02  0.11276480645E+02  0.54029272942E+02  0.47000000000E+01 0.  1.
         11    1    4    4    0    0  0.18121151683E+02  0.15786202012E+02 -0.17121972032E+02  0.29508341847E+02  0.00000000000E+00 0. -1.
        -12    1    4    4    0    0 -0.57851470896E+02 -0.52261664728E+01 -0.16968991810E+03  0.17935655496E+03  0.00000000000E+00 0.  1.
</event>
<event>
12    1  0.1030140E-001  0.3064840E+03  0.7818608E-02  0.1082151E+00
         21   -1    0    0  501  502  0.00000000000E+00  0.00000000000E+00  0.12013131031E+03  0.12013131031E+03  0.00000000000E+00 0.  1.
         21   -1    0    0  502  503 -0.00000000000E+00 -0.00000000000E+00 -0.10198975692E+04  0.10198975692E+04  0.00000000000E+00 0. -1.
         -6    2    1    2    0  503 -0.18688663909E+03 -0.17112395045E+03 -0.72603590872E+03  0.78772978150E+03  0.17082167785E+03 0.  0.
        -24    2    3    3    0    0 -0.12169503399E+03 -0.83190493580E+02 -0.26564112019E+03  0.31447753425E+03  0.81243924678E+02 0.  0.
          6    2    1    2  501    0  0.18688663909E+03  0.17112395045E+03 -0.17373035017E+03  0.35229909800E+03  0.17240184916E+03 0.  0.
         24    2    5    5    0    0  0.19197598818E+03  0.17602925914E+03 -0.19163921093E+03  0.33248039923E+03  0.77308140541E+02 0.  0.
          5    1    5    5  501    0 -0.50893490906E+01 -0.49053086861E+01  0.17908860759E+02  0.19818698775E+02  0.47000000000E+01 0. -1.
        -13    1    6    6    0    0  0.68377087941E+02  0.68551742832E+02 -0.27628334122E+02  0.10068809486E+03  0.00000000000E+00 0.  1.
         14    1    6    6    0    0  0.12359890024E+03  0.10747751631E+03 -0.16401087681E+03  0.23179230437E+03  0.00000000000E+00 0. -1.
         -5    1    3    3    0  503 -0.65191605098E+02 -0.87933456875E+02 -0.46039478853E+03  0.47325224725E+03  0.47000000000E+01 0.  1.
         11    1    4    4    0    0 -0.56910871890E+02 -0.40975534544E+02 -0.20360467343E+03  0.21534322560E+03  0.00000000000E+00 0. -1.
        -12    1    4    4    0    0 -0.64784162103E+02 -0.42214959036E+02 -0.62036446754E+02  0.99134308650E+02  0.00000000000E+00 0.  1.
</event>
<event>
12    1  0.1030140E-001  0.1903681E+03  0.7818608E-02  0.1158477E+00
         21   -1    0    0  501  502  0.00000000000E+00  0.00000000000E+00  0.10836296231E+03  0.10836296231E+03  0.00000000000E+00 0.  1.
         21   -1    0    0  502  503 -0.00000000000E+00 -0.00000000000E+00 -0.34118618449E+03  0.34118618449E+03  0.00000000000E+00 0. -1.
         -6    2    1    2    0  503  0.52550811642E+02  0.57644044387E+02 -0.15335414815E+03  0.24325971204E+03  0.17196909341E+03 0.  0.
        -24    2    3    3    0    0  0.55124877988E+02  0.10322064154E+03 -0.12856585691E+03  0.19110224461E+03  0.79357641841E+02 0.  0.
          6    2    1    2  501    0 -0.52550811642E+02 -0.57644044387E+02 -0.79469074031E+02  0.20628943476E+03  0.17365360206E+03 0.  0.
         24    2    5    5    0    0 -0.84318974944E+02 -0.85865475539E+02 -0.44139676137E+02  0.15082844188E+03  0.79487976735E+02 0.  0.
          5    1    5    5  501    0  0.31768163303E+02  0.28221431152E+02 -0.35329397894E+02  0.55460992882E+02  0.47000000000E+01 0. -1.
        -13    1    6    6    0    0 -0.22766087448E+02 -0.73314558465E+02 -0.52538737642E+01  0.76947530241E+02  0.00000000000E+00 0.  1.
         14    1    6    6    0    0 -0.61552887496E+02 -0.12550917074E+02 -0.38885802373E+02  0.73880911639E+02  0.00000000000E+00 0. -1.
         -5    1    3    3    0  503 -0.25740663466E+01 -0.45576597155E+02 -0.24788291235E+02  0.52157467424E+02  0.47000000000E+01 0.  1.
         11    1    4    4    0    0 -0.17556088255E+02  0.38516127299E+02 -0.25784698139E+02  0.49563685850E+02  0.00000000000E+00 0. -1.
        -12    1    4    4    0    0  0.72680966244E+02  0.64704514243E+02 -0.10278115877E+03  0.14153855876E+03  0.00000000000E+00 0.  1.
</event>
<event>
12    1  0.1030140E-001  0.1926215E+03  0.7818608E-02  0.1156944E+00
         21   -1    0    0  503  502  0.00000000000E+00  0.00000000000E+00  0.64898497146E+02  0.64898497146E+02  0.00000000000E+00 0. -1.
         21   -1    0    0  501  503 -0.00000000000E+00 -0.00000000000E+00 -0.82387094884E+03  0.82387094884E+03  0.00000000000E+00 0. -1.
          6    2    1    2  501    0 -0.16985505072E+02  0.84814420575E+02 -0.63308836754E+03  0.66174310774E+03  0.17210771689E+03 0.  0.
         24    2    3    3    0    0 -0.62375312039E+02  0.66327001737E+02 -0.56592628816E+03  0.57846733613E+03  0.77858491010E+02 0.  0.
         -6    2    1    2    0  502  0.16985505072E+02 -0.84814420575E+02 -0.12588408416E+03  0.22702633825E+03  0.16796476504E+03 0.  0.
        -24    2    5    5    0    0 -0.25837774571E+02 -0.10854904377E+03 -0.74969221625E+02  0.15623383268E+03  0.79612441133E+02 0.  0.
          5    1    3    3  501    0  0.45389806968E+02  0.18487418838E+02 -0.67162079375E+02  0.83275771613E+02  0.47000000000E+01 0. -1.
        -11    1    4    4    0    0 -0.48467911312E+02 -0.18871453417E+01 -0.28126901937E+03  0.28542067375E+03  0.00000000000E+00 0.  1.
         12    1    4    4    0    0 -0.13907400727E+02  0.68214147079E+02 -0.28465726879E+03  0.29304666238E+03  0.00000000000E+00 0. -1.
         -5    1    5    5    0  502  0.42823279643E+02  0.23734623200E+02 -0.50914862534E+02  0.70792505569E+02  0.47000000000E+01 0.  1.
         11    1    6    6    0    0  0.17473568836E+01 -0.11357589394E+02  0.16393451234E+02  0.20019823583E+02  0.00000000000E+00 0. -1.
        -12    1    6    6    0    0 -0.27585131455E+02 -0.97191454381E+02 -0.91362672859E+02  0.13621400910E+03  0.00000000000E+00 0.  1.
</event>
<event>
12    1  0.1030140E-001  0.1790377E+03  0.7818608E-02  0.1168834E+00
         21   -1    0    0  501  502  0.00000000000E+00  0.00000000000E+00  0.31355954148E+03  0.31355954148E+03  0.00000000000E+00 0. -1.
         21   -1    0    0  502  503 -0.00000000000E+00 -0.00000000000E+00 -0.13519606217E+03  0.13519606217E+03  0.00000000000E+00 0.  1.
         -6    2    1    2    0  503 -0.43099255401E+02 -0.19254208153E+02 -0.22072470048E+02  0.18000095108E+03  0.17229300075E+03 0.  0.
        -24    2    3    3    0    0 -0.42920407375E+02 -0.77648479172E+02 -0.18015076274E+02  0.12127723084E+03  0.80698054869E+02 0.  0.
          6    2    1    2  501    0  0.43099255401E+02  0.19254208153E+02  0.20043594937E+03  0.26875465257E+03  0.17270270158E+03 0.  0.
         24    2    5    5    0    0 -0.21621016664E+02  0.44820467321E+02  0.55831509163E+02  0.10820907851E+03  0.78202970559E+02 0.  0.
          5    1    5    5  501    0  0.64720272066E+02 -0.25566259169E+02  0.14460444020E+03  0.16054557406E+03  0.47000000000E+01 0. -1.
        -11    1    6    6    0    0 -0.35411459254E+02  0.59271818358E+02  0.54902130035E+02  0.88212038750E+02  0.00000000000E+00 0.  1.
         12    1    6    6    0    0  0.13790442590E+02 -0.14451351037E+02  0.92937912772E+00  0.19997039761E+02  0.00000000000E+00 0. -1.
         -5    1    3    3    0  503 -0.17884802614E+00  0.58394271019E+02 -0.40573937736E+01  0.58723720239E+02  0.47000000000E+01 0.  1.
         11    1    4    4    0    0  0.22299480539E+02 -0.12175320996E+02 -0.13457463972E+02  0.28750801906E+02  0.00000000000E+00 0. -1.
        -12    1    4    4    0    0 -0.65219887914E+02 -0.65473158175E+02 -0.45576123022E+01  0.92526428932E+02  0.00000000000E+00 0.  1.
</event>
<event>
12    1  0.1030140E-001  0.1755225E+03  0.7818608E-02  0.1172394E+00
         21   -1    0    0  503  502  0.00000000000E+00  0.00000000000E+00  0.16919115356E+03  0.16919115356E+03  0.00000000000E+00 0. -1.
         21   -1    0    0  501  503 -0.00000000000E+00 -0.00000000000E+00 -0.24518664898E+03  0.24518664898E+03  0.00000000000E+00 0. -1.
          6    2    1    2  501    0  0.19435783767E+02  0.33196573439E+02 -0.14367993602E+03  0.22625723319E+03  0.17049530602E+03 0.  0.
         24    2    3    3    0    0  0.31927646612E+02  0.59967305978E+02 -0.28156907031E+02  0.10692417412E+03  0.77617750507E+02 0.  0.
         -6    2    1    2    0  502 -0.19435783767E+02 -0.33196573439E+02  0.67684440602E+02  0.18812056935E+03  0.17125537344E+03 0.  0.
        -24    2    5    5    0    0  0.32443019845E+02 -0.62867832901E+02  0.13993292236E+02  0.10764309849E+03  0.79914394666E+02 0.  0.
          5    1    3    3  501    0 -0.12491862845E+02 -0.26770732539E+02 -0.11552302899E+03  0.11933305906E+03  0.47000000000E+01 0. -1.
        -11    1    4    4    0    0  0.14644637452E+01 -0.14242068583E+02  0.10618926857E+02  0.17825340927E+02  0.00000000000E+00 0.  1.
         12    1    4    4    0    0  0.30463182866E+02  0.74209374561E+02 -0.38775833888E+02  0.89098833195E+02  0.00000000000E+00 0. -1.
         -5    1    5    5    0  502 -0.51878803612E+02  0.29671259462E+02  0.53691148366E+02  0.80477470855E+02  0.47000000000E+01 0.  1.
         13    1    6    6    0    0  0.90111397369E+01  0.17333242854E+02  0.14094017834E+02  0.24089069843E+02  0.00000000000E+00 0. -1.
        -14    1    6    6    0    0  0.23431880108E+02 -0.80201075755E+02 -0.10072559834E+00  0.83554028648E+02  0.00000000000E+00 0.  1.
</event>
<event>
12    1  0.1030140E-001  0.2083002E+03  0.7818608E-02  0.1143132E+00
         21   -1    0    0  501  502  0.00000000000E+00  0.00000000000E+00  0.10883750775E+04  0.10883750775E+04  0.00000000000E+00 0. -1.
         21   -1    0    0  502  503 -0.00000000000E+00 -0.00000000000E+00 -0.67580384455E+02  0.67580384455E+02  0.00000000000E+00 0. -1.
         -6    2    1    2    0  503 -0.58248395256E+02 -0.96474807049E+02  0.13814762070E+03  0.24906251127E+03  0.17391694992E+03 0.  0.
        -24    2    3    3    0    0 -0.45688891624E+01 -0.11482784396E+03  0.58958535752E+02  0.15153649159E+03  0.79252071582E+02 0.  0.
          6    2    1    2  501    0  0.58248395256E+02  0.96474807049E+02  0.88264707231E+03  0.90689295065E+03  0.17518192185E+03 0.  0.
         24    2    5    5    0    0 -0.71319402614E+01  0.25411693923E+02  0.20078379927E+03  0.21821002837E+03  0.81270312374E+02 0.  0.
          5    1    5    5  501    0  0.65380335517E+02  0.71063113126E+02  0.68186327304E+03  0.68868292228E+03  0.47000000000E+01 0. -1.
        -11    1    6    6    0    0  0.25237064355E+02 -0.65656545075E+01  0.23245281817E+02  0.34933656596E+02  0.00000000000E+00 0.  1.
         12    1    6    6    0    0 -0.32369004617E+02  0.31977348430E+02  0.17753851745E+03  0.18327637178E+03  0.00000000000E+00 0. -1.
         -5    1    3    3    0  503 -0.53679506093E+02  0.18353036912E+02  0.79189084952E+02  0.97526019676E+02  0.47000000000E+01 0.  1.
         13    1    4    4    0    0  0.90390775457E+01 -0.40756145104E+02 -0.16534491855E+02  0.44901644820E+02  0.00000000000E+00 0. -1.
        -14    1    4    4    0    0 -0.13607966708E+02 -0.74071698856E+02  0.75493027607E+02  0.10663484677E+03  0.00000000000E+00 0.  1.
</event>
<event>
12    1  0.1030140E-001  0.1963464E+03  0.7818608E-02  0.1153992E+00
         21   -1    0    0  503  502  0.00000000000E+00  0.00000000000E+00  0.13919651854E+03  0.13919651854E+03  0.00000000000E+00 0.  1.
         21   -1    0    0  501  503 -0.00000000000E+00 -0.00000000000E+00 -0.53205750000E+03  0.53205750000E+03  0.00000000000E+00 0.  1.
          6    2    1    2  501    0 -0.37481509052E+02  0.73318413769E+02 -0.43076561092E+03  0.47128237581E+03  0.17253293275E+03 0.  0.
         24    2    3    3    0    0  0.30580851897E+02  0.63721422107E+00 -0.25673475422E+03  0.27072347965E+03  0.80267514393E+02 0.  0.
         -6    2    1    2    0  502  0.37481509052E+02 -0.73318413769E+02  0.37904629453E+02  0.19997164273E+03  0.17824545897E+03 0.  0.
        -24    2    5    5    0    0 -0.29150098610E+02 -0.60461523844E+01  0.62773826416E+02  0.10196197357E+03  0.74628456797E+02 0.  0.
          5    1    3    3  501    0 -0.68062360949E+02  0.72681199548E+02 -0.17403085670E+03  0.20055889616E+03  0.47000000000E+01 0. -1.
        -11    1    4    4    0    0  0.36394358932E+02  0.11194643413E+02 -0.25581818571E+03  0.25863645053E+03  0.00000000000E+00 0.  1.
         12    1    4    4    0    0 -0.58135070351E+01 -0.10557429192E+02 -0.91656851019E+00  0.12087029123E+02  0.00000000000E+00 0. -1.
         -5    1    5    5    0  502  0.66631607662E+02 -0.67272261384E+02 -0.24869196963E+02  0.98009669161E+02  0.47000000000E+01 0.  1.
         13    1    6    6    0    0 -0.19589765569E+02  0.14543162243E+02 -0.95187077072E+01  0.26189087031E+02  0.00000000000E+00 0. -1.
        -14    1    6    6    0    0 -0.95603330409E+01 -0.20589314627E+02  0.72292534123E+02  0.75772886540E+02  0.00000000000E+00 0.  1.
</event>
<event>
12    1  0.1030140E-001  0.1965134E+03  0.7818608E-02  0.1152850E+00
         21   -1    0    0  503  502  0.00000000000E+00  0.00000000000E+00  0.11070949411E+04  0.11070949411E+04  0.00000000000E+00 0. -1.
         21   -1    0    0  501  503 -0.00000000000E+00 -0.00000000000E+00 -0.52475264970E+02  0.52475264970E+02  0.00000000000E+00 0. -1.
          6    2    1    2  501    0 -0.89651595959E+02  0.21463024997E+02  0.19109856025E+03  0.27410982165E+03  0.17354960241E+03 0.  0.
         24    2    3    3    0    0 -0.10083148182E+03 -0.10697863301E+02  0.66267099007E+02  0.14463281095E+03  0.79030940692E+02 0.  0.
         -6    2    1    2    0  502  0.89651595959E+02 -0.21463024997E+02  0.86352111585E+03  0.88546038439E+03  0.17283895599E+03 0.  0.
        -24    2    5    5    0    0  0.11217085143E+02 -0.73094961092E+02  0.35513070363E+03  0.36844903969E+03  0.64561457950E+02 0.  0.
          5    1    3    3  501    0  0.11179885861E+02  0.32160888297E+02  0.12483146125E+03  0.12947701070E+03  0.47000000000E+01 0. -1.
        -11    1    4    4    0    0 -0.49251372110E+02 -0.18269168302E+02  0.75209716681E+02  0.91738550503E+02  0.00000000000E+00 0.  1.
         12    1    4    4    0    0 -0.51580109710E+02  0.75713050014E+01 -0.89426176744E+01  0.52894260444E+02  0.00000000000E+00 0. -1.
         -5    1    5    5    0  502  0.78434510816E+02  0.51631936095E+02  0.50839041222E+03  0.51701134470E+03  0.47000000000E+01 0.  1.
         13    1    6    6    0    0  0.15902827032E+02 -0.26883658548E+02  0.26706104508E+03  0.26888144749E+03  0.00000000000E+00 0. -1.
        -14    1    6    6    0    0 -0.46857418896E+01 -0.46211302544E+02  0.88069658548E+02  0.99567592201E+02  0.00000000000E+00 0.  1.
</event>
<event>
12    1  0.1030140E-001  0.2478047E+03  0.7818608E-02  0.1115339E+00
         21   -1    0    0  503  502  0.00000000000E+00  0.00000000000E+00  0.31287676579E+03  0.31287676579E+03  0.00000000000E+00 0.  1.
         21   -1    0    0  501  503 -0.00000000000E+00 -0.00000000000E+00 -0.22283229711E+03  0.22283229711E+03  0.00000000000E+00 0. -1.
          6    2    1    2  501    0  0.50336070875E+01 -0.17278997067E+03 -0.52436547975E+02  0.25329183613E+03  0.17755408056E+03 0.  0.
         24    2    3    3    0    0  0.25052695048E+02 -0.14728558325E+03  0.23256700848E+02  0.17081277468E+03  0.79469801165E+02 0.  0.
         -6    2    1    2    0  502 -0.50336070875E+01  0.17278997067E+03  0.14248101666E+03  0.28241722677E+03  0.17197947176E+03 0.  0.
        -24    2    5    5    0    0 -0.39864422831E+02  0.40979012876E+02  0.98965271715E+02  0.13922845495E+03  0.79510917218E+02 0.  0.
          5    1    3    3  501    0 -0.20019087961E+02 -0.25504387420E+02 -0.75693248824E+02  0.82479061452E+02  0.47000000000E+01 0. -1.
        -13    1    4    4    0    0 -0.25323122632E+02 -0.21701113626E+02  0.10191069043E+02  0.34872005401E+02  0.00000000000E+00 0.  1.
         14    1    4    4    0    0  0.50375817681E+02 -0.12558446962E+03  0.13065631805E+02  0.13594076928E+03  0.00000000000E+00 0. -1.
         -5    1    5    5    0  502  0.34830815744E+02  0.13181095779E+03  0.43515744945E+02  0.14318877183E+03  0.47000000000E+01 0.  1.
         13    1    6    6    0    0 -0.48029601411E+02  0.62114614146E+01  0.19688483505E+02  0.52278688271E+02  0.00000000000E+00 0. -1.
        -14    1    6    6    0    0  0.81651785800E+01  0.34767551461E+02  0.79276788210E+02  0.86949766674E+02  0.00000000000E+00 0.  1.
</event>
<event>
12    1  0.1030140E-001  0.1822749E+03  0.7818608E-02  0.1166453E+00
         21   -1    0    0  501  502  0.00000000000E+00  0.00000000000E+00  0.17777554671E+03  0.17777554671E+03  0.00000000000E+00 0.  1.
         21   -1    0    0  502  503 -0.00000000000E+00 -0.00000000000E+00 -0.23966878146E+03  0.23966878146E+03  0.00000000000E+00 0.  1.
         -6    2    1    2    0  503  0.21097014486E+02  0.48591224758E+02 -0.13189434354E+03  0.22218992735E+03  0.17078072144E+03 0.  0.
        -24    2    3    3    0    0  0.71264059622E+02  0.55019243943E+01 -0.10696147914E+03  0.15135802811E+03  0.79747459445E+02 0.  0.
          6    2    1    2  501    0 -0.21097014486E+02 -0.48591224758E+02  0.70001108782E+02  0.19525440082E+03  0.17440738134E+03 0.  0.
         24    2    5    5    0    0  0.25697532350E+02 -0.79016775087E+02  0.13393786306E+02  0.11561821128E+03  0.79272715066E+02 0.  0.
          5    1    5    5  501    0 -0.46794546836E+02  0.30425550330E+02  0.56607322477E+02  0.79636189540E+02  0.47000000000E+01 0. -1.
        -13    1    6    6    0    0 -0.99113399918E+01 -0.28026003396E+02  0.38420481164E+02  0.48578028981E+02  0.00000000000E+00 0.  1.
         14    1    6    6    0    0  0.35608872341E+02 -0.50990771691E+02 -0.25026694859E+02  0.67040182299E+02  0.00000000000E+00 0. -1.
         -5    1    3    3    0  503 -0.50167045136E+02  0.43089300364E+02 -0.24932864399E+02  0.70831899245E+02  0.47000000000E+01 0.  1.
         13    1    4    4    0    0  0.32464961462E+02 -0.52141426120E+01 -0.10612016078E+03  0.11109747761E+03  0.00000000000E+00 0. -1.
        -14    1    4    4    0    0  0.38799098160E+02  0.10716067006E+02 -0.84131835364E+00  0.40260550502E+02  0.00000000000E+00 0.  1.
</event>
<event>
12    1  0.1030140E-001  0.1767357E+03  0.7818608E-02  0.1172486E+00
         21   -1    0    0  503  502  0.00000000000E+00  0.00000000000E+00  0.54382202112E+03  0.54382202112E+03  0.00000000000E+00 0. -1.
         21   -1    0    0  501  503 -0.00000000000E+00 -0.00000000000E+00 -0.22705502801E+03  0.22705502801E+03  0.00000000000E+00 0. -1.
          6    2    1    2  501    0  0.30254243383E+02 -0.32531316534E+02 -0.17725897918E+03  0.24618936335E+03  0.16496924298E+03 0.  0.
         24    2    3    3    0    0 -0.42598172287E+02 -0.23550921923E+02 -0.71830210240E+02  0.11763806123E+03  0.79434779169E+02 0.  0.
         -6    2    1    2    0  502 -0.30254243383E+02  0.32531316534E+02  0.49402597229E+03  0.52468768578E+03  0.17106110170E+03 0.  0.
        -24    2    5    5    0    0  0.36472309671E+02 -0.21631524953E+02  0.24308545410E+03  0.25939675124E+03  0.79987400975E+02 0.  0.
          5    1    3    3  501    0  0.72852415670E+02 -0.89803946104E+01 -0.10542876894E+03  0.12855130212E+03  0.47000000000E+01 0. -1.
        -11    1    4    4    0    0  0.55510094652E+01 -0.15619259519E+02  0.12120677500E+02  0.20534989580E+02  0.00000000000E+00 0.  1.
         12    1    4    4    0    0 -0.48149181752E+02 -0.79316624044E+01 -0.83950887740E+02  0.97103071652E+02  0.00000000000E+00 0. -1.
         -5    1    5    5    0  502 -0.66726553054E+02  0.54162841487E+02  0.25094051819E+03  0.26529093454E+03  0.47000000000E+01 0.  1.
         13    1    6    6    0    0  0.18779087274E+01  0.33084079062E+01  0.19534375813E+03  0.19538079728E+03  0.00000000000E+00 0. -1.
        -14    1    6    6    0    0  0.34594400943E+02 -0.24939932859E+02  0.47741695964E+02  0.64015953958E+02  0.00000000000E+00 0.  1.
</event>
<event>
12    1  0.1030140E-001  0.1984108E+03  0.7818608E-02  0.1152917E+00
         21   -1    0    0  501  502  0.00000000000E+00  0.00000000000E+00  0.22582510527E+03  0.22582510527E+03  0.00000000000E+00 0. -1.
         21   -1    0    0  502  503 -0.00000000000E+00 -0.00000000000E+00 -0.22979902054E+03  0.22979902054E+03  0.00000000000E+00 0.  1.
         -6    2    1    2    0  503 -0.57947756143E+02 -0.55346096160E+02 -0.12099865324E+03  0.22527298853E+03  0.17229658289E+03 0.  0.
        -24    2    3    3    0    0  0.21945358646E+02  0.58440654668E+01 -0.22137137362E+02  0.84124715456E+02  0.77917668296E+02 0.  0.
          6    2    1    2  501    0  0.57947756143E+02  0.55346096160E+02  0.11702473798E+03  0.23035113727E+03  0.18150957094E+03 0.  0.
         24    2    5    5    0    0  0.60683933007E+02  0.10280016209E+03  0.59136720284E+02  0.15530123634E+03  0.79817975867E+02 0.  0.
          5    1    5    5  501    0 -0.27361768640E+01 -0.47454065934E+02  0.57888017691E+02  0.75049900931E+02  0.47000000000E+01 0. -1.
        -13    1    6    6    0    0 -0.18362711406E+01  0.52596738252E+02 -0.46614560297E+01  0.52834817486E+02  0.00000000000E+00 0.  1.
         14    1    6    6    0    0  0.62520204147E+02  0.50203423841E+02  0.63798176314E+02  0.10246641886E+03  0.00000000000E+00 0. -1.
         -5    1    3    3    0  503 -0.79893114789E+02 -0.61190161626E+02 -0.98861515882E+02  0.14114827308E+03  0.47000000000E+01 0.  1.
         11    1    4    4    0    0 -0.36007669999E+01 -0.17617141254E+02  0.21728021542E+02  0.28203476897E+02  0.00000000000E+00 0. -1.
        -12    1    4    4    0    0  0.25546125646E+02  0.23461206721E+02 -0.43865158904E+02  0.55921238559E+02  0.00000000000E+00 0.  1.
</event>
<event>
12    1  0.1030140E-001  0.2203590E+03  0.7818608E-02  0.1133703E+00
         21   -1    0    0  501  502  0.00000000000E+00  0.00000000000E+00  0.10198580044E+03  0.10198580044E+03  0.00000000000E+00 0. -1.
         21   -1    0    0  502  503 -0.00000000000E+00 -0.00000000000E+00 -0.64413459550E+03  0.64413459550E+03  0.00000000000E+00 0. -1.
         -6    2    1    2    0  503  0.64526241637E+02  0.12216993421E+03 -0.46239116890E+03  0.51221448044E+03  0.17166523295E+03 0.  0.
        -24    2    3    3    0    0 -0.25450202779E+02  0.52417726686E+02 -0.14668413956E+03  0.17657457014E+03  0.79164456228E+02 0.  0.
          6    2    1    2  501    0 -0.64526241637E+02 -0.12216993421E+03 -0.79757626152E+02  0.23390591550E+03  0.17106013473E+03 0.  0.
         24    2    5    5    0    0 -0.58969122961E+02 -0.99265501008E+02  0.85087955655E+01  0.14242615910E+03  0.82956699802E+02 0.  0.
          5    1    5    5  501    0 -0.55571186758E+01 -0.22904433202E+02 -0.88266421718E+02  0.91479756401E+02  0.47000000000E+01 0. -1.
        -13    1    6    6    0    0 -0.17640667898E+01  0.93811905354E+01 -0.14639546261E+02  0.17476698264E+02  0.00000000000E+00 0.  1.
         14    1    6    6    0    0 -0.57205056171E+02 -0.10864669154E+03  0.23148341826E+02  0.12494946084E+03  0.00000000000E+00 0. -1.
         -5    1    3    3    0  503  0.89976444416E+02  0.69752207524E+02 -0.31570702935E+03  0.33563991030E+03  0.47000000000E+01 0.  1.
         13    1    4    4    0    0 -0.49690391756E+01  0.64419116674E+02 -0.65552986539E+02  0.92041881703E+02  0.00000000000E+00 0. -1.
        -14    1    4    4    0    0 -0.20481163604E+02 -0.12001389988E+02 -0.81131153017E+02  0.84532688435E+02  0.00000000000E+00 0.  1.
</event>
<event>
12    1  0.1030140E-001  0.2019402E+03  0.7818608E-02  0.1148240E+00
         21   -1    0    0  501  502  0.00000000000E+00  0.00000000000E+00  0.22172018823E+03  0.22172018823E+03  0.00000000000E+00 0. -1.
         21   -1    0    0  502  503 -0.00000000000E+00 -0.00000000000E+00 -0.18431491031E+03  0.18431491031E+03  0.00000000000E+00 0.  1.
         -6    2    1    2    0  503 -0.97861917741E+02 -0.36388945389E+02  0.33272269569E+02  0.20466285836E+03  0.17285465391E+03 0.  0.
        -24    2    3    3    0    0 -0.69838269731E+02 -0.25852906079E+02  0.89230750108E+02  0.14102501964E+03  0.79875983426E+02 0.  0.
          6    2    1    2  501    0  0.97861917741E+02  0.36388945389E+02  0.41330083525E+01  0.20137224018E+03  0.17214118353E+03 0.  0.
         24    2    5    5    0    0  0.99276935326E+02  0.48118454297E+02 -0.50869574801E+02  0.14491909317E+03  0.79009710751E+02 0.  0.
          5    1    5    5  501    0 -0.14150175844E+01 -0.11729508908E+02  0.55002583153E+02  0.56453147012E+02  0.47000000000E+01 0. -1.
        -13    1    6    6    0    0  0.10572978084E+03  0.59640725773E+02 -0.39989401611E+02  0.12780827426E+03  0.00000000000E+00 0.  1.
         14    1    6    6    0    0 -0.64528455149E+01 -0.11522271476E+02 -0.10880173190E+02  0.17110818912E+02  0.00000000000E+00 0. -1.
         -5    1    3    3    0  503 -0.28023648010E+02 -0.10536039310E+02 -0.55958480538E+02  0.63637838715E+02  0.47000000000E+01 0.  1.
         11    1    4    4    0    0 -0.76046426037E+02  0.61547537896E+01  0.67254414040E+02  0.10170592960E+03  0.00000000000E+00 0. -1.
        -12    1    4    4    0    0  0.62081563066E+01 -0.32007659868E+02  0.21976336067E+02  0.39319090044E+02  0.00000000000E+00 0.  1.
</event>
<event>
12    1  0.1030140E-001  0.2013503E+03  0.7818608E-02  0.1148630E+00
         21   -1    0    0  501  502  0.00000000000E+00  0.00000000000E+00  0.13929557808E+04  0.13929557808E+04  0.00000000000E+00 0. -1.
         21   -1    0    0  502  503 -0.00000000000E+00 -0.00000000000E+00 -0.90985395086E+02  0.90985395086E+02  0.00000000000E+00 0. -1.
         -6    2    1    2    0  503 -0.33031766434E+02 -0.98660730004E+02  0.38940076183E+02  0.20496208118E+03  0.17224426826E+03 0.  0.
        -24    2    3    3    0    0 -0.93442111274E-01  0.59826875778E+01 -0.13391545842E+02  0.83323819452E+02  0.82022704820E+02 0.  0.
          6    2    1    2  501    0  0.33031766434E+02  0.98660730004E+02  0.12630303095E+04  0.12789790947E+04  0.17238597582E+03 0.  0.
         24    2    5    5    0    0 -0.12138222203E+02  0.11950773664E+03  0.10666629974E+04  0.10763534872E+04  0.79608063300E+02 0.  0.
          5    1    5    5  501    0  0.45169988637E+02 -0.20847006638E+02  0.19636731208E+03  0.20262560749E+03  0.47000000000E+01 0. -1.
        -13    1    6    6    0    0  0.15063780339E+02  0.51953631747E+01  0.41099077873E+02  0.44079966863E+02  0.00000000000E+00 0.  1.
         14    1    6    6    0    0 -0.27202002541E+02  0.11431237347E+03  0.10255639195E+04  0.10322735203E+04  0.00000000000E+00 0. -1.
         -5    1    3    3    0  503 -0.32938324323E+02 -0.10464341758E+03  0.52331622025E+02  0.12163826173E+03  0.47000000000E+01 0.  1.
         11    1    4    4    0    0 -0.36747641919E+02 -0.15078177198E+02 -0.97061681269E+01  0.40889489040E+02  0.00000000000E+00 0. -1.
        -12    1    4    4    0    0  0.36654199808E+02  0.21060864776E+02 -0.36853777151E+01  0.42434330413E+02  0.00000000000E+00 0.  1.
</event>
<event>
12    1  0.1030140E-001  0.1763506E+03  0.7818608E-02  0.1172782E+00
         21   -1    0    0  503  502  0.00000000000E+00  0.00000000000E+00  0.32299138366E+03  0.32299138366E+03  0.00000000000E+00 0. -1.
         21   -1    0    0  501  503 -0.00000000000E+00 -0.00000000000E+00 -0.10910200296E+03  0.10910200296E+03  0.00000000000E+00 0. -1.
          6    2    1    2  501    0  0.78551897048E+01 -0.39008116149E+02  0.23239633068E+02  0.17238802423E+03  0.16611506019E+03 0.  0.
         24    2    3    3    0    0  0.23905802702E+02  0.45258128036E+01  0.68041241661E+02  0.10771887177E+03  0.79886008686E+02 0.  0.
         -6    2    1    2    0  502 -0.78551897048E+01  0.39008116149E+02  0.19064974764E+03  0.25970536239E+03  0.17180282841E+03 0.  0.
        -24    2    5    5    0    0 -0.59718785084E+02  0.61559309751E+02  0.14699457193E+03  0.18810750471E+03  0.80132061263E+02 0.  0.
          5    1    3    3  501    0 -0.16050612997E+02 -0.43533928952E+02 -0.44801608592E+02  0.64669152461E+02  0.47000000000E+01 0. -1.
        -13    1    4    4    0    0  0.27985512742E+02  0.38714301828E+02  0.29997200104E+02  0.56407606788E+02  0.00000000000E+00 0.  1.
         14    1    4    4    0    0 -0.40797100400E+01 -0.34188489024E+02  0.38044041557E+02  0.51311264980E+02  0.00000000000E+00 0. -1.
         -5    1    5    5    0  502  0.51863595380E+02 -0.22551193603E+02  0.43655175705E+02  0.71597857680E+02  0.47000000000E+01 0.  1.
         11    1    6    6    0    0 -0.26594322273E+02  0.76439271304E+02  0.97328645512E+02  0.12658232662E+03  0.00000000000E+00 0. -1.
        -12    1    6    6    0    0 -0.33124462812E+02 -0.14879961553E+02  0.49665926421E+02  0.61525178095E+02  0.00000000000E+00 0.  1.
</event>
<event>
12    1  0.1030140E-001  0.1806306E+03  0.7818608E-02  0.1168103E+00
         21   -1    0    0  501  502  0.00000000000E+00  0.00000000000E+00  0.17629655372E+03  0.17629655372E+03  0.00000000000E+00 0.  1.
         21   -1    0    0  502  503 -0.00000000000E+00 -0.00000000000E+00 -0.23927039641E+03  0.23927039641E+03  0.00000000000E+00 0.  1.
         -6    2    1    2    0  503 -0.36941762407E+02 -0.36835931369E+02  0.70563950013E+02  0.19392440104E+03  0.17293300040E+03 0.  0.
        -24    2    3    3    0    0  0.11082951311E+01  0.28812275316E+02 -0.56087102946E+01  0.86305359521E+02  0.81152830659E+02 0.  0.
          6    2    1    2  501    0  0.36941762407E+02  0.36835931369E+02 -0.13353779270E+03  0.22164254908E+03  0.16903105583E+03 0.  0.
         24    2    5    5    0    0  0.20230140314E+02  0.60785749609E+01 -0.15901107181E+03  0.17809635253E+03  0.77379468685E+02 0.  0.
          5    1    5    5  501    0  0.16711622093E+02  0.30757356408E+02  0.25473279106E+02  0.43546196557E+02  0.47000000000E+01 0. -1.
        -13    1    6    6    0    0  0.19436875516E+02  0.32983958215E+02 -0.14000569385E+03  0.14514588502E+03  0.00000000000E+00 0.  1.
         14    1    6    6    0    0  0.79326479796E+00 -0.26905383254E+02 -0.19005377961E+02  0.32950467501E+02  0.00000000000E+00 0. -1.
         -5    1    3    3    0  503 -0.38050057538E+02 -0.65648206684E+02  0.76172660307E+02  0.10761904152E+03  0.47000000000E+01 0.  1.
         13    1    4    4    0    0  0.10395344681E+02  0.23242402095E+02 -0.41570671834E+02  0.48748263589E+02  0.00000000000E+00 0. -1.
        -14    1    4    4    0    0 -0.92870495501E+01  0.55698732202E+01  0.35961961540E+02  0.37557095932E+02  0.00000000000E+00 0.  1.
</event>
<event>
12    1  0.1030140E-001  0.2129973E+03  0.7818608E-02  0.1139253E+00
         21   -1    0    0  501  502  0.00000000000E+00  0.00000000000E+00  0.92444793267E+03  0.92444793267E+03  0.00000000000E+00 0.  1.
         21   -1    0    0  502  503 -0.00000000000E+00 -0.00000000000E+00 -0.10569424130E+04  0.10569424130E+04  0.00000000000E+00 0.  1.
         -6    2    1    2    0  503 -0.12684336028E+03 -0.12367210300E+02 -0.10336900505E+04  0.10553658716E+04  0.17041072845E+03 0.  0.
        -24    2    3    3    0    0 -0.73963539368E+02 -0.81827871306E+01 -0.29034261587E+03  0.31011337511E+03  0.79585850959E+02 0.  0.
          6    2    1    2  501    0  0.12684336028E+03  0.12367210300E+02  0.90119557019E+03  0.92602447411E+03  0.17066248851E+03 0.  0.
         24    2    5    5    0    0  0.81269713882E+02 -0.32714024567E+02  0.77427619749E+03  0.78375749920E+03  0.84244962800E+02 0.  0.
          5    1    5    5  501    0  0.45573646403E+02  0.45081234866E+02  0.12691937270E+03  0.14226697491E+03  0.47000000000E+01 0. -1.
        -11    1    6    6    0    0 -0.52748215479E+01 -0.23529674205E+02  0.33955815165E+03  0.34041328949E+03  0.00000000000E+00 0.  1.
         12    1    6    6    0    0  0.86544535430E+02 -0.91843503620E+01  0.43471804584E+03  0.44334420971E+03  0.00000000000E+00 0. -1.
         -5    1    3    3    0  503 -0.52879820917E+02 -0.41844231692E+01 -0.74334743467E+03  0.74525249647E+03  0.47000000000E+01 0.  1.
         13    1    4    4    0    0 -0.11961683471E+02  0.29110840329E+02 -0.49683391056E+02  0.58812942818E+02  0.00000000000E+00 0. -1.
        -14    1    4    4    0    0 -0.62001855897E+02 -0.37293627459E+02 -0.24065922481E+03  0.25130043229E+03  0.00000000000E+00 0.  1.
</event>
<event>
12    1  0.1030140E-001  0.1738189E+03  0.7818608E-02  0.1173964E+00
         21   -1    0    0  501  502  0.00000000000E+00  0.00000000000E+00  0.44004433733E+03  0.44004433733E+03  0.00000000000E+00 0.  1.
         21   -1    0    0  502  503 -0.00000000000E+00 -0.00000000000E+00 -0.82176205813E+02  0.82176205813E+02  0.00000000000E+00 0.  1.
         -6    2    1    2    0  503  0.30023453658E+01 -0.16692856712E+02  0.72712367083E+02  0.18826425189E+03  0.17282556139E+03 0.  0.
        -24    2    3    3    0    0  0.18517009614E+02  0.38077050819E+02 -0.35757096662E+01  0.92962582274E+02  0.82683218124E+02 0.  0.
          6    2    1    2  501    0 -0.30023453658E+01  0.16692856712E+02  0.28515576443E+03  0.33395629125E+03  0.17298938966E+03 0.  0.
         24    2    5    5    0    0 -0.40488203834E+02  0.53113134382E+02  0.24818991361E+03  0.26976758245E+03  0.81951300348E+02 0.  0.
          5    1    5    5  501    0  0.37485858468E+02 -0.36420277669E+02  0.36965850823E+02  0.64188708802E+02  0.47000000000E+01 0. -1.
        -11    1    6    6    0    0 -0.63849716268E+02  0.27626484991E+02  0.14267916198E+03  0.15873673867E+03  0.00000000000E+00 0.  1.
         12    1    6    6    0    0  0.23361512435E+02  0.25486649390E+02  0.10551075163E+03  0.11103084378E+03  0.00000000000E+00 0. -1.
         -5    1    3    3    0  503 -0.15514664248E+02 -0.54769907531E+02  0.76288076749E+02  0.95301669617E+02  0.47000000000E+01 0.  1.
         11    1    4    4    0    0 -0.36231675789E+01  0.28275935764E+02  0.36394921033E+02  0.46230359761E+02  0.00000000000E+00 0. -1.
        -12    1    4    4    0    0  0.22140177193E+02  0.98011150550E+01 -0.39970630700E+02  0.46732222513E+02  0.00000000000E+00 0.  1.
</event>
<event>
12    1  0.1030140E-001  0.1877536E+03  0.7818608E-02  0.1162001E+00
         21   -1    0    0  503  502  0.00000000000E+00  0.00000000000E+00  0.12563915515E+04  0.12563915515E+04  0.00000000000E+00 0.  1.
         21   -1    0    0  501  503 -0.00000000000E+00 -0.00000000000E+00 -0.27199697709E+02  0.27199697709E+02  0.00000000000E+00 0.  1.
          6    2    1    2  501    0  0.19818992492E+02 -0.56138213807E+02  0.56640577154E+03  0.59472493784E+03  0.17128328036E+03 0.  0.
         24    2    3    3    0    0  0.68360020821E+02 -0.69834443330E+02  0.45206994586E+03  0.46967059297E+03  0.81690195440E+02 0.  0.
         -6    2    1    2    0  502 -0.19818992492E+02  0.56138213807E+02  0.66278608222E+03  0.68886631135E+03  0.17806491123E+03 0.  0.
        -24    2    5    5    0    0  0.15760061179E+02 -0.15830591296E+02  0.14887822570E+03  0.16870407419E+03  0.76140340245E+02 0.  0.
          5    1    3    3  501    0 -0.48541028329E+02  0.13696229523E+02  0.11433582568E+03  0.12505434486E+03  0.47000000000E+01 0. -1.
        -13    1    4    4    0    0  0.26847355230E+02 -0.45753358710E+02  0.90285094544E+02  0.10471651547E+03  0.00000000000E+00 0.  1.
         14    1    4    4    0    0  0.41512665590E+02 -0.24081084619E+02  0.36178485132E+03  0.36495407750E+03  0.00000000000E+00 0. -1.
         -5    1    5    5    0  502 -0.35579053671E+02  0.71968805103E+02  0.51390785652E+03  0.52016223716E+03  0.47000000000E+01 0.  1.
         11    1    6    6    0    0 -0.14006712149E+02 -0.19928934270E+02  0.13202402449E+03  0.13425234988E+03  0.00000000000E+00 0. -1.
        -12    1    6    6    0    0  0.29766773328E+02  0.40983429733E+01  0.16854201208E+02  0.34451724309E+02  0.00000000000E+00 0.  1.
</event>
<event>
12    1  0.1030140E-001  0.3224169E+03  0.7818608E-02  0.1075161E+00
         21   -1    0    0  503  502  0.00000000000E+00  0.00000000000E+00  0.43024290752E+03  0.43024290752E+03  0.00000000000E+00 0. -1.
         21   -1    0    0  501  503 -0.00000000000E+00 -0.00000000000E+00 -0.39857885793E+03  0.39857885793E+03  0.00000000000E+00 0.  1.
          6    2    1    2  501    0  0.44678438776E+02 -0.26246433805E+03 -0.24744908707E+03  0.40642800268E+03  0.18184878067E+03 0.  0.
         24    2    3    3    0    0  0.60416242622E+02 -0.12933593891E+03 -0.71309619744E+02  0.18502779699E+03  0.93660644490E+02 0.  0.
         -6    2    1    2    0  502 -0.44678438776E+02  0.26246433805E+03  0.27911313667E+03  0.42239376277E+03  0.17212976536E+03 0.  0.
        -24    2    5    5    0    0 -0.19162568497E+02  0.37559183646E+02  0.88764178233E+02  0.12660971301E+03  0.79831345868E+02 0.  0.
          5    1    3    3  501    0 -0.15737803846E+02 -0.13312839915E+03 -0.17613946733E+03  0.22140020569E+03  0.47000000000E+01 0. -1.
        -13    1    4    4    0    0  0.61679471520E+02 -0.11346485976E+03 -0.92259218741E+02  0.15871482303E+03  0.00000000000E+00 0.  1.
         14    1    4    4    0    0 -0.12632288976E+01 -0.15871079149E+02  0.20949598997E+02  0.26312973962E+02  0.00000000000E+00 0. -1.
         -5    1    5    5    0  502 -0.25515870279E+02  0.22490515440E+03  0.19034895843E+03  0.29578404976E+03  0.47000000000E+01 0.  1.
         11    1    6    6    0    0  0.43284792682E+01  0.46087879092E+02  0.14895871136E+02  0.48628338537E+02  0.00000000000E+00 0. -1.
        -12    1    6    6    0    0 -0.23491047765E+02 -0.85286954455E+01  0.73868307097E+02  0.77981374472E+02  0.00000000000E+00 0.  1.
</event>
<event>
12    1  0.1030140E-001  0.2210154E+03  0.7818608E-02  0.1134269E+00
         21   -1    0    0  501  502  0.00000000000E+00  0.00000000000E+00  0.68277145944E+03  0.68277145944E+03  0.00000000000E+00 0. -1.
         21   -1    0    0  502  503 -0.00000000000E+00 -0.00000000000E+00 -0.98025783508E+02  0.98025783508E+02  0.00000000000E+00 0. -1.
         -6    2    1    2    0  503  0.11787473450E+03 -0.55943236052E+02  0.85020876525E+02  0.23680447296E+03  0.17839201293E+03 0.  0.
        -24    2    3    3    0    0 -0.29444041094E+01 -0.71230534136E+01 -0.35273680356E+01  0.79186085388E+02  0.78731101786E+02 0.  0.
          6    2    1    2  501    0 -0.11787473450E+03  0.55943236052E+02  0.49972479941E+03  0.54399276999E+03  0.17081908547E+03 0.  0.
         24    2    5    5    0    0 -0.79829154027E+02  0.94660956425E+02  0.43925607410E+03  0.46259814606E+03  0.75615842235E+02 0.  0.
          5    1    5    5  501    0 -0.38045580472E+02 -0.38717720373E+02  0.60468725306E+02  0.81394623928E+02  0.47000000000E+01 0. -1.
        -13    1    6    6    0    0 -0.74428761437E+02  0.74570227108E+02  0.23809703766E+03  0.26036620104E+03  0.00000000000E+00 0.  1.
         14    1    6    6    0    0 -0.54003925894E+01  0.20090729317E+02  0.20115903644E+03  0.20223194502E+03  0.00000000000E+00 0. -1.
         -5    1    3    3    0  503  0.12081913861E+03 -0.48820182638E+02  0.88548244561E+02  0.15761838757E+03  0.47000000000E+01 0.  1.
         13    1    4    4    0    0 -0.16623079001E+02 -0.40096644285E+02 -0.15701011406E+01  0.43434235989E+02  0.00000000000E+00 0. -1.
        -14    1    4    4    0    0  0.13678674892E+02  0.32973590871E+02 -0.19572668950E+01  0.35751849399E+02  0.00000000000E+00 0.  1.
</event>
<event>
12    1  0.1030140E-001  0.2510434E+03  0.7818608E-02  0.1112705E+00
         21   -1    0    0  501  502  0.00000000000E+00  0.00000000000E+00  0.16608512275E+03  0.16608512275E+03  0.00000000000E+00 0.  1.
         21   -1    0    0  502  503 -0.00000000000E+00 -0.00000000000E+00 -0.47044242337E+03  0.47044242337E+03  0.00000000000E+00 0.  1.
         -6    2    1    2    0  503 -0.13326632533E+03 -0.12616266409E+03 -0.29247720650E+03  0.38520322010E+03  0.17076789271E+03 0.  0.
        -24    2    3    3    0    0 -0.10180496480E+03 -0.95777125400E+02 -0.10382540196E+03  0.19149031005E+03  0.79695145032E+02 0.  0.
          6    2    1    2  501    0  0.13326632533E+03  0.12616266409E+03 -0.11880094112E+02  0.25132432602E+03  0.17130630151E+03 0.  0.
         24    2    5    5    0    0  0.13058343916E+03  0.66692459047E+02  0.41446429469E+02  0.17126365351E+03  0.78188962264E+02 0.  0.
          5    1    5    5  501    0  0.26828861663E+01  0.59470205038E+02 -0.53326523582E+02  0.80060672510E+02  0.47000000000E+01 0. -1.
        -11    1    6    6    0    0  0.83990568507E+02  0.81551530987E+02  0.25389233487E+02  0.11979015394E+03  0.00000000000E+00 0.  1.
         12    1    6    6    0    0  0.46592870653E+02 -0.14859071939E+02  0.16057195982E+02  0.51473499564E+02  0.00000000000E+00 0. -1.
         -5    1    3    3    0  503 -0.31461360530E+02 -0.30385538686E+02 -0.18865180454E+03  0.19371291006E+03  0.47000000000E+01 0.  1.
         13    1    4    4    0    0 -0.20221118245E+02  0.69071705080E+01 -0.40637776219E+02  0.45913303993E+02  0.00000000000E+00 0. -1.
        -14    1    4    4    0    0 -0.81583846552E+02 -0.10268429591E+03 -0.63187625742E+02  0.14557700605E+03  0.00000000000E+00 0.  1.
</event>
<event>
12    1  0.1030140E-001  0.2069188E+03  0.7818608E-02  0.1144343E+00
         21   -1    0    0  501  502  0.00000000000E+00  0.00000000000E+00  0.54938854191E+02  0.54938854191E+02  0.00000000000E+00 0. -1.
         21   -1    0    0  502  503 -0.00000000000E+00 -0.00000000000E+00 -0.83652976880E+03  0.83652976880E+03  0.00000000000E+00 0.  1.
         -6    2    1    2    0  503  0.39097070787E+02  0.10895306274E+03 -0.26981660305E+03  0.34002412026E+03  0.17151108493E+03 0.  0.
        -24    2    3    3    0    0  0.37730633003E+01  0.51073553873E+00 -0.58741438377E+02  0.10006091688E+03  0.80914359958E+02 0.  0.
          6    2    1    2  501    0 -0.39097070787E+02 -0.10895306274E+03 -0.51177431156E+03  0.55144450273E+03  0.16964298627E+03 0.  0.
         24    2    5    5    0    0 -0.26808104707E+02 -0.14496607040E+03 -0.42197409771E+03  0.45380166471E+03  0.78357997117E+02 0.  0.
          5    1    5    5  501    0 -0.12288966080E+02  0.36013007661E+02 -0.89800213858E+02  0.97642838023E+02  0.47000000000E+01 0. -1.
        -11    1    6    6    0    0  0.94306396308E+01 -0.36634964119E+02 -0.20634191343E+03  0.20978094002E+03  0.00000000000E+00 0.  1.
         12    1    6    6    0    0 -0.36238744337E+02 -0.10833110629E+03 -0.21563218428E+03  0.24402072469E+03  0.00000000000E+00 0. -1.
         -5    1    3    3    0  503  0.35324007486E+02  0.10844232720E+03 -0.21107516467E+03  0.23996320338E+03  0.47000000000E+01 0.  1.
         11    1    4    4    0    0  0.30740431607E+02  0.28245047147E+02 -0.36413549012E+02  0.55395878685E+02  0.00000000000E+00 0. -1.
        -12    1    4    4    0    0 -0.26967368306E+02 -0.27734311608E+02 -0.22327889365E+02  0.44665038198E+02  0.00000000000E+00 0.  1.
</event>
<event>
12    1  0.1030140E-001  0.2359368E+03  0.7818608E-02  0.1122826E+00
         21   -1    0    0  501  502  0.00000000000E+00  0.00000000000E+00  0.82921938458E+03  0.82921938458E+03  0.00000000000E+00 0. -1.
         21   -1    0    0  502  503 -0.00000000000E+00 -0.00000000000E+00 -0.87409919969E+02  0.87409919969E+02  0.00000000000E+00 0.  1.
         -6    2    1    2    0  503 -0.41627995664E+02  0.15541562172E+03  0.59535918900E+03  0.64040514703E+03  0.17256674917E+03 0.  0.
        -24    2    3    3    0    0 -0.41964668879E+02  0.17020613757E+03  0.59440990695E+03  0.62485317467E+03  0.79919895646E+02 0.  0.
          6    2    1    2  501    0  0.41627995664E+02 -0.15541562172E+03  0.14645027561E+03  0.27622415751E+03  0.17019164630E+03 0.  0.
         24    2    5    5    0    0 -0.21385300865E+02 -0.11954500392E+03  0.42167298768E+02  0.14912417317E+03  0.75575120805E+02 0.  0.
          5    1    5    5  501    0  0.63013296529E+02 -0.35870617808E+02  0.10428297684E+03  0.12709998434E+03  0.47000000000E+01 0. -1.
        -13    1    6    6    0    0  0.25624565645E+02 -0.67903380946E+02  0.14514934648E+02  0.74014666359E+02  0.00000000000E+00 0.  1.
         14    1    6    6    0    0 -0.47009866511E+02 -0.51641622969E+02  0.27652364120E+02  0.75109506813E+02  0.00000000000E+00 0. -1.
         -5    1    3    3    0  503  0.33667321478E+00 -0.14790515845E+02  0.94928205243E+00  0.15551972358E+02  0.47000000000E+01 0.  1.
         13    1    4    4    0    0  0.19527188613E+02  0.85813045875E+02  0.28728498352E+03  0.30046272929E+03  0.00000000000E+00 0. -1.
        -14    1    4    4    0    0 -0.61491857492E+02  0.84393091694E+02  0.30712492343E+03  0.32439044539E+03  0.00000000000E+00 0.  1.
</event>
<event>
12    1  0.1030140E-001  0.2087604E+03  0.7818608E-02  0.1142769E+00
         21   -1    0    0  503  502  0.00000000000E+00  0.00000000000E+00  0.65743508495E+02  0.65743508495E+02  0.00000000000E+00 0. -1.
         21   -1    0    0  501  503 -0.00000000000E+00 -0.00000000000E+00 -0.66003811938E+03  0.66003811938E+03  0.00000000000E+00 0. -1.
          6    2    1    2  501    0 -0.92930996757E+02  0.71318211559E+02 -0.30729822408E+03  0.37089032195E+03  0.17147878858E+03 0.  0.
         24    2    3    3    0    0 -0.54046965212E+02 -0.18268227175E+02 -0.93068437640E+02  0.13540319000E+03  0.80109220469E+02 0.  0.
         -6    2    1    2    0  502  0.92930996757E+02 -0.71318211559E+02 -0.28699638680E+03  0.35489130592E+03  0.17279599396E+03 0.  0.
        -24    2    5    5    0    0  0.74055759190E+02 -0.89269387128E+02 -0.11687877450E+03  0.18272681682E+03  0.79215924577E+02 0.  0.
          5    1    3    3  501    0 -0.38884031545E+02  0.89586438734E+02 -0.21422978644E+03  0.23548713195E+03  0.47000000000E+01 0. -1.
        -13    1    4    4    0    0 -0.44647680135E+02 -0.48935638852E+02 -0.61141455157E+02  0.90146489838E+02  0.00000000000E+00 0.  1.
         14    1    4    4    0    0 -0.93992850765E+01  0.30667411677E+02 -0.31926982483E+02  0.45256700160E+02  0.00000000000E+00 0. -1.
         -5    1    5    5    0  502  0.18875237567E+02  0.17951175569E+02 -0.17011761229E+03  0.17216448911E+03  0.47000000000E+01 0.  1.
         13    1    6    6    0    0  0.56184726505E+02 -0.64665006057E+02 -0.12473574713E+03  0.15131851543E+03  0.00000000000E+00 0. -1.
        -14    1    6    6    0    0  0.17871032685E+02 -0.24604381071E+02  0.78569726227E+01  0.31408301385E+02  0.00000000000E+00 0.  1.
</event>
<event>
12    1  0.1030140E-001  0.2550712E+03  0.7818608E-02  0.1110209E+00
         21   -1    0    0  501  502  0.00000000000E+00  0.00000000000E+00  0.55604188625E+03  0.55604188625E+03  0.00000000000E+00 0.  1.
         21   -1    0    0  502  503 -0.00000000000E+00 -0.00000000000E+00 -0.19834968727E+03  0.19834968727E+03  0.00000000000E+00 0. -1.
         -6    2    1    2    0  503  0.94676740567E+02  0.16108743832E+03 -0.63092577495E+02  0.26233348434E+03  0.17298940915E+03 0.  0.
        -24    2    3    3    0    0  0.65103067292E+02  0.15430575020E+03  0.84039387106E+01  0.18452323261E+03  0.77003397773E+02 0.  0.
          6    2    1    2  501    0 -0.94676740567E+02 -0.16108743832E+03  0.42078477647E+03  0.49205808918E+03  0.17363319682E+03 0.  0.
         24    2    5    5    0    0 -0.11463674794E+03 -0.59989128036E+02  0.19536437338E+03  0.24415545030E+03  0.68588381418E+02 0.  0.
          5    1    5    5  501    0  0.19960007372E+02 -0.10109831029E+03  0.22542040309E+03  0.24790263888E+03  0.47000000000E+01 0. -1.
        -11    1    6    6    0    0 -0.51794282579E+02 -0.47792865098E+02  0.14989305801E+03  0.16563433974E+03  0.00000000000E+00 0.  1.
         12    1    6    6    0    0 -0.62842465360E+02 -0.12196262938E+02  0.45471315370E+02  0.78521110561E+02  0.00000000000E+00 0. -1.
         -5    1    3    3    0  503  0.29573673275E+02  0.67816881191E+01 -0.71496516206E+02  0.77810251730E+02  0.47000000000E+01 0.  1.
         11    1    4    4    0    0  0.29979183336E+02  0.96405443451E+02  0.41489897509E+02  0.10915206162E+03  0.00000000000E+00 0. -1.
        -12    1    4    4    0    0  0.35123883955E+02  0.57900306754E+02 -0.33085958799E+02  0.75371170987E+02  0.00000000000E+00 0.  1.
</event>
<event>
12    1  0.1030140E-001  0.1909725E+03  0.7818608E-02  0.1157825E+00
         21   -1    0    0  503  502  0.00000000000E+00  0.00000000000E+00  0.14961884339E+03  0.14961884339E+03  0.00000000000E+00 0. -1.
         21   -1    0    0  501  503 -0.00000000000E+00 -0.00000000000E+00 -0.24560513383E+03  0.24560513383E+03  0.00000000000E+00 0. -1.
          6    2    1    2  501    0 -0.81202624255E+02  0.10164101192E+02 -0.25313189385E+02  0.19159392517E+03  0.17137765160E+03 0.  0.
         24    2    3    3    0    0 -0.35642870955E+02  0.38907924415E+02  0.42587969021E+02  0.10479210602E+03  0.79896242387E+02 0.  0.
         -6    2    1    2    0  502  0.81202624255E+02 -0.10164101192E+02 -0.70673101055E+02  0.20363005204E+03  0.17254951679E+03 0.  0.
        -24    2    5    5    0    0  0.75219242302E+02 -0.67259929240E+02 -0.67730735726E+02  0.14595439033E+03  0.80829443899E+02 0.  0.
          5    1    3    3  501    0 -0.45559753301E+02 -0.28743823223E+02 -0.67901158407E+02  0.86801819147E+02  0.47000000000E+01 0. -1.
        -13    1    4    4    0    0  0.25840066505E+02  0.90344332288E+01  0.13091916344E+02  0.30343504977E+02  0.00000000000E+00 0.  1.
         14    1    4    4    0    0 -0.61482937460E+02  0.29873491186E+02  0.29496052678E+02  0.74448601047E+02  0.00000000000E+00 0. -1.
         -5    1    5    5    0  502  0.59833819531E+01  0.57095828048E+02 -0.29423653288E+01  0.57675661711E+02  0.47000000000E+01 0.  1.
         11    1    6    6    0    0  0.86416082877E+02 -0.31896420995E+02 -0.45961554495E+02  0.10294457511E+03  0.00000000000E+00 0. -1.
        -12    1    6    6    0    0 -0.11196840575E+02 -0.35363508244E+02 -0.21769181231E+02  0.43009815225E+02  0.00000000000E+00 0.  1.
</event>
<event>
12    1  0.1030140E-001  0.2300355E+03  0.7818608E-02  0.1126691E+00
         21   -1    0    0  503  502  0.00000000000E+00  0.00000000000E+00  0.28119293663E+03  0.28119293663E+03  0.00000000000E+00 0. -1.
         21   -1    0    0  501  503 -0.00000000000E+00 -0.00000000000E+00 -0.19069275989E+03  0.19069275989E+03  0.00000000000E+00 0.  1.
          6    2    1    2  501    0  0.10578910096E+03 -0.10840902261E+03  0.16305259768E+02  0.23018092270E+03  0.17255012493E+03 0.  0.
         24    2    3    3    0    0 -0.44533940106E+01 -0.67123888487E+02  0.38103797840E+02  0.11036800078E+03  0.78763869023E+02 0.  0.
         -6    2    1    2    0  502 -0.10578910096E+03  0.10840902261E+03  0.74194916980E+02  0.24170477382E+03  0.17312556691E+03 0.  0.
        -24    2    5    5    0    0 -0.10537891967E+03  0.14356946135E+03  0.57447794025E+02  0.20247492768E+03  0.77323608028E+02 0.  0.
          5    1    3    3  501    0  0.11024249497E+03 -0.41285134122E+02 -0.21798538072E+02  0.11981292192E+03  0.47000000000E+01 0. -1.
        -13    1    4    4    0    0 -0.72117745546E+01 -0.58280013343E+02 -0.11556635992E+02  0.59850860335E+02  0.00000000000E+00 0.  1.
         14    1    4    4    0    0  0.27583805440E+01 -0.88438751444E+01  0.49660433832E+02  0.50517140449E+02  0.00000000000E+00 0. -1.
         -5    1    5    5    0  502 -0.41018128343E+00 -0.35160438737E+02  0.16747122955E+02  0.39229846140E+02  0.47000000000E+01 0.  1.
         13    1    6    6    0    0 -0.67711058507E+02  0.34091386576E+02  0.38949195104E+02  0.85229395645E+02  0.00000000000E+00 0. -1.
        -14    1    6    6    0    0 -0.37667861165E+02  0.10947807477E+03  0.18498598922E+02  0.11724553204E+03  0.00000000000E+00 0.  1.
</event>
<event>
12    1  0.1030140E-001  0.1876696E+03  0.7818608E-02  0.1160674E+00
         21   -1    0    0  501  502  0.00000000000E+00  0.00000000000E+00  0.19039884434E+03  0.19039884434E+03  0.00000000000E+00 0.  1.
         21   -1    0    0  502  503 -0.00000000000E+00 -0.00000000000E+00 -0.40238995321E+03  0.40238995321E+03  0.00000000000E+00 0. -1.
         -6    2    1    2    0  503 -0.55633167157E+02  0.46638301243E+02 -0.32400889334E+03  0.37423016014E+03  0.17261595919E+03 0.  0.
        -24    2    3    3    0    0 -0.69354183213E+02  0.53464596767E+02 -0.33485226462E+03  0.35487729749E+03  0.78379788939E+02 0.  0.
          6    2    1    2  501    0  0.55633167157E+02 -0.46638301243E+02  0.11201778447E+03  0.21855863741E+03  0.17305985530E+03 0.  0.
         24    2    5    5    0    0  0.68647197203E+02 -0.33969683293E+02  0.14390549364E+03  0.18156168003E+03  0.79934194739E+02 0.  0.
          5    1    5    5  501    0 -0.13014030046E+02 -0.12668617950E+02 -0.31887709171E+02  0.36996957375E+02  0.47000000000E+01 0. -1.
        -11    1    6    6    0    0 -0.11205512040E+02  0.88411618789E+01  0.39009007922E+01  0.14796846638E+02  0.00000000000E+00 0.  1.
         12    1    6    6    0    0  0.79852709243E+02 -0.42810845172E+02  0.14000459285E+03  0.16676483339E+03  0.00000000000E+00 0. -1.
         -5    1    3    3    0  503  0.13721016055E+02 -0.68262955244E+01  0.10843371282E+02  0.19352862655E+02  0.47000000000E+01 0.  1.
         11    1    4    4    0    0 -0.21361101859E+02  0.12872292644E+02 -0.23871702410E+03  0.24001627067E+03  0.00000000000E+00 0. -1.
        -12    1    4    4    0    0 -0.47993081354E+02  0.40592304123E+02 -0.96135240516E+02  0.11486102681E+03  0.00000000000E+00 0.  1.
</event>
<event>
12    1  0.1030140E-001  0.1833162E+03  0.7818608E-02  0.1164803E+00
         21   -1    0    0  503  502  0.00000000000E+00  0.00000000000E+00  0.23943592148E+04  0.23943592148E+04  0.00000000000E+00 0.  1.
         21   -1    0    0  501  503 -0.00000000000E+00 -0.00000000000E+00 -0.83090616662E+02  0.83090616662E+02  0.00000000000E+00 0.  1.
          6    2    1    2  501    0  0.40519101838E+02  0.43906851386E+02  0.25526424022E+02  0.18436846963E+03  0.17254137201E+03 0.  0.
         24    2    3    3    0    0  0.13558842935E+02  0.75513729043E+02 -0.30438471345E+02  0.11451140278E+03  0.79373769802E+02 0.  0.
         -6    2    1    2    0  502 -0.40519101838E+02 -0.43906851386E+02  0.22857421741E+04  0.22930813618E+04  0.17330676920E+03 0.  0.
        -24    2    5    5    0    0 -0.29264003458E+02 -0.73081910478E+02  0.21763286223E+04  0.21791898493E+04  0.79150359387E+02 0.  0.
          5    1    3    3  501    0  0.26960258902E+02 -0.31606877657E+02  0.55964895367E+02  0.69857066849E+02  0.47000000000E+01 0. -1.
        -13    1    4    4    0    0  0.28712372402E+02 -0.19512002066E+01  0.26982699154E+01  0.28904812259E+02  0.00000000000E+00 0.  1.
         14    1    4    4    0    0 -0.15153529466E+02  0.77464929250E+02 -0.33136741260E+02  0.85606590519E+02  0.00000000000E+00 0. -1.
         -5    1    5    5    0  502 -0.11255098380E+02  0.29175059092E+02  0.10941355177E+03  0.11389151251E+03  0.47000000000E+01 0.  1.
         13    1    6    6    0    0 -0.13230408120E+02 -0.29971288107E+02  0.23038916487E+03  0.23270687377E+03  0.00000000000E+00 0. -1.
        -14    1    6    6    0    0 -0.16033595338E+02 -0.43110622370E+02  0.19459394575E+04  0.19464829755E+04  0.00000000000E+00 0.  1.
</event>
<event>
12    1  0.1030140E-001  0.2007027E+03  0.7818608E-02  0.1149808E+00
         21   -1    0    0  503  502  0.00000000000E+00  0.00000000000E+00  0.10606141416E+04  0.10606141416E+04  0.00000000000E+00 0. -1.
         21   -1    0    0  501  503 -0.00000000000E+00 -0.00000000000E+00 -0.48991820200E+02  0.48991820200E+02  0.00000000000E+00 0. -1.
          6    2    1    2  501    0 -0.10248768034E+03 -0.84864543165E+01  0.23887481647E+03  0.31199799194E+03  0.17235377717E+03 0.  0.
         24    2    3    3    0    0 -0.15481315769E+02  0.49293240230E+02  0.11915149195E+03  0.15305031183E+03  0.80980400397E+02 0.  0.
         -6    2    1    2    0  502  0.10248768034E+03  0.84864543165E+01  0.77274750494E+03  0.79760796986E+03  0.16871284088E+03 0.  0.
        -24    2    5    5    0    0  0.10973894464E+03  0.49378087794E+02  0.68990390833E+03  0.70481864925E+03  0.79505308416E+02 0.  0.
          5    1    3    3  501    0 -0.87006364570E+02 -0.57779694547E+02  0.11972332452E+03  0.15894768011E+03  0.47000000000E+01 0. -1.
        -13    1    4    4    0    0  0.26014644364E+02  0.27057444100E+02  0.90410574112E+02  0.97892486504E+02  0.00000000000E+00 0.  1.
         14    1    4    4    0    0 -0.41495960134E+02  0.22235796130E+02  0.28740917835E+02  0.55157825328E+02  0.00000000000E+00 0. -1.
         -5    1    5    5    0  502 -0.72512643049E+01 -0.40891633477E+02  0.82843596604E+02  0.92789320618E+02  0.47000000000E+01 0.  1.
         11    1    6    6    0    0  0.10298259025E+03  0.32410536861E+02  0.39919357861E+03  0.41353521010E+03  0.00000000000E+00 0. -1.
        -12    1    6    6    0    0  0.67563543935E+01  0.16967550932E+02  0.29071032973E+03  0.29128343914E+03  0.00000000000E+00 0.  1.
</event>
<event>
12    1  0.1030140E-001  0.2384525E+03  0.7818608E-02  0.1120992E+00
         21   -1    0    0  501  502  0.00000000000E+00  0.00000000000E+00  0.72485438984E+02  0.72485438984E+02  0.00000000000E+00 0.  1.
         21   -1    0    0  502  503 -0.00000000000E+00 -0.00000000000E+00 -0.80510095967E+03  0.80510095967E+03  0.00000000000E+00 0. -1.
         -6    2    1    2    0  503  0.16234904455E+03 -0.60014056926E+01 -0.44113669375E+03  0.50099707595E+03  0.17321448671E+03 0.  0.
        -24    2    3    3    0    0  0.10044040196E+03 -0.32254982264E+02 -0.40087518000E+03  0.42247949958E+03  0.81604898126E+02 0.  0.
          6    2    1    2  501    0 -0.16234904455E+03  0.60014056926E+01 -0.29147882694E+03  0.37658932271E+03  0.17454621819E+03 0.  0.
         24    2    5    5    0    0 -0.17306941151E+03 -0.10686776418E+02 -0.29919974770E+03  0.35479197637E+03  0.79307181768E+02 0.  0.
          5    1    5    5  501    0  0.10720366962E+02  0.16688182111E+02  0.77209207590E+01  0.21797346337E+02  0.47000000000E+01 0. -1.
        -11    1    6    6    0    0 -0.17195999310E+03  0.34931737630E+01 -0.24908194007E+03  0.30269498568E+03  0.00000000000E+00 0.  1.
         12    1    6    6    0    0 -0.11094184094E+01 -0.14179950181E+02 -0.50117807635E+02  0.52096990685E+02  0.00000000000E+00 0. -1.
         -5    1    3    3    0  503  0.61908642588E+02  0.26253576571E+02 -0.40261513743E+02  0.78517576368E+02  0.47000000000E+01 0.  1.
         13    1    4    4    0    0  0.21428533016E+02 -0.48112668859E+02 -0.16710616498E+03  0.17520982081E+03  0.00000000000E+00 0. -1.
        -14    1    4    4    0    0  0.79011868945E+02  0.15857686595E+02 -0.23376901502E+03  0.24726967878E+03  0.00000000000E+00 0.  1.
</event>
<event>
12    1  0.1030140E-001  0.1924009E+03  0.7818608E-02  0.1156601E+00
         21   -1    0    0  503  502  0.00000000000E+00  0.00000000000E+00  0.10163381911E+04  0.10163381911E+04  0.00000000000E+00 0. -1.
         21   -1    0    0  501  503 -0.00000000000E+00 -0.00000000000E+00 -0.38944268938E+02  0.38944268938E+02  0.00000000000E+00 0. -1.
          6    2    1    2  501    0  0.67214744764E+02 -0.49134073448E+02  0.62776816871E+03  0.65621322254E+03  0.17202017528E+03 0.  0.
         24    2    3    3    0    0  0.56671559774E+01  0.11470034324E+02  0.46395229874E+03  0.47096017177E+03  0.79925399884E+02 0.  0.
         -6    2    1    2    0  502 -0.67214744764E+02  0.49134073448E+02  0.34962575348E+03  0.39906923752E+03  0.17345348009E+03 0.  0.
        -24    2    5    5    0    0 -0.72718974945E+02 -0.26889700509E+02  0.25131115733E+03  0.27457923563E+03  0.78900909553E+02 0.  0.
          5    1    3    3  501    0  0.61547588786E+02 -0.60604107771E+02  0.16381586996E+03  0.18525305076E+03  0.47000000000E+01 0. -1.
        -13    1    4    4    0    0  0.24378382646E+02  0.59313501015E+01  0.44746527605E+02  0.51300469658E+02  0.00000000000E+00 0.  1.
         14    1    4    4    0    0 -0.18711226669E+02  0.55386842223E+01  0.41920577114E+03  0.41965970212E+03  0.00000000000E+00 0. -1.
         -5    1    5    5    0  502  0.55042301813E+01  0.76023773956E+02  0.98314596149E+02  0.12449000190E+03  0.47000000000E+01 0.  1.
         11    1    6    6    0    0 -0.23796322565E+01  0.14753612769E+02  0.11249955000E+03  0.11348779886E+03  0.00000000000E+00 0. -1.
        -12    1    6    6    0    0 -0.70339342688E+02 -0.41643313278E+02  0.13881160733E+03  0.16109143677E+03  0.00000000000E+00 0.  1.
</event>
<event>
12    1  0.1030140E-001  0.1741247E+03  0.7818608E-02  0.1174792E+00
         21   -1    0    0  503  502  0.00000000000E+00  0.00000000000E+00  0.71076141244E+03  0.71076141244E+03  0.00000000000E+00 0.  1.
         21   -1    0    0  501  503 -0.00000000000E+00 -0.00000000000E+00 -0.45748842478E+02  0.45748842478E+02  0.00000000000E+00 0.  1.
          6    2    1    2  501    0  0.11413352989E+02  0.20975030492E+02  0.21373301282E+03  0.27280306547E+03  0.16783770504E+03 0.  0.
         24    2    3    3    0    0 -0.28389482893E+02 -0.39229193128E+02  0.14319014878E+03  0.17177237730E+03  0.81593128160E+02 0.  0.
         -6    2    1    2    0  502 -0.11413352989E+02 -0.20975030492E+02  0.45127955715E+03  0.48370718945E+03  0.17247953472E+03 0.  0.
        -24    2    5    5    0    0 -0.70784373900E+02 -0.27093047041E+02  0.36762792441E+03  0.38083817609E+03  0.64365866520E+02 0.  0.
          5    1    3    3  501    0  0.39802835883E+02  0.60204223620E+02  0.70542864041E+02  0.10103068817E+03  0.47000000000E+01 0. -1.
        -13    1    4    4    0    0 -0.40734628962E+02 -0.10559809151E+02  0.23749560332E+02  0.48320401302E+02  0.00000000000E+00 0.  1.
         14    1    4    4    0    0  0.12345146069E+02 -0.28669383977E+02  0.11944058845E+03  0.12345197600E+03  0.00000000000E+00 0. -1.
         -5    1    5    5    0  502  0.59371020911E+02  0.61180165484E+01  0.83651632732E+02  0.10286901336E+03  0.47000000000E+01 0.  1.
         13    1    6    6    0    0  0.29890847974E+01 -0.19672922603E+02  0.14080505135E+03  0.14220415253E+03  0.00000000000E+00 0. -1.
        -14    1    6    6    0    0 -0.73773458698E+02 -0.74201244372E+01  0.22682287306E+03  0.23863402356E+03  0.00000000000E+00 0.  1.
</event>
<event>
12    1  0.1030140E-001  0.2161910E+03  0.7818608E-02  0.1136897E+00
         21   -1    0    0  501  502  0.00000000000E+00  0.00000000000E+00  0.15120066735E+03  0.15120066735E+03  0.00000000000E+00 0.  1.
         21   -1    0    0  502  503 -0.00000000000E+00 -0.00000000000E+00 -0.31472374608E+03  0.31472374608E+03  0.00000000000E+00 0.  1.
         -6    2    1    2    0  503 -0.10409358524E+03  0.78466770945E+02 -0.11553118140E+03  0.24447068650E+03  0.17153994885E+03 0.  0.
        -24    2    3    3    0    0 -0.65889709433E+02 -0.25018075820E+02 -0.43600279479E+02  0.11269514140E+03  0.76366567270E+02 0.  0.
          6    2    1    2  501    0  0.10409358524E+03 -0.78466770945E+02 -0.47991897340E+02  0.22145372693E+03  0.17247035204E+03 0.  0.
         24    2    5    5    0    0  0.10063739893E+03 -0.10978842496E+03 -0.68262467296E+01  0.16939902471E+03  0.80424173045E+02 0.  0.
          5    1    5    5  501    0  0.34561863049E+01  0.31321654011E+02 -0.41165650610E+02  0.52054702226E+02  0.47000000000E+01 0. -1.
        -11    1    6    6    0    0  0.50713330015E-01 -0.48539478937E+02 -0.16420272397E+02  0.51241671839E+02  0.00000000000E+00 0.  1.
         12    1    6    6    0    0  0.10058668560E+03 -0.61248946019E+02  0.95940256677E+01  0.11815735287E+03  0.00000000000E+00 0. -1.
         -5    1    3    3    0  503 -0.38203875802E+02  0.10348484677E+03 -0.71930901917E+02  0.13177554510E+03  0.47000000000E+01 0.  1.
         13    1    4    4    0    0 -0.51893528109E+02  0.98680860642E+01  0.28988632098E+01  0.52902937443E+02  0.00000000000E+00 0. -1.
        -14    1    4    4    0    0 -0.13996181323E+02 -0.34886161884E+02 -0.46499142689E+02  0.59792203952E+02  0.00000000000E+00 0.  1.
</event>
<event>
12    1  0.1030140E-001  0.1816375E+03  0.7818608E-02  0.1166237E+00
         21   -1    0    0  501  502  0.00000000000E+00  0.00000000000E+00  0.15035067868E+04  0.15035067868E+04  0.00000000000E+00 0.  1.
         21   -1    0    0  502  503 -0.00000000000E+00 -0.00000000000E+00 -0.85121461536E+02  0.85121461536E+02  0.00000000000E+00 0. -1.
         -6    2    1    2    0  503 -0.56061891524E+02  0.66189283142E+01  0.24872470739E+02  0.18333257632E+03  0.17264254355E+03 0.  0.
        -24    2    3    3    0    0 -0.79344957370E+02 -0.22336690284E+02 -0.28359545273E+02  0.11824596838E+03  0.79895527021E+02 0.  0.
          6    2    1    2  501    0  0.56061891524E+02 -0.66189283142E+01  0.13935128545E+04  0.14052956720E+04  0.17260099704E+03 0.  0.
         24    2    5    5    0    0 -0.20321507665E+02  0.31954936854E+02  0.48533694822E+03  0.49308520642E+03  0.78402715683E+02 0.  0.
          5    1    5    5  501    0  0.76383399189E+02 -0.38573865168E+02  0.90817590632E+03  0.91221046561E+03  0.47000000000E+01 0. -1.
        -11    1    6    6    0    0  0.28656204125E+02  0.18613116020E+01  0.19607452201E+03  0.19816624510E+03  0.00000000000E+00 0.  1.
         12    1    6    6    0    0 -0.48977711791E+02  0.30093625252E+02  0.28926242621E+03  0.29491896133E+03  0.00000000000E+00 0. -1.
         -5    1    3    3    0  503  0.23283065845E+02  0.28955618598E+02  0.53232016012E+02  0.65086607933E+02  0.47000000000E+01 0.  1.
         11    1    4    4    0    0 -0.12311527497E+02  0.28204897729E+02 -0.58118282245E+01  0.31318801263E+02  0.00000000000E+00 0. -1.
        -12    1    4    4    0    0 -0.67033429872E+02 -0.50541588014E+02 -0.22547717048E+02  0.86927167120E+02  0.00000000000E+00 0.  1.
</event>
<event>
12    1  0.1030140E-001  0.1820618E+03  0.7818608E-02  0.1165917E+00
         21   -1    0    0  503  502  0.00000000000E+00  0.00000000000E+00  0.12687760638E+03  0.12687760638E+03  0.00000000000E+00 0. -1.
         21   -1    0    0  501  503 -0.00000000000E+00 -0.00000000000E+00 -0.36185740666E+03  0.36185740666E+03  0.00000000000E+00 0. -1.
          6    2    1    2  501    0  0.57778131778E+02 -0.12140790150E+02 -0.24680045200E+03  0.30668707651E+03  0.17222307770E+03 0.  0.
         24    2    3    3    0    0  0.65353056886E+02  0.49238317894E+02 -0.15027555260E+03  0.19195294646E+03  0.86992861489E+02 0.  0.
         -6    2    1    2    0  502 -0.57778131778E+02  0.12140790150E+02  0.11820651716E+02  0.18204793653E+03  0.17180224705E+03 0.  0.
        -24    2    5    5    0    0 -0.63532865187E+02  0.40285693692E+02  0.60267621175E+02  0.12552845846E+03  0.80410482188E+02 0.  0.
          5    1    3    3  501    0 -0.75749251078E+01 -0.61379108044E+02 -0.96524899399E+02  0.11473413005E+03  0.47000000000E+01 0. -1.
        -11    1    4    4    0    0 -0.18093163222E+02  0.25784923060E+02 -0.28504442520E+02  0.42482091002E+02  0.00000000000E+00 0.  1.
         12    1    4    4    0    0  0.83446220108E+02  0.23453394835E+02 -0.12177111008E+03  0.14947085545E+03  0.00000000000E+00 0. -1.
         -5    1    5    5    0  502  0.57547334087E+01 -0.28144903542E+02 -0.48446969459E+02  0.56519478074E+02  0.47000000000E+01 0.  1.
         13    1    6    6    0    0 -0.16671492772E+02 -0.19561860269E+02  0.38805353350E+02  0.46545252143E+02  0.00000000000E+00 0. -1.
        -14    1    6    6    0    0 -0.46861372415E+02  0.59847553961E+02  0.21462267826E+02  0.78983206316E+02  0.00000000000E+00 0.  1.
</event>
<event>
12    1  0.1030140E-001  0.1964857E+03  0.7818608E-02  0.1152927E+00
         21   -1    0    0  501  502  0.00000000000E+00  0.00000000000E+00  0.18977029075E+04  0.18977029075E+04  0.00000000000E+00 0.  1.
         21   -1    0    0  502  503 -0.00000000000E+00 -0.00000000000E+00 -0.49251666678E+02  0.49251666678E+02  0.00000000000E+00 0.  1.
         -6    2    1    2    0  503  0.52708101072E+02  0.77815010777E+02  0.17810809439E+03  0.26519637495E+03  0.17254942531E+03 0.  0.
        -24    2    3    3    0    0  0.89448288604E+02  0.96375887333E+02  0.15371996828E+03  0.21712124402E+03  0.78882811586E+02 0.  0.
          6    2    1    2  501    0 -0.52708101072E+02 -0.77815010777E+02  0.16703431464E+04  0.16817581992E+04  0.17155493007E+03 0.  0.
         24    2    5    5    0    0 -0.10790801390E+02 -0.12520971546E+02  0.13371309761E+04  0.13395991543E+04  0.79582855126E+02 0.  0.
          5    1    5    5  501    0 -0.41917299682E+02 -0.65294039231E+02  0.33321217031E+03  0.34215904491E+03  0.47000000000E+01 0. -1.
        -11    1    6    6    0    0  0.10950304566E+01 -0.44890792568E+02  0.60971646904E+03  0.61136777390E+03  0.00000000000E+00 0.  1.
         12    1    6    6    0    0 -0.11885831846E+02  0.32369821022E+02  0.72741450707E+03  0.72823138041E+03  0.00000000000E+00 0. -1.
         -5    1    3    3    0  503 -0.36740187531E+02 -0.18560876556E+02  0.24388126113E+02  0.48075130928E+02  0.47000000000E+01 0.  1.
         13    1    4    4    0    0  0.18940602172E+02 -0.97395392704E+01  0.61607564782E+01  0.22171151441E+02  0.00000000000E+00 0. -1.
        -14    1    4    4    0    0  0.70507686431E+02  0.10611542660E+03  0.14755921180E+03  0.19495009258E+03  0.00000000000E+00 0.  1.
</event>
<event>
12    1  0.1030140E-001  0.1831765E+03  0.7818608E-02  0.1164928E+00
         21   -1    0    0  503  502  0.00000000000E+00  0.00000000000E+00  0.46264722885E+02  0.46264722885E+02  0.00000000000E+00 0. -1.
         21   -1    0    0  501  503 -0.00000000000E+00 -0.00000000000E+00 -0.88937012256E+03  0.88937012256E+03  0.00000000000E+00 0. -1.
          6    2    1    2  501    0  0.51712817285E+02  0.36911577726E+02 -0.62482849316E+03  0.65112539385E+03  0.17180498424E+03 0.  0.
         24    2    3    3    0    0  0.46705482140E+01 -0.10247539957E+02 -0.13375947732E+03  0.15553703061E+03  0.78570630786E+02 0.  0.
         -6    2    1    2    0  502 -0.51712817285E+02 -0.36911577726E+02 -0.21827690652E+03  0.28450945160E+03  0.17106764770E+03 0.  0.
        -24    2    5    5    0    0 -0.13832596890E+02  0.32163605823E+01 -0.28315274481E+02  0.86639104714E+02  0.80640523216E+02 0.  0.
          5    1    3    3  501    0  0.47042269071E+02  0.47159117683E+02 -0.49106901584E+03  0.49558836324E+03  0.47000000000E+01 0. -1.
        -11    1    4    4    0    0  0.19532610551E+02 -0.40886825388E+02 -0.77400167937E+02  0.89688579886E+02  0.00000000000E+00 0.  1.
         12    1    4    4    0    0 -0.14862062337E+02  0.30639285431E+02 -0.56359309383E+02  0.65848450724E+02  0.00000000000E+00 0. -1.
         -5    1    5    5    0  502 -0.37880220396E+02 -0.40127938308E+02 -0.18996163204E+03  0.19787034689E+03  0.47000000000E+01 0.  1.
         13    1    6    6    0    0 -0.10174384818E+02 -0.38522855940E+02 -0.11285335763E+02  0.41411198238E+02  0.00000000000E+00 0. -1.
        -14    1    6    6    0    0 -0.36582120719E+01  0.41739216523E+02 -0.17029938718E+02  0.45227906476E+02  0.00000000000E+00 0.  1.
</event>
<event>
12    1  0.1030140E-001  0.2018272E+03  0.7818608E-02  0.1148211E+00
         21   -1    0    0  503  502  0.00000000000E+00  0.00000000000E+00  0.13497715981E+03  0.13497715981E+03  0.00000000000E+00 0. -1.
         21   -1    0    0  501  503 -0.00000000000E+00 -0.00000000000E+00 -0.30943816938E+03  0.30943816938E+03  0.00000000000E+00 0. -1.
          6    2    1    2  501    0 -0.57340669638E+02 -0.88876367445E+02 -0.52218429381E+02  0.20847299173E+03  0.17189317272E+03 0.  0.
         24    2    3    3    0    0 -0.15110108925E+02  0.21154472397E+02 -0.30568848807E+02  0.88552183217E+02  0.78937998081E+02 0.  0.
         -6    2    1    2    0  502  0.57340669638E+02  0.88876367445E+02 -0.12224258019E+03  0.23594233746E+03  0.17186790600E+03 0.  0.
        -24    2    5    5    0    0  0.54764796279E+02 -0.21748232358E+02 -0.43241782809E+02  0.99899501592E+02  0.68102056619E+02 0.  0.
          5    1    3    3  501    0 -0.42230560713E+02 -0.11003083984E+03 -0.21649580574E+02  0.11992080851E+03  0.47000000000E+01 0. -1.
        -11    1    4    4    0    0 -0.44014333818E+02  0.17159208768E+02 -0.13522491705E+01  0.47260222226E+02  0.00000000000E+00 0.  1.
         12    1    4    4    0    0  0.28904224894E+02  0.39952636291E+01 -0.29216599637E+02  0.41291960991E+02  0.00000000000E+00 0. -1.
         -5    1    5    5    0  502  0.25758733586E+01  0.11062459980E+03 -0.79000797379E+02  0.13604283587E+03  0.47000000000E+01 0.  1.
         11    1    6    6    0    0 -0.76537810256E+00 -0.22668521323E+02 -0.37817101463E+02  0.44097401575E+02  0.00000000000E+00 0. -1.
        -12    1    6    6    0    0  0.55530174381E+02  0.92028896515E+00 -0.54246813455E+01  0.55802100017E+02  0.00000000000E+00 0.  1.
</event>
<event>
12    1  0.1030140E-001  0.1753099E+03  0.7818608E-02  0.1172671E+00
         21   -1    0    0  501  502  0.00000000000E+00  0.00000000000E+00  0.68683196229E+03  0.68683196229E+03  0.00000000000E+00 0. -1.
         21   -1    0    0  502  503 -0.00000000000E+00 -0.00000000000E+00 -0.44766314288E+02  0.44766314288E+02  0.00000000000E+00 0. -1.
         -6    2    1    2    0  503  0.48861539747E+01 -0.33287487145E+02  0.34868106060E+03  0.38982630370E+03  0.17103839841E+03 0.  0.
        -24    2    3    3    0    0  0.11871427298E+02 -0.83881075694E+02  0.18877870601E+03  0.22189965826E+03  0.80156676855E+02 0.  0.
          6    2    1    2  501    0 -0.48861539747E+01  0.33287487145E+02  0.29338458740E+03  0.34177197288E+03  0.17205125406E+03 0.  0.
         24    2    5    5    0    0  0.16181009728E+02 -0.25360967609E+02  0.72911731794E+02  0.11261299599E+03  0.80377624243E+02 0.  0.
          5    1    5    5  501    0 -0.21067163703E+02  0.58648454753E+02  0.22047285561E+03  0.22915897689E+03  0.47000000000E+01 0. -1.
        -13    1    6    6    0    0 -0.71243179669E+00 -0.23604015507E+02  0.87247666158E+02  0.90387014317E+02  0.00000000000E+00 0.  1.
         14    1    6    6    0    0  0.16893441525E+02 -0.17569521019E+01 -0.14335934364E+02  0.22225981673E+02  0.00000000000E+00 0. -1.
         -5    1    3    3    0  503 -0.69852733234E+01  0.50593588549E+02  0.15990235459E+03  0.16792664544E+03  0.47000000000E+01 0.  1.
         11    1    4    4    0    0  0.21204022303E+02 -0.85847583645E+01  0.54866146551E+01  0.23524701451E+02  0.00000000000E+00 0. -1.
        -12    1    4    4    0    0 -0.93325950044E+01 -0.75296317329E+02  0.18329209136E+03  0.19837495681E+03  0.00000000000E+00 0.  1.
</event>
<event>
12    1  0.1030140E-001  0.2154938E+03  0.7818608E-02  0.1138647E+00
         21   -1    0    0  501  502  0.00000000000E+00  0.00000000000E+00  0.16314669850E+03  0.16314669850E+03  0.00000000000E+00 0.  1.
         21   -1    0    0  502  503 -0.00000000000E+00 -0.00000000000E+00 -0.28597272876E+03  0.28597272876E+03  0.00000000000E+00 0.  1.
         -6    2    1    2    0  503 -0.12272248275E+03 -0.40056708611E+02 -0.10535671778E+03  0.23986996778E+03  0.17254627142E+03 0.  0.
        -24    2    3    3    0    0 -0.96392361350E+02  0.33349089472E+02 -0.94848150327E+02  0.16103972945E+03  0.80832999110E+02 0.  0.
          6    2    1    2  501    0  0.12272248275E+03  0.40056708611E+02 -0.17469312470E+02  0.20924945949E+03  0.16375228774E+03 0.  0.
         24    2    5    5    0    0  0.10537351293E+03  0.29292570420E+01  0.40477899261E+02  0.13811997361E+03  0.79539355080E+02 0.  0.
          5    1    5    5  501    0  0.17348969822E+02  0.37127451569E+02 -0.57947211731E+02  0.71129485878E+02  0.47000000000E+01 0. -1.
        -13    1    6    6    0    0  0.10914331688E+03 -0.16984395954E+02  0.26777340897E+02  0.11365632104E+03  0.00000000000E+00 0.  1.
         14    1    6    6    0    0 -0.37698039547E+01  0.19913652996E+02  0.13700558364E+02  0.24463652568E+02  0.00000000000E+00 0. -1.
         -5    1    3    3    0  503 -0.26330121402E+02 -0.73405798083E+02 -0.10508567457E+02  0.78830238331E+02  0.47000000000E+01 0.  1.
         13    1    4    4    0    0 -0.35750091858E+02  0.54425092140E+02 -0.56822731254E+02  0.86423275276E+02  0.00000000000E+00 0. -1.
        -14    1    4    4    0    0 -0.60642269492E+02 -0.21076002668E+02 -0.38025419073E+02  0.74616454172E+02  0.00000000000E+00 0.  1.
</event>
<event>
12    1  0.1030140E-001  0.1974648E+03  0.7818608E-02  0.1152113E+00
         21   -1    0    0  503  502  0.00000000000E+00  0.00000000000E+00  0.81023217867E+03  0.81023217867E+03  0.00000000000E+00 0. -1.
         21   -1    0    0  501  503 -0.00000000000E+00 -0.00000000000E+00 -0.57322449356E+02  0.57322449356E+02  0.00000000000E+00 0.  1.
          6    2    1    2  501    0  0.86219147440E+02 -0.41197466035E+02  0.19959223780E+03  0.28005773640E+03  0.17165168726E+03 0.  0.
         24    2    3    3    0    0  0.19205004448E+02 -0.49971987646E+02  0.36568754721E+02  0.10351699429E+03  0.80699829868E+02 0.  0.
         -6    2    1    2    0  502 -0.86219147440E+02  0.41197466035E+02  0.55331749151E+03  0.58749689162E+03  0.17280445207E+03 0.  0.
        -24    2    5    5    0    0  0.20287444710E+02 -0.50523828105E+00  0.19841391542E+03  0.21458750847E+03  0.79169951870E+02 0.  0.
          5    1    3    3  501    0  0.67014142993E+02  0.87745216111E+01  0.16302348307E+03  0.17654074211E+03  0.47000000000E+01 0. -1.
        -13    1    4    4    0    0  0.63740337801E+01 -0.10713258980E+02 -0.25833707317E+02  0.28684188298E+02  0.00000000000E+00 0.  1.
         14    1    4    4    0    0  0.12830970668E+02 -0.39258728666E+02  0.62402462038E+02  0.74832805995E+02  0.00000000000E+00 0. -1.
         -5    1    5    5    0  502 -0.10650659215E+03  0.41702704316E+02  0.35490357609E+03  0.37290938315E+03  0.47000000000E+01 0.  1.
         11    1    6    6    0    0 -0.16842735045E+02 -0.51531174822E+01  0.15997731092E+03  0.16094400378E+03  0.00000000000E+00 0. -1.
        -12    1    6    6    0    0  0.37130179756E+02  0.46478792011E+01  0.38436604507E+02  0.53643504694E+02  0.00000000000E+00 0.  1.
</event>
<event>
12    1  0.1030140E-001  0.2153521E+03  0.7818608E-02  0.1137567E+00
         21   -1    0    0  501  502  0.00000000000E+00  0.00000000000E+00  0.11987762899E+03  0.11987762899E+03  0.00000000000E+00 0. -1.
         21   -1    0    0  502  503 -0.00000000000E+00 -0.00000000000E+00 -0.64643721246E+03  0.64643721246E+03  0.00000000000E+00 0. -1.
         -6    2    1    2    0  503  0.21273709838E+02 -0.12796156795E+03 -0.50714496678E+03  0.55097417242E+03  0.17190051700E+03 0.  0.
        -24    2    3    3    0    0  0.15406131402E+02 -0.13317667754E+03 -0.51575365666E+03  0.53841131501E+03  0.76886497174E+02 0.  0.
          6    2    1    2  501    0 -0.21273709838E+02  0.12796156795E+03 -0.19414616695E+02  0.21534066903E+03  0.17078624885E+03 0.  0.
         24    2    5    5    0    0  0.26701775148E+02  0.96506559424E+02 -0.64693633712E+02  0.14210581324E+03  0.77345297889E+02 0.  0.
          5    1    5    5  501    0 -0.47975484986E+02  0.31455008527E+02  0.45279017017E+02  0.73234855793E+02  0.47000000000E+01 0. -1.
        -13    1    6    6    0    0  0.45678494146E+02  0.31665508547E+02 -0.45615882218E+02  0.71902976082E+02  0.00000000000E+00 0.  1.
         14    1    6    6    0    0 -0.18976718998E+02  0.64841050877E+02 -0.19077751494E+02  0.70202837157E+02  0.00000000000E+00 0. -1.
         -5    1    3    3    0  503  0.58675784362E+01  0.52151095904E+01  0.86086898850E+01  0.12562857409E+02  0.47000000000E+01 0.  1.
         11    1    4    4    0    0  0.25068810947E+02 -0.13843485541E+03 -0.44222302199E+03  0.46406234026E+03  0.00000000000E+00 0. -1.
        -12    1    4    4    0    0 -0.96626795449E+01  0.52581778720E+01 -0.73530634677E+02  0.74348974751E+02  0.00000000000E+00 0.  1.
</event>
<event>
12    1  0.1030140E-001  0.1836606E+03  0.7818608E-02  0.1164397E+00
         21   -1    0    0  503  502  0.00000000000E+00  0.00000000000E+00  0.17296362926E+03  0.17296362926E+03  0.00000000000E+00 0. -1.
         21   -1    0    0  501  503 -0.00000000000E+00 -0.00000000000E+00 -0.43310407263E+03  0.43310407263E+03  0.00000000000E+00 0. -1.
          6    2    1    2  501    0 -0.64105515903E+02 -0.86620974852E+01 -0.35487909347E+03  0.39941191477E+03  0.17148223692E+03 0.  0.
         24    2    3    3    0    0  0.17341351110E+02  0.31309841094E+02 -0.11031621985E+03  0.13852029518E+03  0.75744143057E+02 0.  0.
         -6    2    1    2    0  502  0.64105515903E+02  0.86620974852E+01  0.94738650104E+02  0.20665578711E+03  0.17189140008E+03 0.  0.
        -24    2    5    5    0    0  0.96549601800E+02  0.61425120124E+00  0.10282838396E+03  0.17194382472E+03  0.98330053388E+02 0.  0.
          5    1    3    3  501    0 -0.81446867013E+02 -0.39971938579E+02 -0.24456287362E+03  0.26089161960E+03  0.47000000000E+01 0. -1.
        -11    1    4    4    0    0 -0.19458405035E+02  0.28177809292E+02 -0.17144602131E+02  0.38295637418E+02  0.00000000000E+00 0.  1.
         12    1    4    4    0    0  0.36799756145E+02  0.31320318023E+01 -0.93171617715E+02  0.10022465776E+03  0.00000000000E+00 0. -1.
         -5    1    5    5    0  502 -0.32444085897E+02  0.80478462840E+01 -0.80897338545E+01  0.34711962395E+02  0.47000000000E+01 0.  1.
         11    1    6    6    0    0  0.72225199491E+02  0.17830764126E+02  0.10754035148E+02  0.75166913351E+02  0.00000000000E+00 0. -1.
        -12    1    6    6    0    0  0.24324402309E+02 -0.17216512925E+02  0.92074348810E+02  0.96776911367E+02  0.00000000000E+00 0.  1.
</event>
<event>
12    1  0.1030140E-001  0.1928785E+03  0.7818608E-02  0.1155962E+00
         21   -1    0    0  503  502  0.00000000000E+00  0.00000000000E+00  0.81735396255E+03  0.81735396255E+03  0.00000000000E+00 0.  1.
         21   -1    0    0  501  503 -0.00000000000E+00 -0.00000000000E+00 -0.17375648333E+03  0.17375648333E+03  0.00000000000E+00 0.  1.
          6    2    1    2  501    0  0.81074722527E+02 -0.30336890733E+02 -0.10413034744E+03  0.21890645713E+03  0.17199845972E+03 0.  0.
         24    2    3    3    0    0  0.89518492724E+02  0.12835281936E+02 -0.12091099862E+03  0.17159034991E+03  0.81519774245E+02 0.  0.
         -6    2    1    2    0  502 -0.81074722527E+02  0.30336890733E+02  0.74772782666E+03  0.77220398875E+03  0.17236200250E+03 0.  0.
        -24    2    5    5    0    0 -0.38511431729E+02  0.62455627485E+02  0.66457943035E+03  0.67331519877E+03  0.79395855515E+02 0.  0.
          5    1    3    3  501    0 -0.84437701966E+01 -0.43172172669E+02  0.16780651188E+02  0.47316107219E+02  0.47000000000E+01 0. -1.
        -13    1    4    4    0    0 -0.48485414255E+01 -0.36385043430E+01 -0.54949400525E+02  0.55282761199E+02  0.00000000000E+00 0.  1.
         14    1    4    4    0    0  0.94367034149E+02  0.16473786279E+02 -0.65961598100E+02  0.11630758871E+03  0.00000000000E+00 0. -1.
         -5    1    5    5    0  502 -0.42563290798E+02 -0.32118736753E+02  0.83148396306E+02  0.98888789974E+02  0.47000000000E+01 0.  1.
         13    1    6    6    0    0 -0.12681509553E+02 -0.13308093220E+02  0.45358474024E+02  0.48941977846E+02  0.00000000000E+00 0. -1.
        -14    1    6    6    0    0 -0.25829922176E+02  0.75763720705E+02  0.61922095633E+03  0.62437322093E+03  0.00000000000E+00 0.  1.
</event>
<event>
12    1  0.1030140E-001  0.2027953E+03  0.7818608E-02  0.1147428E+00
         21   -1    0    0  501  502  0.00000000000E+00  0.00000000000E+00  0.53522857205E+03  0.53522857205E+03  0.00000000000E+00 0.  1.
         21   -1    0    0  502  503 -0.00000000000E+00 -0.00000000000E+00 -0.16883153146E+03  0.16883153146E+03  0.00000000000E+00 0. -1.
         -6    2    1    2    0  503  0.92695677953E+02  0.51826589162E+02 -0.76748883497E+02  0.21671601497E+03  0.17261794800E+03 0.  0.
        -24    2    3    3    0    0  0.12810825813E+03  0.29329213729E+02 -0.82699347501E+02  0.17408174756E+03  0.78697802875E+02 0.  0.
          6    2    1    2  501    0 -0.92695677953E+02 -0.51826589162E+02  0.44314592409E+03  0.48734408854E+03  0.17276419346E+03 0.  0.
         24    2    5    5    0    0  0.10234300513E+02 -0.84410024661E+01  0.26470525167E+03  0.27677330906E+03  0.79740848459E+02 0.  0.
          5    1    5    5  501    0 -0.10292997847E+03 -0.43385586696E+02  0.17844067241E+03  0.21057077948E+03  0.47000000000E+01 0. -1.
        -13    1    6    6    0    0 -0.16080598786E+02 -0.17389171258E+02  0.23462588887E+03  0.23581831283E+03  0.00000000000E+00 0.  1.
         14    1    6    6    0    0  0.26314899299E+02  0.89481687917E+01  0.30079362801E+02  0.40954996232E+02  0.00000000000E+00 0. -1.
         -5    1    3    3    0  503 -0.35412580176E+02  0.22497375433E+02  0.59504640048E+01  0.42634267414E+02  0.47000000000E+01 0.  1.
         13    1    4    4    0    0  0.10072319225E+03 -0.50162236426E+01 -0.29465599057E+02  0.10506448251E+03  0.00000000000E+00 0. -1.
        -14    1    4    4    0    0  0.27385065874E+02  0.34345437372E+02 -0.53233748445E+02  0.69017265048E+02  0.00000000000E+00 0.  1.
</event>
<event>
12    1  0.1030140E-001  0.2368937E+03  0.7818608E-02  0.1122017E+00
         21   -1    0    0  501  502  0.00000000000E+00  0.00000000000E+00  0.61028793468E+03  0.61028793468E+03  0.00000000000E+00 0. -1.
         21   -1    0    0  502  503 -0.00000000000E+00 -0.00000000000E+00 -0.12948640895E+03  0.12948640895E+03  0.00000000000E+00 0. -1.
         -6    2    1    2    0  503 -0.14128555341E+03  0.79564747018E+02  0.40721753223E+02  0.24036821987E+03  0.17270339709E+03 0.  0.
        -24    2    3    3    0    0 -0.70634992411E+02  0.67624379741E+02 -0.39222497909E+02  0.13291010045E+03  0.81020562644E+02 0.  0.
          6    2    1    2  501    0  0.14128555341E+03 -0.79564747018E+02  0.44007977251E+03  0.49940612376E+03  0.17159287196E+03 0.  0.
         24    2    5    5    0    0  0.48829449440E+02  0.18589034305E+02  0.22581695563E+03  0.24620079079E+03  0.83016050282E+02 0.  0.
          5    1    5    5  501    0  0.92456103969E+02 -0.98153781323E+02  0.21426281688E+03  0.25320533297E+03  0.47000000000E+01 0. -1.
        -13    1    6    6    0    0  0.70125971638E+02  0.24731851762E+02  0.15348435464E+03  0.17054841984E+03  0.00000000000E+00 0.  1.
         14    1    6    6    0    0 -0.21296522199E+02 -0.61428174571E+01  0.72332600992E+02  0.75652370950E+02  0.00000000000E+00 0. -1.
         -5    1    3    3    0  503 -0.70650560997E+02  0.11940367277E+02  0.79944251133E+02  0.10745811942E+03  0.47000000000E+01 0.  1.
         13    1    4    4    0    0 -0.73342928476E+02  0.16058000261E+02 -0.18941701449E+02  0.77432761694E+02  0.00000000000E+00 0. -1.
        -14    1    4    4    0    0  0.27079360644E+01  0.51566379480E+02 -0.20280796461E+02  0.55477338757E+02  0.00000000000E+00 0.  1.
</event>
<event>
12    1  0.1030140E-001  0.2596083E+03  0.7818608E-02  0.1107580E+00
         21   -1    0    0  503  502  0.00000000000E+00  0.00000000000E+00  0.29040146897E+03  0.29040146897E+03  0.00000000000E+00 0.  1.
         21   -1    0    0  501  503 -0.00000000000E+00 -0.00000000000E+00 -0.27840477795E+03  0.27840477795E+03  0.00000000000E+00 0.  1.
          6    2    1    2  501    0 -0.23512718895E+02 -0.19092381316E+03  0.12347530884E+03  0.28627496405E+03  0.17234399545E+03 0.  0.
         24    2    3    3    0    0  0.44425332106E+01 -0.20283308851E+03  0.79214604489E+02  0.23238222883E+03  0.81028074233E+02 0.  0.
         -6    2    1    2    0  502  0.23512718895E+02  0.19092381316E+03 -0.11147861782E+03  0.28253128288E+03  0.17433213471E+03 0.  0.
        -24    2    5    5    0    0 -0.11266657644E+02  0.17798778003E+03 -0.37646850710E+02  0.19976555434E+03  0.81745971895E+02 0.  0.
          5    1    3    3  501    0 -0.27955252106E+02  0.11909275355E+02  0.44260704350E+02  0.53892735219E+02  0.47000000000E+01 0. -1.
        -13    1    4    4    0    0  0.24422737586E+02 -0.79944769568E+02  0.67289628258E+02  0.10731043921E+03  0.00000000000E+00 0.  1.
         14    1    4    4    0    0 -0.19980204375E+02 -0.12288831895E+03  0.11924976230E+02  0.12507178962E+03  0.00000000000E+00 0. -1.
         -5    1    5    5    0  502  0.34779376539E+02  0.12936033134E+02 -0.73831767108E+02  0.82765728535E+02  0.47000000000E+01 0.  1.
         13    1    6    6    0    0 -0.24563432069E+02  0.99308798267E+01 -0.12580534499E+02  0.29330094058E+02  0.00000000000E+00 0. -1.
        -14    1    6    6    0    0  0.13296774426E+02  0.16805690020E+03 -0.25066316211E+02  0.17043546029E+03  0.00000000000E+00 0.  1.
</event>
<event>
12    1  0.1030140E-001  0.2026461E+03  0.7818608E-02  0.1147926E+00
         21   -1    0    0  503  502  0.00000000000E+00  0.00000000000E+00  0.31428556959E+03  0.31428556959E+03  0.00000000000E+00 0. -1.
         21   -1    0    0  501  503 -0.00000000000E+00 -0.00000000000E+00 -0.32118573216E+03  0.32118573216E+03  0.00000000000E+00 0. -1.
          6    2    1    2  501    0  0.10420842800E+03 -0.56931279351E+01 -0.24896389216E+03  0.32101164165E+03  0.17370563117E+03 0.  0.
         24    2    3    3    0    0  0.13401089981E+03 -0.12198683537E+02 -0.14949511376E+03  0.21686445034E+03  0.81078182257E+02 0.  0.
         -6    2    1    2    0  502 -0.10420842800E+03  0.56931279351E+01  0.24206372960E+03  0.31445966010E+03  0.17145909271E+03 0.  0.
        -24    2    5    5    0    0 -0.26708854605E+02 -0.62260802388E+01  0.21511439992E+03  0.23141384281E+03  0.80783875883E+02 0.  0.
          5    1    3    3  501    0 -0.29802471809E+02  0.65055556016E+01 -0.99468778403E+02  0.10414719130E+03  0.47000000000E+01 0. -1.
        -11    1    4    4    0    0 -0.94617077891E+01 -0.96845400838E+01 -0.11136095654E+02  0.17530740353E+02  0.00000000000E+00 0.  1.
         12    1    4    4    0    0  0.14347260760E+03 -0.25141434529E+01 -0.13835901810E+03  0.19933370999E+03  0.00000000000E+00 0. -1.
         -5    1    5    5    0  502 -0.77499573394E+02  0.11919208174E+02  0.26949329677E+02  0.83045817292E+02  0.47000000000E+01 0.  1.
         11    1    6    6    0    0 -0.49228557474E+02  0.17829366803E+02  0.13110047343E+03  0.14116894604E+03  0.00000000000E+00 0. -1.
        -12    1    6    6    0    0  0.22519702869E+02 -0.24055447041E+02  0.84013926483E+02  0.90244896769E+02  0.00000000000E+00 0.  1.
</event>
<event>
12    1  0.1030140E-001  0.1833747E+03  0.7818608E-02  0.1164859E+00
         21   -1    0    0  501  502  0.00000000000E+00  0.00000000000E+00  0.14153323166E+03  0.14153323166E+03  0.00000000000E+00 0. -1.
         21   -1    0    0  502  503 -0.00000000000E+00 -0.00000000000E+00 -0.40218159197E+03  0.40218159197E+03  0.00000000000E+00 0. -1.
         -6    2    1    2    0  503  0.41340238175E+02  0.48577359417E+02  0.44155229434E+02  0.18861588978E+03  0.17192293172E+03 0.  0.
        -24    2    3    3    0    0  0.15121421679E+02  0.96938428487E+02  0.18728879084E+02  0.12783095223E+03  0.79776344403E+02 0.  0.
          6    2    1    2  501    0 -0.41340238175E+02 -0.48577359417E+02 -0.30480358974E+03  0.35509893386E+03  0.17064949272E+03 0.  0.
         24    2    5    5    0    0 -0.61816428598E+02  0.19501885705E+02 -0.22699908627E+03  0.24960159384E+03  0.81060323756E+02 0.  0.
          5    1    5    5  501    0  0.20476190423E+02 -0.68079245121E+02 -0.77804503467E+02  0.10549734002E+03  0.47000000000E+01 0. -1.
        -11    1    6    6    0    0  0.16103820662E+02  0.12047588215E+02 -0.20291685284E+02  0.28569737720E+02  0.00000000000E+00 0.  1.
         12    1    6    6    0    0 -0.77920249260E+02  0.74542974894E+01 -0.20670740099E+03  0.22103185612E+03  0.00000000000E+00 0. -1.
         -5    1    3    3    0  503  0.26218816495E+02 -0.48361069070E+02  0.25426350350E+02  0.60784937543E+02  0.47000000000E+01 0.  1.
         11    1    4    4    0    0  0.18504030312E+02  0.28652064217E+02  0.43352944584E+02  0.55161741504E+02  0.00000000000E+00 0. -1.
        -12    1    4    4    0    0 -0.33826086327E+01  0.68286364270E+02 -0.24624065500E+02  0.72669210731E+02  0.00000000000E+00 0.  1.
</event>
<event>
12    1  0.1030140E-001  0.3121868E+03  0.7818608E-02  0.1079644E+00
         21   -1    0    0  501  502  0.00000000000E+00  0.00000000000E+00  0.10553332298E+03  0.10553332298E+03  0.00000000000E+00 0. -1.
         21   -1    0    0  502  503 -0.00000000000E+00 -0.00000000000E+00 -0.93113934960E+03  0.93113934960E+03  0.00000000000E+00 0.  1.
         -6    2    1    2    0  503 -0.20875595061E+03 -0.15206041315E+03 -0.34654817985E+03  0.46642922557E+03  0.17538291064E+03 0.  0.
        -24    2    3    3    0    0 -0.60793488414E+02 -0.10304130723E+03 -0.10110536017E+03  0.17563715089E+03  0.79452851981E+02 0.  0.
          6    2    1    2  501    0  0.20875595061E+03  0.15206041315E+03 -0.47905784676E+03  0.57024344701E+03  0.17023440355E+03 0.  0.
         24    2    5    5    0    0  0.59013492472E+02  0.23013173224E+02 -0.10372435746E+03  0.14601083146E+03  0.80921085872E+02 0.  0.
          5    1    5    5  501    0  0.14974245813E+03  0.12904723993E+03 -0.37533348930E+03  0.42423261555E+03  0.47000000000E+01 0. -1.
        -13    1    6    6    0    0  0.39882099277E+02  0.11163007715E+02 -0.11398669382E+03  0.12127720706E+03  0.00000000000E+00 0.  1.
         14    1    6    6    0    0  0.19131393195E+02  0.11850165509E+02  0.10262336367E+02  0.24733624399E+02  0.00000000000E+00 0. -1.
         -5    1    3    3    0  503 -0.14796246219E+03 -0.49019105925E+02 -0.24544281969E+03  0.29079207469E+03  0.47000000000E+01 0.  1.
         11    1    4    4    0    0 -0.55566889774E+02 -0.25793297216E+02 -0.67729767950E+02  0.91325214957E+02  0.00000000000E+00 0. -1.
        -12    1    4    4    0    0 -0.52265986402E+01 -0.77248010013E+02 -0.33375592218E+02  0.84311935929E+02  0.00000000000E+00 0.  1.
</event>
<event>
12    1  0.1030140E-001  0.2195758E+03  0.7818608E-02  0.1134482E+00
         21   -1    0    0  501  502  0.00000000000E+00  0.00000000000E+00  0.21647437191E+02  0.21647437191E+02  0.00000000000E+00 0.  1.
         21   -1    0    0  502  503 -0.00000000000E+00 -0.00000000000E+00 -0.22953966980E+04  0.22953966980E+04  0.00000000000E+00 0.  1.
         -6    2    1    2    0  503  0.12552706652E+03 -0.53638588928E+02 -0.91228322738E+03  0.93798528459E+03  0.17006341315E+03 0.  0.
        -24    2    3    3    0    0  0.15105355006E+03 -0.60349056864E+02 -0.65432542158E+03  0.67863812089E+03  0.77128193020E+02 0.  0.
          6    2    1    2  501    0 -0.12552706652E+03  0.53638588928E+02 -0.13614660334E+04  0.13790588506E+04  0.17198665819E+03 0.  0.
         24    2    5    5    0    0 -0.70466370693E+02 -0.19665340311E+02 -0.10039448073E+04  0.10099400846E+04  0.81985141408E+02 0.  0.
          5    1    5    5  501    0 -0.55060695829E+02  0.73303929239E+02 -0.35752122611E+03  0.36911876597E+03  0.47000000000E+01 0. -1.
        -13    1    6    6    0    0 -0.53177970630E+02 -0.46290911193E+02 -0.49371372027E+03  0.49872235022E+03  0.00000000000E+00 0.  1.
         14    1    6    6    0    0 -0.17288400064E+02  0.26625570881E+02 -0.51023108700E+03  0.51121773438E+03  0.00000000000E+00 0. -1.
         -5    1    3    3    0  503 -0.25526483535E+02  0.67104679367E+01 -0.25795780580E+03  0.25934716369E+03  0.47000000000E+01 0.  1.
         13    1    4    4    0    0  0.77860910877E+02 -0.77739213213E+01 -0.42683700040E+03  0.43394997431E+03  0.00000000000E+00 0. -1.
        -14    1    4    4    0    0  0.73192639181E+02 -0.52575135543E+02 -0.22748842117E+03  0.24468814658E+03  0.00000000000E+00 0.  1.
</event>
<event>
12    1  0.1030140E-001  0.2061737E+03  0.7818608E-02  0.1144968E+00
         21   -1    0    0  501  502  0.00000000000E+00  0.00000000000E+00  0.25067528409E+04  0.25067528409E+04  0.00000000000E+00 0. -1.
         21   -1    0    0  502  503 -0.00000000000E+00 -0.00000000000E+00 -0.24594599092E+02  0.24594599092E+02  0.00000000000E+00 0. -1.
         -6    2    1    2    0  503  0.10865903966E+03 -0.26396830454E+02  0.52615631859E+03  0.56450959443E+03  0.17125136805E+03 0.  0.
        -24    2    3    3    0    0  0.24370164134E+02 -0.70590401211E+02  0.28199658383E+03  0.30241466448E+03  0.79722307753E+02 0.  0.
          6    2    1    2  501    0 -0.10865903966E+03  0.26396830454E+02  0.19560019233E+04  0.19668378456E+04  0.17321664907E+03 0.  0.
         24    2    5    5    0    0 -0.10544157072E+03  0.49624184822E+02  0.19075959066E+04  0.19128462301E+04  0.80486474009E+02 0.  0.
          5    1    5    5  501    0 -0.32174689413E+01 -0.23227354368E+02  0.48406016670E+02  0.53991615527E+02  0.47000000000E+01 0. -1.
        -11    1    6    6    0    0 -0.55432437496E+02 -0.15328421700E+01  0.12773309854E+04  0.12785341415E+04  0.00000000000E+00 0.  1.
         12    1    6    6    0    0 -0.50009133226E+02  0.51157026992E+02  0.63026492121E+03  0.63431208859E+03  0.00000000000E+00 0. -1.
         -5    1    3    3    0  503  0.84288875530E+02  0.44193570757E+02  0.24415973475E+03  0.26209492995E+03  0.47000000000E+01 0.  1.
         11    1    4    4    0    0  0.47634501740E+02 -0.16772310516E+02  0.12393593120E+03  0.13383000859E+03  0.00000000000E+00 0. -1.
        -12    1    4    4    0    0 -0.23264337606E+02 -0.53818090694E+02  0.15806065264E+03  0.16858465589E+03  0.00000000000E+00 0.  1.
</event>
<event>
12    1  0.1030140E-001  0.1753215E+03  0.7818608E-02  0.1172799E+00
         21   -1    0    0  501  502  0.00000000000E+00  0.00000000000E+00  0.27121244772E+03  0.27121244772E+03  0.00000000000E+00 0.  1.
         21   -1    0    0  502  503 -0.00000000000E+00 -0.00000000000E+00 -0.12441620428E+03  0.12441620428E+03  0.00000000000E+00 0.  1.
         -6    2    1    2    0  503  0.11397208011E+02 -0.27453064736E+02  0.11463042132E+02  0.17415017252E+03  0.17121131429E+03 0.  0.
        -24    2    3    3    0    0  0.11600697695E+02 -0.70032898798E+02  0.50857170673E+02  0.11595162409E+03  0.76283315467E+02 0.  0.
          6    2    1    2  501    0 -0.11397208011E+02  0.27453064736E+02  0.13533320131E+03  0.22147847947E+03  0.17278331626E+03 0.  0.
         24    2    5    5    0    0 -0.30750621136E+02 -0.33346660889E+02  0.28635031910E+02  0.97068871368E+02  0.80899939700E+02 0.  0.
          5    1    5    5  501    0  0.19353413125E+02  0.60799725625E+02  0.10669816940E+03  0.12440960810E+03  0.47000000000E+01 0. -1.
        -11    1    6    6    0    0 -0.56036113830E+02 -0.30308432683E+02  0.78362901968E+01  0.64187651374E+02  0.00000000000E+00 0.  1.
         12    1    6    6    0    0  0.25285492694E+02 -0.30382282057E+01  0.20798741714E+02  0.32881219994E+02  0.00000000000E+00 0. -1.
         -5    1    3    3    0  503 -0.20348968371E+00  0.42579834062E+02 -0.39394128541E+02  0.58198548438E+02  0.47000000000E+01 0.  1.
         11    1    4    4    0    0  0.37452234635E+02 -0.26037644939E+02  0.45855415199E+02  0.64678805927E+02  0.00000000000E+00 0. -1.
        -12    1    4    4    0    0 -0.25851536940E+02 -0.43995253859E+02  0.50017554738E+01  0.51272818160E+02  0.00000000000E+00 0.  1.
</event>
<event>
12    1  0.1030140E-001  0.2459832E+03  0.7818608E-02  0.1115880E+00
         21   -1    0    0  501  502  0.00000000000E+00  0.00000000000E+00  0.98127321861E+02  0.98127321861E+02  0.00000000000E+00 0.  1.
         21   -1    0    0  502  503 -0.00000000000E+00 -0.00000000000E+00 -0.10198439713E+04  0.10198439713E+04  0.00000000000E+00 0.  1.
         -6    2    1    2    0  503 -0.12805981901E+03  0.11963989081E+03 -0.81244603610E+03  0.84886766496E+03  0.17261150112E+03 0.  0.
        -24    2    3    3    0    0 -0.44777732643E+02 -0.78317042771E+01 -0.25035504052E+03  0.26649897523E+03  0.79231790038E+02 0.  0.
          6    2    1    2  501    0  0.12805981901E+03 -0.11963989081E+03 -0.10927061338E+03  0.26910362825E+03  0.17252152059E+03 0.  0.
         24    2    5    5    0    0  0.14162596773E+03 -0.12373028846E+03 -0.51285886495E+02  0.20922800469E+03  0.76019844611E+02 0.  0.
          5    1    5    5  501    0 -0.13566148720E+02  0.40903976472E+01 -0.57984726889E+02  0.59875623558E+02  0.47000000000E+01 0. -1.
        -13    1    6    6    0    0  0.12152053264E+03 -0.85095056321E+02 -0.91595798171E+01  0.14863480873E+03  0.00000000000E+00 0.  1.
         14    1    6    6    0    0  0.20105435094E+02 -0.38635232138E+02 -0.42126306677E+02  0.60593195962E+02  0.00000000000E+00 0. -1.
         -5    1    3    3    0  503 -0.83282086368E+02  0.12747159509E+03 -0.56209099557E+03  0.58236868972E+03  0.47000000000E+01 0.  1.
         11    1    4    4    0    0 -0.18041452842E+02  0.80824269494E+01 -0.22632232224E+03  0.22718409538E+03  0.00000000000E+00 0. -1.
        -12    1    4    4    0    0 -0.26736279800E+02 -0.15914131227E+02 -0.24032718278E+02  0.39314879856E+02  0.00000000000E+00 0.  1.
</event>
<event>
12    1  0.1030140E-001  0.2230759E+03  0.7818608E-02  0.1131707E+00
         21   -1    0    0  501  502  0.00000000000E+00  0.00000000000E+00  0.15028526947E+03  0.15028526947E+03  0.00000000000E+00 0. -1.
         21   -1    0    0  502  503 -0.00000000000E+00 -0.00000000000E+00 -0.33351925954E+03  0.33351925954E+03  0.00000000000E+00 0. -1.
         -6    2    1    2    0  503  0.65643564806E+02  0.12421093425E+03 -0.11535328310E+03  0.25113589770E+03  0.17327846202E+03 0.  0.
        -24    2    3    3    0    0  0.49557812455E+02  0.15569249118E+03 -0.73982815959E+02  0.19651497307E+03  0.80302857966E+02 0.  0.
          6    2    1    2  501    0 -0.65643564806E+02 -0.12421093425E+03 -0.67880706969E+02  0.23266863131E+03  0.17259625670E+03 0.  0.
         24    2    5    5    0    0 -0.40519718883E+02 -0.17760511140E+02  0.11696646517E+02  0.97326304584E+02  0.85897116656E+02 0.  0.
          5    1    5    5  501    0 -0.25123845924E+02 -0.10645042311E+03 -0.79577353486E+02  0.13534232672E+03  0.47000000000E+01 0. -1.
        -11    1    6    6    0    0 -0.28552801363E+02 -0.29875901752E+01 -0.35961859029E+02  0.46015687168E+02  0.00000000000E+00 0.  1.
         12    1    6    6    0    0 -0.11966917520E+02 -0.14772920965E+02  0.47658505546E+02  0.51310617416E+02  0.00000000000E+00 0. -1.
         -5    1    3    3    0  503  0.16085752352E+02 -0.31481556930E+02 -0.41370467145E+02  0.54620924628E+02  0.47000000000E+01 0.  1.
         11    1    4    4    0    0  0.36038654807E+01  0.30892582125E+02 -0.53600352726E+02  0.61970454970E+02  0.00000000000E+00 0. -1.
        -12    1    4    4    0    0  0.45953946974E+02  0.12479990906E+03 -0.20382463233E+02  0.13454451810E+03  0.00000000000E+00 0.  1.
</event>
<event>
12    1  0.1030140E-001  0.1776190E+03  0.7818608E-02  0.1170222E+00
         21   -1    0    0  503  502  0.00000000000E+00  0.00000000000E+00  0.82679888406E+02  0.82679888406E+02  0.00000000000E+00 0.  1.
         21   -1    0    0  501  503 -0.00000000000E+00 -0.00000000000E+00 -0.69315993596E+03  0.69315993596E+03  0.00000000000E+00 0. -1.
          6    2    1    2  501    0 -0.11560266234E+02 -0.40088079002E+02 -0.56548649135E+03  0.59261065383E+03  0.17225481504E+03 0.  0.
         24    2    3    3    0    0 -0.12006354918E+02 -0.33767500536E+02 -0.13388016403E+03  0.16093223129E+03  0.81797848973E+02 0.  0.
         -6    2    1    2    0  502  0.11560266234E+02  0.40088079002E+02 -0.44993556205E+02  0.18322917053E+03  0.17264939907E+03 0.  0.
        -24    2    5    5    0    0  0.55043973485E+02 -0.22102268065E+02 -0.94126676837E+01  0.99285369734E+02  0.79060970521E+02 0.  0.
          5    1    3    3  501    0  0.44608868472E+00 -0.63205784665E+01 -0.43160632732E+03  0.43167842254E+03  0.47000000000E+01 0. -1.
        -13    1    4    4    0    0  0.59642207771E+01  0.24978473626E+02 -0.57030219898E+02  0.62545519870E+02  0.00000000000E+00 0.  1.
         14    1    4    4    0    0 -0.17970575696E+02 -0.58745974162E+02 -0.76849944136E+02  0.98386711424E+02  0.00000000000E+00 0. -1.
         -5    1    5    5    0  502 -0.43483707251E+02  0.62190347067E+02 -0.35580888522E+02  0.83943800800E+02  0.47000000000E+01 0.  1.
         13    1    6    6    0    0 -0.16685316995E+02  0.88940163517E+01 -0.94669013505E+01  0.21145343489E+02  0.00000000000E+00 0. -1.
        -14    1    6    6    0    0  0.71729290479E+02 -0.30996284417E+02  0.54233666795E-01  0.78140026245E+02  0.00000000000E+00 0.  1.
</event>
<event>
12    1  0.1030140E-001  0.1798040E+03  0.7818608E-02  0.1168265E+00
         21   -1    0    0  503  502  0.00000000000E+00  0.00000000000E+00  0.80304017213E+02  0.80304017213E+02  0.00000000000E+00 0. -1.
         21   -1    0    0  501  503 -0.00000000000E+00 -0.00000000000E+00 -0.59479464082E+03  0.59479464082E+03  0.00000000000E+00 0.  1.
          6    2    1    2  501    0  0.30158532226E+02 -0.38216720807E+02 -0.45091165400E+03  0.48543875985E+03  0.17308788241E+03 0.  0.
         24    2    3    3    0    0  0.58697298007E+02 -0.33949988124E+02 -0.44181069410E+03  0.45481877241E+03  0.84056242034E+02 0.  0.
         -6    2    1    2    0  502 -0.30158532226E+02  0.38216720807E+02 -0.63578969607E+02  0.18965989818E+03  0.17192596310E+03 0.  0.
        -24    2    5    5    0    0 -0.53389972432E+02  0.62232084091E+02  0.41034463119E+01  0.11403293928E+03  0.79141338902E+02 0.  0.
          5    1    3    3  501    0 -0.28538765781E+02 -0.42667326823E+01 -0.91009599002E+01  0.30619987446E+02  0.47000000000E+01 0. -1.
        -11    1    4    4    0    0  0.56467835458E+02 -0.46208494843E+02 -0.20354762813E+03  0.21623015135E+03  0.00000000000E+00 0.  1.
         12    1    4    4    0    0  0.22294625486E+01  0.12258506719E+02 -0.23826306597E+03  0.23858862105E+03  0.00000000000E+00 0. -1.
         -5    1    5    5    0  502  0.23231440206E+02 -0.24015363285E+02 -0.67682415918E+02  0.75626958899E+02  0.47000000000E+01 0.  1.
         13    1    6    6    0    0 -0.43859567278E+02  0.32197854157E+01  0.25147594851E+02  0.50659946572E+02  0.00000000000E+00 0. -1.
        -14    1    6    6    0    0 -0.95304051540E+01  0.59012298676E+02 -0.21044148539E+02  0.63372992711E+02  0.00000000000E+00 0.  1.
</event>
<event>
12    1  0.1030140E-001  0.2002684E+03  0.7818608E-02  0.1149891E+00
         21   -1    0    0  503  502  0.00000000000E+00  0.00000000000E+00  0.40005447415E+03  0.40005447415E+03  0.00000000000E+00 0.  1.
         21   -1    0    0  501  503 -0.00000000000E+00 -0.00000000000E+00 -0.11106306609E+03  0.11106306609E+03  0.00000000000E+00 0. -1.
          6    2    1    2  501    0 -0.28386751881E+02 -0.97618700263E+02  0.62124294526E+02  0.20968278977E+03  0.17254630113E+03 0.  0.
         24    2    3    3    0    0  0.44685912457E+02 -0.35854507072E+02  0.34198372523E+01  0.97331852357E+02  0.78609272652E+02 0.  0.
         -6    2    1    2    0  502  0.28386751881E+02  0.97618700263E+02  0.22686711353E+03  0.30143475048E+03  0.17046701519E+03 0.  0.
        -24    2    5    5    0    0  0.77947469182E+02  0.70298649547E+02  0.19777088140E+03  0.23762777128E+03  0.79598543149E+02 0.  0.
          5    1    3    3  501    0 -0.73072664338E+02 -0.61764193191E+02  0.58704457273E+02  0.11235093741E+03  0.47000000000E+01 0. -1.
        -11    1    4    4    0    0  0.37317990101E+02 -0.30458947176E+02  0.38133334072E+02  0.61437211979E+02  0.00000000000E+00 0.  1.
         12    1    4    4    0    0  0.73679223553E+01 -0.53955598962E+01 -0.34713496820E+02  0.35894640378E+02  0.00000000000E+00 0. -1.
         -5    1    5    5    0  502 -0.49560717301E+02  0.27320050716E+02  0.29096232133E+02  0.63806979201E+02  0.47000000000E+01 0.  1.
         11    1    6    6    0    0  0.54397737330E+02  0.65670018417E+01  0.46747751189E+02  0.72024937216E+02  0.00000000000E+00 0. -1.
        -12    1    6    6    0    0  0.23549731852E+02  0.63731647705E+02  0.15102313021E+03  0.16560283406E+03  0.00000000000E+00 0.  1.
</event>
<event>
12    1  0.1030140E-001  0.2012929E+03  0.7818608E-02  0.1149471E+00
         21   -1    0    0  501  502  0.00000000000E+00  0.00000000000E+00  0.34259738877E+03  0.34259738877E+03  0.00000000000E+00 0. -1.
         21   -1    0    0  502  503 -0.00000000000E+00 -0.00000000000E+00 -0.14455530362E+03  0.14455530362E+03  0.00000000000E+00 0. -1.
         -6    2    1    2    0  503  0.41685726919E+01  0.10155373875E+03 -0.99949224951E+01  0.19767346704E+03  0.16924645415E+03 0.  0.
        -24    2    3    3    0    0 -0.71957029539E+01 -0.10208129744E+02 -0.26006142834E+02  0.84102734954E+02  0.78999788023E+02 0.  0.
          6    2    1    2  501    0 -0.41685726919E+01 -0.10155373875E+03  0.20803700765E+03  0.28947922535E+03  0.17374776691E+03 0.  0.
         24    2    5    5    0    0 -0.55977782460E+02 -0.74956691617E+02  0.93746959992E+02  0.16112073468E+03  0.91757184403E+02 0.  0.
          5    1    5    5  501    0  0.51809209768E+02 -0.26597047131E+02  0.11429004766E+03  0.12835849067E+03  0.47000000000E+01 0. -1.
        -13    1    6    6    0    0 -0.33626371650E+02  0.53439487771E+01  0.64228076092E+02  0.72694816991E+02  0.00000000000E+00 0.  1.
         14    1    6    6    0    0 -0.22351410811E+02 -0.80300640394E+02  0.29518883900E+02  0.88425917692E+02  0.00000000000E+00 0. -1.
         -5    1    3    3    0  503  0.11364275646E+02  0.11176186849E+03  0.16011220339E+02  0.11357073209E+03  0.47000000000E+01 0.  1.
         13    1    4    4    0    0 -0.38213827284E+02 -0.20651676163E+02 -0.19445648563E+01  0.43480681417E+02  0.00000000000E+00 0. -1.
        -14    1    4    4    0    0  0.31018124330E+02  0.10443546419E+02 -0.24061577978E+02  0.40622053537E+02  0.00000000000E+00 0.  1.
</event>
<event>
12    1  0.1030140E-001  0.1979043E+03  0.7818608E-02  0.1151659E+00
         21   -1    0    0  501  502  0.00000000000E+00  0.00000000000E+00  0.13918564602E+03  0.13918564602E+03  0.00000000000E+00 0.  1.
         21   -1    0    0  502  503 -0.00000000000E+00 -0.00000000000E+00 -0.78035829879E+03  0.78035829879E+03  0.00000000000E+00 0. -1.
         -6    2    1    2    0  503  0.79552465847E+02 -0.54955080125E+02 -0.68876435261E+03  0.71663271028E+03  0.17267730706E+03 0.  0.
        -24    2    3    3    0    0  0.46883617142E+02 -0.12939665261E+02 -0.62834171877E+03  0.63597582315E+03  0.85360550572E+02 0.  0.
          6    2    1    2  501    0 -0.79552465847E+02  0.54955080125E+02  0.47591699838E+02  0.20291123452E+03  0.17192830933E+03 0.  0.
         24    2    5    5    0    0  0.14464661447E+02 -0.34970871025E+01  0.45938064944E+02  0.92092912090E+02  0.78417744149E+02 0.  0.
          5    1    5    5  501    0 -0.94017127294E+02  0.58452167228E+02  0.16536348938E+01  0.11081832243E+03  0.47000000000E+01 0. -1.
        -13    1    6    6    0    0 -0.56232208873E+01  0.35410214917E+02  0.23735333867E+02  0.42998488431E+02  0.00000000000E+00 0.  1.
         14    1    6    6    0    0  0.20087882334E+02 -0.38907302019E+02  0.22202731077E+02  0.49094423659E+02  0.00000000000E+00 0. -1.
         -5    1    3    3    0  503  0.32668848705E+02 -0.42015414865E+02 -0.60422633837E+02  0.80656887132E+02  0.47000000000E+01 0.  1.
         13    1    4    4    0    0  0.19705492197E+02  0.36696384072E+02 -0.26435045652E+03  0.26761183623E+03  0.00000000000E+00 0. -1.
        -14    1    4    4    0    0  0.27178124944E+02 -0.49636049332E+02 -0.36399126225E+03  0.36836398692E+03  0.00000000000E+00 0.  1.
</event>
<event>
12    1  0.1030140E-001  0.1836637E+03  0.7818608E-02  0.1164447E+00
         21   -1    0    0  501  502  0.00000000000E+00  0.00000000000E+00  0.48346676032E+03  0.48346676032E+03  0.00000000000E+00 0. -1.
         21   -1    0    0  502  503 -0.00000000000E+00 -0.00000000000E+00 -0.11085115212E+03  0.11085115212E+03  0.00000000000E+00 0. -1.
         -6    2    1    2    0  503  0.46683877006E+02 -0.38788701917E+02  0.47114379243E+01  0.18311742112E+03  0.17270160538E+03 0.  0.
        -24    2    3    3    0    0 -0.60479720969E+01  0.94937673229E+01 -0.47246777851E+02  0.94609845555E+02  0.81191472916E+02 0.  0.
          6    2    1    2  501    0 -0.46683877006E+02  0.38788701917E+02  0.36790417027E+03  0.41120049132E+03  0.17334479454E+03 0.  0.
         24    2    5    5    0    0  0.31002942976E+02  0.56402141605E+02  0.22297900369E+03  0.24575905406E+03  0.80842393050E+02 0.  0.
          5    1    5    5  501    0 -0.77686819981E+02 -0.17613439687E+02  0.14492516658E+03  0.16544143727E+03  0.47000000000E+01 0. -1.
        -11    1    6    6    0    0  0.11278884297E+02 -0.17906809616E+02  0.87132520634E+02  0.89665730431E+02  0.00000000000E+00 0.  1.
         12    1    6    6    0    0  0.19724058679E+02  0.74308951221E+02  0.13584648306E+03  0.15609332363E+03  0.00000000000E+00 0. -1.
         -5    1    3    3    0  503  0.52731849103E+02 -0.48282469240E+02  0.51958215775E+02  0.88507575564E+02  0.47000000000E+01 0.  1.
         13    1    4    4    0    0  0.24810866681E+02 -0.22313986718E+02 -0.35587241283E+02  0.48784678443E+02  0.00000000000E+00 0. -1.
        -14    1    4    4    0    0 -0.30858838778E+02  0.31807754041E+02 -0.11659536568E+02  0.45825167112E+02  0.00000000000E+00 0.  1.
</event>
<event>
12    1  0.1030140E-001  0.2115429E+03  0.7818608E-02  0.1140638E+00
         21   -1    0    0  501  502  0.00000000000E+00  0.00000000000E+00  0.16866711508E+04  0.16866711508E+04  0.00000000000E+00 0. -1.
         21   -1    0    0  502  503 -0.00000000000E+00 -0.00000000000E+00 -0.26397819364E+02  0.26397819364E+02  0.00000000000E+00 0. -1.
         -6    2    1    2    0  503  0.10847520107E+03 -0.51862353679E+02  0.79594449973E+03  0.82357638020E+03  0.17405124075E+03 0.  0.
        -24    2    3    3    0    0  0.10334677725E+03 -0.88151932429E+02  0.74218649740E+03  0.75834412537E+03  0.76116331993E+02 0.  0.
          6    2    1    2  501    0 -0.10847520107E+03  0.51862353679E+02  0.86432883173E+03  0.88949258998E+03  0.17226771403E+03 0.  0.
         24    2    5    5    0    0 -0.29932869080E+02  0.33942130295E+02  0.70315881778E+03  0.70924860058E+03  0.80951896450E+02 0.  0.
          5    1    5    5  501    0 -0.78542331987E+02  0.17920223385E+02  0.16117001395E+03  0.18024398940E+03  0.47000000000E+01 0. -1.
        -13    1    6    6    0    0 -0.74528854998E+01 -0.26346991563E+02  0.16493042237E+03  0.16718777973E+03  0.00000000000E+00 0.  1.
         14    1    6    6    0    0 -0.22479983581E+02  0.60289121857E+02  0.53822839541E+03  0.54206082085E+03  0.00000000000E+00 0. -1.
         -5    1    3    3    0  503  0.51284238202E+01  0.36289578750E+02  0.53758002325E+02  0.65232254834E+02  0.47000000000E+01 0.  1.
         11    1    4    4    0    0  0.64392677081E+02 -0.48035688342E+02  0.24075996944E+03  0.25380939128E+03  0.00000000000E+00 0. -1.
        -12    1    4    4    0    0  0.38954100166E+02 -0.40116244087E+02  0.50142652796E+03  0.50453473409E+03  0.00000000000E+00 0.  1.
</event>
<event>
12    1  0.1030140E-001  0.2757124E+03  0.7818608E-02  0.1098112E+00
         21   -1    0    0  501  502  0.00000000000E+00  0.00000000000E+00  0.36011179362E+03  0.36011179362E+03  0.00000000000E+00 0.  1.
         21   -1    0    0  502  503 -0.00000000000E+00 -0.00000000000E+00 -0.21620745950E+03  0.21620745950E+03  0.00000000000E+00 0.  1.
         -6    2    1    2    0  503 -0.18449506497E+03  0.11039692668E+03  0.26216571606E+02  0.27653977821E+03  0.17193321344E+03 0.  0.
        -24    2    3    3    0    0 -0.13843149666E+03  0.78364429103E+02 -0.47022758540E+02  0.18416000387E+03  0.79996901110E+02 0.  0.
          6    2    1    2  501    0  0.18449506497E+03 -0.11039692668E+03  0.11768776251E+03  0.29977947492E+03  0.17260189373E+03 0.  0.
         24    2    5    5    0    0  0.13143003420E+03 -0.14050102058E+03  0.65698737510E+02  0.21948562285E+03  0.82723780456E+02 0.  0.
          5    1    5    5  501    0  0.53065030774E+02  0.30104093899E+02  0.51989025002E+02  0.80293852076E+02  0.47000000000E+01 0. -1.
        -13    1    6    6    0    0  0.10156705227E+03 -0.12833112374E+03  0.82329975871E+02  0.18320198786E+03  0.00000000000E+00 0.  1.
         14    1    6    6    0    0  0.29862981927E+02 -0.12169896835E+02 -0.16631238361E+02  0.36283634988E+02  0.00000000000E+00 0. -1.
         -5    1    3    3    0  503 -0.46063568310E+02  0.32032497576E+02  0.73239330146E+02  0.92379774338E+02  0.47000000000E+01 0.  1.
         11    1    4    4    0    0  0.59241531900E+01  0.82069209423E+01  0.96132277994E+01  0.13959344222E+02  0.00000000000E+00 0. -1.
        -12    1    4    4    0    0 -0.14435564985E+03  0.70157508161E+02 -0.56635986339E+02  0.17020065965E+03  0.00000000000E+00 0.  1.
</event>
<event>
12    1  0.1030140E-001  0.1782687E+03  0.7818608E-02  0.1170275E+00
         21   -1    0    0  503  502  0.00000000000E+00  0.00000000000E+00  0.29850861886E+03  0.29850861886E+03  0.00000000000E+00 0. -1.
         21   -1    0    0  501  503 -0.00000000000E+00 -0.00000000000E+00 -0.10457321383E+03  0.10457321383E+03  0.00000000000E+00 0. -1.
          6    2    1    2  501    0 -0.16247620020E+02  0.34989362362E+02  0.97278261810E+02  0.20308321940E+03  0.17404451485E+03 0.  0.
         24    2    3    3    0    0  0.49559216211E+02  0.51475688523E+02  0.79121863293E+02  0.13269796916E+03  0.79010248370E+02 0.  0.
         -6    2    1    2    0  502  0.16247620020E+02 -0.34989362362E+02  0.96657143229E+02  0.19999861329E+03  0.17078817683E+03 0.  0.
        -24    2    5    5    0    0  0.40716191410E+02 -0.37606015016E+02 -0.80539376079E+00  0.99367634092E+02  0.82469736496E+02 0.  0.
          5    1    3    3  501    0 -0.65806836231E+02 -0.16486326161E+02  0.18156398517E+02  0.70385250246E+02  0.47000000000E+01 0. -1.
        -13    1    4    4    0    0  0.10135492854E+01  0.84302823896E+01 -0.15673215979E+02  0.17825449291E+02  0.00000000000E+00 0.  1.
         14    1    4    4    0    0  0.48545666926E+02  0.43045406134E+02  0.94795079272E+02  0.11487251987E+03  0.00000000000E+00 0. -1.
         -5    1    5    5    0  502 -0.24468571389E+02  0.26166526541E+01  0.97462536989E+02  0.10063097919E+03  0.47000000000E+01 0.  1.
         13    1    6    6    0    0 -0.79298105444E+01 -0.48803229666E+02 -0.11223533129E-01  0.49443273021E+02  0.00000000000E+00 0. -1.
        -14    1    6    6    0    0  0.48646001954E+02  0.11197214649E+02 -0.79417022766E+00  0.49924361071E+02  0.00000000000E+00 0.  1.
</event>
<event>
12    1  0.1030140E-001  0.3282939E+03  0.7818608E-02  0.1071915E+00
         21   -1    0    0  503  502  0.00000000000E+00  0.00000000000E+00  0.24234533083E+04  0.24234533083E+04  0.00000000000E+00 0. -1.
         21   -1    0    0  501  503 -0.00000000000E+00 -0.00000000000E+00 -0.59253106481E+02  0.59253106481E+02  0.00000000000E+00 0. -1.
          6    2    1    2  501    0  0.21914362872E+03  0.17412152370E+03  0.56182990397E+03  0.65071475699E+03  0.17156520321E+03 0.  0.
         24    2    3    3    0    0  0.15731800949E+03  0.19255579978E+03  0.41422702433E+03  0.48955977008E+03  0.79107829327E+02 0.  0.
         -6    2    1    2    0  502 -0.21914362872E+03 -0.17412152370E+03  0.18023702979E+04  0.18319916578E+04  0.17120896182E+03 0.  0.
        -24    2    5    5    0    0 -0.22870627747E+03 -0.15465108969E+03  0.14112323288E+04  0.14402244528E+04  0.80288652778E+02 0.  0.
          5    1    3    3  501    0  0.61825619229E+02 -0.18434276087E+02  0.14760287964E+03  0.16115498691E+03  0.47000000000E+01 0. -1.
        -13    1    4    4    0    0  0.37007322519E+02  0.86596633808E+01  0.91888242527E+02  0.99438326638E+02  0.00000000000E+00 0.  1.
         14    1    4    4    0    0  0.12031068697E+03  0.18389613640E+03  0.32233878180E+03  0.39012144344E+03  0.00000000000E+00 0. -1.
         -5    1    5    5    0  502  0.95626487538E+01 -0.19470434010E+02  0.39113796908E+03  0.39176720499E+03  0.47000000000E+01 0.  1.
         11    1    6    6    0    0 -0.11646442345E+03 -0.71140278761E+02  0.89610419525E+03  0.90643677658E+03  0.00000000000E+00 0. -1.
        -12    1    6    6    0    0 -0.11224185402E+03 -0.83510810924E+02  0.51512813356E+03  0.53378767625E+03  0.00000000000E+00 0.  1.
</event>
<event>
12    1  0.1030140E-001  0.2293596E+03  0.7818608E-02  0.1127266E+00
         21   -1    0    0  501  502  0.00000000000E+00  0.00000000000E+00  0.13718054306E+03  0.13718054306E+03  0.00000000000E+00 0. -1.
         21   -1    0    0  502  503 -0.00000000000E+00 -0.00000000000E+00 -0.39097896852E+03  0.39097896852E+03  0.00000000000E+00 0.  1.
         -6    2    1    2    0  503  0.24237468382E+02 -0.14767531116E+03 -0.86775872917E+02  0.24522616806E+03  0.17381130281E+03 0.  0.
        -24    2    3    3    0    0 -0.16034221578E+02 -0.93223357069E+01 -0.91248861410E+01  0.81472937330E+02  0.78807193615E+02 0.  0.
          6    2    1    2  501    0 -0.24237468382E+02  0.14767531116E+03 -0.16702255255E+03  0.28293334352E+03  0.17250881547E+03 0.  0.
         24    2    5    5    0    0 -0.53723054747E+02  0.13147342543E+03 -0.18335222599E+03  0.24524184396E+03  0.79712577725E+02 0.  0.
          5    1    5    5  501    0  0.29485586365E+02  0.16201885730E+02  0.16329673438E+02  0.37691499559E+02  0.47000000000E+01 0. -1.
        -13    1    6    6    0    0  0.11562306098E+01  0.19045529813E+02 -0.82121033631E+02  0.84308559706E+02  0.00000000000E+00 0.  1.
         14    1    6    6    0    0 -0.54879285356E+02  0.11242789562E+03 -0.10123119236E+03  0.16093328425E+03  0.00000000000E+00 0. -1.
         -5    1    3    3    0  503  0.40271689960E+02 -0.13835297545E+03 -0.77650986776E+02  0.16375323073E+03  0.47000000000E+01 0.  1.
         13    1    4    4    0    0 -0.40041321742E+02 -0.18838991535E+02  0.14404075959E+02  0.46537000904E+02  0.00000000000E+00 0. -1.
        -14    1    4    4    0    0  0.24007100165E+02  0.95166558279E+01 -0.23528962100E+02  0.34935936426E+02  0.00000000000E+00 0.  1.
</event>
<event>
12    1  0.1030140E-001  0.1816078E+03  0.7818608E-02  0.1166343E+00
         21   -1    0    0  501  502  0.00000000000E+00  0.00000000000E+00  0.49668102458E+03  0.49668102458E+03  0.00000000000E+00 0.  1.
         21   -1    0    0  502  503 -0.00000000000E+00 -0.00000000000E+00 -0.16125213770E+03  0.16125213770E+03  0.00000000000E+00 0.  1.
         -6    2    1    2    0  503  0.35118816726E+02 -0.47453727301E+02 -0.84690879602E+02  0.20038447944E+03  0.17174459814E+03 0.  0.
        -24    2    3    3    0    0 -0.38676849259E+02 -0.34879807870E+02 -0.12179998027E+02  0.96058923056E+02  0.79790128970E+02 0.  0.
          6    2    1    2  501    0 -0.35118816726E+02  0.47453727301E+02  0.42011976649E+03  0.45754868284E+03  0.17136216458E+03 0.  0.
         24    2    5    5    0    0 -0.84679977012E+02  0.12480919961E+02  0.26411861702E+03  0.29010360379E+03  0.84112931260E+02 0.  0.
          5    1    5    5  501    0  0.49561160286E+02  0.34972807340E+02  0.15600114947E+03  0.16744507905E+03  0.47000000000E+01 0. -1.
        -11    1    6    6    0    0 -0.58171879262E+02  0.46253769289E+02  0.13598850815E+03  0.15497178149E+03  0.00000000000E+00 0.  1.
         12    1    6    6    0    0 -0.26508097750E+02 -0.33772849328E+02  0.12813010887E+03  0.13513182230E+03  0.00000000000E+00 0. -1.
         -5    1    3    3    0  503  0.73795665985E+02 -0.12573919431E+02 -0.72510881575E+02  0.10432555638E+03  0.47000000000E+01 0.  1.
         13    1    4    4    0    0 -0.34700231297E+02 -0.12258167606E+02  0.30363836825E+02  0.47710913970E+02  0.00000000000E+00 0. -1.
        -14    1    4    4    0    0 -0.39766179626E+01 -0.22621640264E+02 -0.42543834852E+02  0.48348009086E+02  0.00000000000E+00 0.  1.
</event>
<event>
12    1  0.1030140E-001  0.2219701E+03  0.7818608E-02  0.1132683E+00
         21   -1    0    0  503  502  0.00000000000E+00  0.00000000000E+00  0.15970493939E+03  0.15970493939E+03  0.00000000000E+00 0. -1.
         21   -1    0    0  501  503 -0.00000000000E+00 -0.00000000000E+00 -0.51335486844E+03  0.51335486844E+03  0.00000000000E+00 0. -1.
          6    2    1    2  501    0  0.13875950814E+03 -0.92679918797E+01 -0.39008168514E+03  0.44811977841E+03  0.17119438644E+03 0.  0.
         24    2    3    3    0    0  0.34763261910E+02 -0.31678483571E+02 -0.83636873860E+02  0.12370035586E+03  0.78068179630E+02 0.  0.
         -6    2    1    2    0  502 -0.13875950814E+03  0.92679918797E+01  0.36431756084E+02  0.22494002942E+03  0.17300476066E+03 0.  0.
        -24    2    5    5    0    0 -0.35816194825E+02  0.46579605805E+02  0.53848921264E+02  0.11396737543E+03  0.81464083204E+02 0.  0.
          5    1    3    3  501    0  0.10399624624E+03  0.22410491692E+02 -0.30644481128E+03  0.32441942255E+03  0.47000000000E+01 0. -1.
        -13    1    4    4    0    0 -0.15459763445E+02  0.12336973631E+02 -0.37924695640E+02  0.42772511541E+02  0.00000000000E+00 0.  1.
         14    1    4    4    0    0  0.50223025354E+02 -0.44015457202E+02 -0.45712178221E+02  0.80927844319E+02  0.00000000000E+00 0. -1.
         -5    1    5    5    0  502 -0.10294331332E+03 -0.37311613925E+02 -0.17417165180E+02  0.11097265399E+03  0.47000000000E+01 0.  1.
         11    1    6    6    0    0 -0.33610260582E+02 -0.85598778658E+01 -0.29090138602E+01  0.34804934810E+02  0.00000000000E+00 0. -1.
        -12    1    6    6    0    0 -0.22059342435E+01  0.55139483671E+02  0.56757935124E+02  0.79162440620E+02  0.00000000000E+00 0.  1.
</event>
<event>
12    1  0.1030140E-001  0.2157094E+03  0.7818608E-02  0.1137162E+00
         21   -1    0    0  503  502  0.00000000000E+00  0.00000000000E+00  0.16743900144E+03  0.16743900144E+03  0.00000000000E+00 0.  1.
         21   -1    0    0  501  503 -0.00000000000E+00 -0.00000000000E+00 -0.32426167125E+03  0.32426167125E+03  0.00000000000E+00 0.  1.
          6    2    1    2  501    0 -0.10338078420E+03 -0.78434271318E+02 -0.17161000595E+03  0.27548504433E+03  0.17205375338E+03 0.  0.
         24    2    3    3    0    0 -0.12467813974E+03 -0.41935493113E+02 -0.77512616995E+02  0.17222737260E+03  0.79692144967E+02 0.  0.
         -6    2    1    2    0  502  0.10338078420E+03  0.78434271318E+02  0.14787336138E+02  0.21621562835E+03  0.17231079820E+03 0.  0.
        -24    2    5    5    0    0  0.34072275681E+02  0.91862017497E+02 -0.33229728376E+02  0.13070713635E+03  0.79878597984E+02 0.  0.
          5    1    3    3  501    0  0.21297355538E+02 -0.36498778205E+02 -0.94097388954E+02  0.10325767173E+03  0.47000000000E+01 0. -1.
        -13    1    4    4    0    0 -0.48330547804E+02  0.63462447201E+01 -0.64673601900E+02  0.80986365864E+02  0.00000000000E+00 0.  1.
         14    1    4    4    0    0 -0.76347591934E+02 -0.48281737834E+02 -0.12839015095E+02  0.91241006740E+02  0.00000000000E+00 0. -1.
         -5    1    5    5    0  502  0.69308508518E+02 -0.13427746179E+02  0.48017064515E+02  0.85508492006E+02  0.47000000000E+01 0.  1.
         11    1    6    6    0    0  0.83842883613E+01 -0.22015440490E+01 -0.32039851144E+02  0.33191793397E+02  0.00000000000E+00 0. -1.
        -12    1    6    6    0    0  0.25687987320E+02  0.94063561546E+02 -0.11898772317E+01  0.97515342952E+02  0.00000000000E+00 0.  1.
</event>
<event>
12    1  0.1030140E-001  0.1915369E+03  0.7818608E-02  0.1157913E+00
         21   -1    0    0  501  502  0.00000000000E+00  0.00000000000E+00  0.16936983857E+03  0.16936983857E+03  0.00000000000E+00 0.  1.
         21   -1    0    0  502  503 -0.00000000000E+00 -0.00000000000E+00 -0.28701707968E+03  0.28701707968E+03  0.00000000000E+00 0.  1.
         -6    2    1    2    0  503 -0.75704038769E+02 -0.18110185842E+01  0.57901416815E+02  0.19657211615E+03  0.17191172590E+03 0.  0.
        -24    2    3    3    0    0  0.93225279195E+00 -0.22474928724E+02 -0.20865108809E+02  0.84650831641E+02  0.78894987264E+02 0.  0.
          6    2    1    2  501    0  0.75704038769E+02  0.18110185842E+01 -0.17554865793E+03  0.25981480210E+03  0.17593185844E+03 0.  0.
         24    2    5    5    0    0  0.92456129140E+02  0.38695091581E+02 -0.17827199989E+03  0.21894214665E+03  0.78162086122E+02 0.  0.
          5    1    5    5  501    0 -0.16752090371E+02 -0.36884072997E+02  0.27233419524E+01  0.40872655456E+02  0.47000000000E+01 0. -1.
        -13    1    6    6    0    0  0.27624299920E+02 -0.53934312470E+01 -0.11441179840E+03  0.11782296321E+03  0.00000000000E+00 0.  1.
         14    1    6    6    0    0  0.64831829220E+02  0.44088522828E+02 -0.63860201490E+02  0.10111918344E+03  0.00000000000E+00 0. -1.
         -5    1    3    3    0  503 -0.76636291561E+02  0.20663910140E+02  0.78766525624E+02  0.11192128451E+03  0.47000000000E+01 0.  1.
         13    1    4    4    0    0 -0.38450531412E+02 -0.76488986429E+01 -0.43480325309E+01  0.39444320291E+02  0.00000000000E+00 0. -1.
        -14    1    4    4    0    0  0.39382784204E+02 -0.14826030081E+02 -0.16517076278E+02  0.45206511350E+02  0.00000000000E+00 0.  1.
</event>
<event>
12    1  0.1030140E-001  0.2105017E+03  0.7818608E-02  0.1141510E+00
         21   -1    0    0  503  502  0.00000000000E+00  0.00000000000E+00  0.78287992787E+03  0.78287992787E+03  0.00000000000E+00 0.  1.
         21   -1    0    0  501  503 -0.00000000000E+00 -0.00000000000E+00 -0.14353504097E+03  0.14353504097E+03  0.00000000000E+00 0.  1.
          6    2    1    2  501    0 -0.86347361597E+02  0.84921063190E+02 -0.42283912205E+02  0.21302250973E+03  0.17006824098E+03 0.  0.
         24    2    3    3    0    0 -0.10496749359E+03  0.53016217170E+02 -0.77192215073E+02  0.16198029069E+03  0.80312405705E+02 0.  0.
         -6    2    1    2    0  502  0.86347361597E+02 -0.84921063190E+02  0.68162879910E+03  0.71339245911E+03  0.17217295702E+03 0.  0.
        -24    2    5    5    0    0  0.82645956933E+02  0.10428062900E+02  0.38378080888E+03  0.40059752386E+03  0.79066858817E+02 0.  0.
          5    1    3    3  501    0  0.18620131997E+02  0.31904846020E+02  0.34908302868E+02  0.51042219037E+02  0.47000000000E+01 0. -1.
        -11    1    4    4    0    0 -0.78433082056E+02  0.70151932951E+02 -0.77002249641E+02  0.13039320729E+03  0.00000000000E+00 0.  1.
         12    1    4    4    0    0 -0.26534411537E+02 -0.17135715780E+02 -0.18996543224E+00  0.31587083401E+02  0.00000000000E+00 0. -1.
         -5    1    5    5    0  502  0.37014046640E+01 -0.95349126090E+02  0.29784799022E+03  0.31279493526E+03  0.47000000000E+01 0.  1.
         11    1    6    6    0    0  0.60442271038E+02  0.85841339887E+00  0.10805709175E+03  0.12381575053E+03  0.00000000000E+00 0. -1.
        -12    1    6    6    0    0  0.22203685894E+02  0.95696495010E+01  0.27572371712E+03  0.27678177332E+03  0.00000000000E+00 0.  1.
</event>
<event>
12    1  0.1030140E-001  0.2178522E+03  0.7818608E-02  0.1135680E+00
         21   -1    0    0  501  502  0.00000000000E+00  0.00000000000E+00  0.22587812273E+03  0.22587812273E+03  0.00000000000E+00 0. -1.
         21   -1    0    0  502  503 -0.00000000000E+00 -0.00000000000E+00 -0.43147452916E+03  0.43147452916E+03  0.00000000000E+00 0. -1.
         -6    2    1    2    0  503  0.65031656675E+01 -0.13393060719E+03 -0.33860816898E+03  0.40210431114E+03  0.17044848557E+03 0.  0.
        -24    2    3    3    0    0 -0.48605660982E+02 -0.11944830985E+03 -0.28859177075E+03  0.32614083438E+03  0.80325741179E+02 0.  0.
          6    2    1    2  501    0 -0.65031656675E+01  0.13393060719E+03  0.13301176254E+03  0.25524834075E+03  0.17169708143E+03 0.  0.
         24    2    5    5    0    0 -0.16710567393E+02  0.27312575596E+02  0.15627628568E+01  0.85623680895E+02  0.79396175311E+02 0.  0.
          5    1    5    5  501    0  0.10207401726E+02  0.10661803160E+03  0.13144899969E+03  0.16962465985E+03  0.47000000000E+01 0. -1.
        -11    1    6    6    0    0  0.29670577413E+02 -0.32004167527E+00 -0.81434462984E+01  0.30769486644E+02  0.00000000000E+00 0.  1.
         12    1    6    6    0    0 -0.46381144806E+02  0.27632617272E+02  0.97062091552E+01  0.54854194252E+02  0.00000000000E+00 0. -1.
         -5    1    3    3    0  503  0.55108826649E+02 -0.14482297347E+02 -0.50016398223E+02  0.75963476766E+02  0.47000000000E+01 0.  1.
         13    1    4    4    0    0 -0.61734445037E+02 -0.11707760154E+03 -0.22396295455E+03  0.26014940226E+03  0.00000000000E+00 0. -1.
        -14    1    4    4    0    0  0.13128784055E+02 -0.23707083075E+01 -0.64628816202E+02  0.65991432113E+02  0.00000000000E+00 0.  1.
</event>
<event>
12    1  0.1030140E-001  0.2510810E+03  0.7818608E-02  0.1112839E+00
         21   -1    0    0  503  502  0.00000000000E+00  0.00000000000E+00  0.70793455715E+03  0.70793455715E+03  0.00000000000E+00 0. -1.
         21   -1    0    0  501  503 -0.00000000000E+00 -0.00000000000E+00 -0.20777212761E+03  0.20777212761E+03  0.00000000000E+00 0. -1.
          6    2    1    2  501    0  0.65348080641E+02  0.17047415741E+03 -0.96429037766E+02  0.26896138613E+03  0.17236547774E+03 0.  0.
         24    2    3    3    0    0  0.12120658035E+02  0.16993696831E+03 -0.43292886502E+02  0.19360232788E+03  0.81130165727E+02 0.  0.
         -6    2    1    2    0  502 -0.65348080641E+02 -0.17047415741E+03  0.59659146730E+03  0.64674529863E+03  0.17037104348E+03 0.  0.
        -24    2    5    5    0    0 -0.19717361629E+02 -0.17611239481E+03  0.53895987420E+03  0.57287079178E+03  0.79365282899E+02 0.  0.
          5    1    3    3  501    0  0.53227422606E+02  0.53718910634E+00 -0.53136151264E+02  0.75359058251E+02  0.47000000000E+01 0. -1.
        -13    1    4    4    0    0  0.35399140178E+02  0.15915733272E+03 -0.37382218351E+02  0.16727697371E+03  0.00000000000E+00 0.  1.
         14    1    4    4    0    0 -0.23278482143E+02  0.10779635582E+02 -0.59106681512E+01  0.26325354170E+02  0.00000000000E+00 0. -1.
         -5    1    5    5    0  502 -0.45630719012E+02  0.56382373946E+01  0.57631593102E+02  0.73874506847E+02  0.47000000000E+01 0.  1.
         13    1    6    6    0    0 -0.28330825129E+01 -0.46364262926E+02  0.26774299588E+03  0.27174249406E+03  0.00000000000E+00 0. -1.
        -14    1    6    6    0    0 -0.16884279116E+02 -0.12974813188E+03  0.27121687831E+03  0.30112829772E+03  0.00000000000E+00 0.  1.
</event>
<event>
12    1  0.1030140E-001  0.3078447E+03  0.7818608E-02  0.1081388E+00
         21   -1    0    0  501  502  0.00000000000E+00  0.00000000000E+00  0.67202349301E+02  0.67202349301E+02  0.00000000000E+00 0. -1.
         21   -1    0    0  502  503 -0.00000000000E+00 -0.00000000000E+00 -0.14965947404E+04  0.14965947404E+04  0.00000000000E+00 0.  1.
         -6    2    1    2    0  503 -0.20846468335E+03  0.14689782277E+03 -0.90278544403E+03  0.95382909312E+03  0.17242936635E+03 0.  0.
        -24    2    3    3    0    0 -0.18323129456E+03  0.80777596311E+02 -0.49418461970E+03  0.53911795039E+03  0.79567573251E+02 0.  0.
          6    2    1    2  501    0  0.20846468335E+03 -0.14689782277E+03 -0.52660694704E+03  0.60996799656E+03  0.17236468784E+03 0.  0.
         24    2    5    5    0    0  0.21067143394E+02 -0.55454150020E+02 -0.15588678487E+03  0.18460308039E+03  0.79111442325E+02 0.  0.
          5    1    5    5  501    0  0.18739753996E+03 -0.91443672746E+02 -0.37072016217E+03  0.42536491617E+03  0.47000000000E+01 0. -1.
        -13    1    6    6    0    0 -0.47349065151E+00 -0.42778362125E+02 -0.15366723923E+03  0.15951123118E+03  0.00000000000E+00 0.  1.
         14    1    6    6    0    0  0.21540634046E+02 -0.12675787896E+02 -0.22195456378E+01  0.25091849209E+02  0.00000000000E+00 0. -1.
         -5    1    3    3    0  503 -0.25233388797E+02  0.66120226456E+02 -0.40860082433E+03  0.41471114273E+03  0.47000000000E+01 0.  1.
         13    1    4    4    0    0 -0.21942744566E+02  0.38650304223E+02 -0.65434322546E+02  0.79101078517E+02  0.00000000000E+00 0. -1.
        -14    1    4    4    0    0 -0.16128854999E+03  0.42127292088E+02 -0.42875029716E+03  0.46001687188E+03  0.00000000000E+00 0.  1.
</event>
<event>
12    1  0.1030140E-001  0.2598011E+03  0.7818608E-02  0.1107405E+00
         21   -1    0    0  501  502  0.00000000000E+00  0.00000000000E+00  0.33227515847E+03  0.33227515847E+03  0.00000000000E+00 0. -1.
         21   -1    0    0  502  503 -0.00000000000E+00 -0.00000000000E+00 -0.34866852636E+03  0.34866852636E+03  0.00000000000E+00 0. -1.
         -6    2    1    2    0  503 -0.18588135694E+03 -0.53430115472E+02 -0.22872837315E+03  0.34614057465E+03  0.17346461495E+03 0.  0.
        -24    2    3    3    0    0 -0.19767943243E+03 -0.63661131349E+02 -0.23890707913E+03  0.32691651872E+03  0.81657333412E+02 0.  0.
          6    2    1    2  501    0  0.18588135694E+03  0.53430115472E+02  0.21233500525E+03  0.33480311018E+03  0.17204741216E+03 0.  0.
         24    2    5    5    0    0  0.17125869811E+03  0.16865981816E+02  0.96639200833E+02  0.21249870641E+03  0.78756346198E+02 0.  0.
          5    1    5    5  501    0  0.14622658832E+02  0.36564133656E+02  0.11569580442E+03  0.12230440377E+03  0.47000000000E+01 0. -1.
        -11    1    6    6    0    0  0.54915914558E+02 -0.18903797441E+02  0.16483592251E+01  0.58101878779E+02  0.00000000000E+00 0.  1.
         12    1    6    6    0    0  0.11634278355E+03  0.35769779257E+02  0.94990841608E+02  0.15439682763E+03  0.00000000000E+00 0. -1.
         -5    1    3    3    0  503  0.11798075493E+02  0.10231015877E+02  0.10178705979E+02  0.19224055936E+02  0.47000000000E+01 0.  1.
         11    1    4    4    0    0 -0.10308497842E+02  0.10128196652E+02 -0.45366231631E+02  0.47612398255E+02  0.00000000000E+00 0. -1.
        -12    1    4    4    0    0 -0.18737093459E+03 -0.73789328001E+02 -0.19354084750E+03  0.27930412046E+03  0.00000000000E+00 0.  1.
</event>
<event>
12    1  0.1030140E-001  0.2572982E+03  0.7818608E-02  0.1109595E+00
         21   -1    0    0  503  502  0.00000000000E+00  0.00000000000E+00  0.56633108293E+03  0.56633108293E+03  0.00000000000E+00 0. -1.
         21   -1    0    0  501  503 -0.00000000000E+00 -0.00000000000E+00 -0.54337708989E+03  0.54337708989E+03  0.00000000000E+00 0.  1.
          6    2    1    2  501    0 -0.13345410674E+03  0.12967155816E+03 -0.48148574476E+03  0.54343809525E+03  0.16991683072E+03 0.  0.
         24    2    3    3    0    0 -0.10734263406E+03  0.14855988765E+03 -0.46737876350E+03  0.50794619594E+03  0.77291319626E+02 0.  0.
         -6    2    1    2    0  502  0.13345410674E+03 -0.12967155816E+03  0.50443973779E+03  0.56627007758E+03  0.17770098508E+03 0.  0.
        -24    2    5    5    0    0  0.95070165003E+02 -0.10626917688E+03  0.49342442955E+03  0.51974669155E+03  0.79608300247E+02 0.  0.
          5    1    3    3  501    0 -0.26111472679E+02 -0.18888329493E+02 -0.14106981255E+02  0.35491899310E+02  0.47000000000E+01 0. -1.
        -13    1    4    4    0    0 -0.11567806741E+03  0.12415095319E+03 -0.43225066426E+03  0.46436570848E+03  0.00000000000E+00 0.  1.
         14    1    4    4    0    0  0.83354333529E+01  0.24408934462E+02 -0.35128099236E+02  0.43580487454E+02  0.00000000000E+00 0. -1.
         -5    1    5    5    0  502  0.38383941733E+02 -0.23402381276E+02  0.11015308243E+02  0.46523386034E+02  0.47000000000E+01 0.  1.
         11    1    6    6    0    0  0.83463329823E+02 -0.11150850437E+03  0.36467849902E+03  0.39037249086E+03  0.00000000000E+00 0. -1.
        -12    1    6    6    0    0  0.11606835180E+02  0.52393274895E+01  0.12874593053E+03  0.12937420069E+03  0.00000000000E+00 0.  1.
</event>
<event>
12    1  0.1030140E-001  0.2057013E+03  0.7818608E-02  0.1145608E+00
         21   -1    0    0  501  502  0.00000000000E+00  0.00000000000E+00  0.24209829358E+03  0.24209829358E+03  0.00000000000E+00 0.  1.
         21   -1    0    0  502  503 -0.00000000000E+00 -0.00000000000E+00 -0.21588573582E+03  0.21588573582E+03  0.00000000000E+00 0.  1.
         -6    2    1    2    0  503 -0.39228687518E+02 -0.96848499752E+02 -0.89674747810E+02  0.22439827916E+03  0.17718494706E+03 0.  0.
        -24    2    3    3    0    0  0.32426243328E+02 -0.80654796899E+01 -0.10313109231E+02  0.85339969645E+02  0.77846239331E+02 0.  0.
          6    2    1    2  501    0  0.39228687518E+02  0.96848499752E+02  0.11588730557E+03  0.23358575025E+03  0.17382149838E+03 0.  0.
         24    2    5    5    0    0 -0.19944819925E+02  0.66528360373E+02  0.61519768296E+01  0.10519280960E+03  0.78764597354E+02 0.  0.
          5    1    5    5  501    0  0.59173507443E+02  0.30320139379E+02  0.10973532874E+03  0.12839294065E+03  0.47000000000E+01 0. -1.
        -13    1    6    6    0    0  0.10465596531E+02  0.65529572082E+02 -0.15128477321E+02  0.68062650213E+02  0.00000000000E+00 0.  1.
         14    1    6    6    0    0 -0.30410416456E+02  0.99878829139E+00  0.21280454151E+02  0.37130159385E+02  0.00000000000E+00 0. -1.
         -5    1    3    3    0  503 -0.71654930846E+02 -0.88783020062E+02 -0.79361638579E+02  0.13905830951E+03  0.47000000000E+01 0.  1.
         13    1    4    4    0    0  0.93253470814E+01 -0.10109373858E+00  0.33717506298E+02  0.34983461080E+02  0.00000000000E+00 0. -1.
        -14    1    4    4    0    0  0.23100896247E+02 -0.79643859514E+01 -0.44030615530E+02  0.50356508565E+02  0.00000000000E+00 0.  1.
</event>
<event>
12    1  0.1030140E-001  0.1947621E+03  0.7818608E-02  0.1154450E+00
         21   -1    0    0  503  502  0.00000000000E+00  0.00000000000E+00  0.10785306648E+04  0.10785306648E+04  0.00000000000E+00 0.  1.
         21   -1    0    0  501  503 -0.00000000000E+00 -0.00000000000E+00 -0.39066705787E+02  0.39066705787E+02  0.00000000000E+00 0.  1.
          6    2    1    2  501    0 -0.80628953818E+02  0.42259012118E+02  0.33812710604E+03  0.38971988233E+03  0.17106956053E+03 0.  0.
         24    2    3    3    0    0 -0.70164615418E+01 -0.34450652491E+02  0.16060137872E+03  0.18274006320E+03  0.79781261351E+02 0.  0.
         -6    2    1    2    0  502  0.80628953818E+02 -0.42259012118E+02  0.70133685294E+03  0.72787748823E+03  0.17217840829E+03 0.  0.
        -24    2    5    5    0    0  0.96460278082E+01  0.29076321489E+02  0.21296166238E+03  0.22921956704E+03  0.79059863068E+02 0.  0.
          5    1    3    3  501    0 -0.73612492276E+02  0.76709664609E+02  0.17752572733E+03  0.20697981913E+03  0.47000000000E+01 0. -1.
        -11    1    4    4    0    0  0.97784148317E+01 -0.66184994042E+01 -0.58266790586E+01  0.13167084713E+02  0.00000000000E+00 0.  1.
         12    1    4    4    0    0 -0.16794876374E+02 -0.27832153086E+02  0.16642805777E+03  0.16957297849E+03  0.00000000000E+00 0. -1.
         -5    1    5    5    0  502  0.70982926010E+02 -0.71335333607E+02  0.48837519056E+03  0.49865792119E+03  0.47000000000E+01 0.  1.
         11    1    6    6    0    0 -0.89770686639E+00  0.12806867406E+02 -0.23374335923E+01  0.13049341982E+02  0.00000000000E+00 0. -1.
        -12    1    6    6    0    0  0.10543734675E+02  0.16269454084E+02  0.21529909597E+03  0.21617022506E+03  0.00000000000E+00 0.  1.
</event>
<event>
12    1  0.1030140E-001  0.2018133E+03  0.7818608E-02  0.1148682E+00
         21   -1    0    0  501  502  0.00000000000E+00  0.00000000000E+00  0.63045780989E+02  0.63045780989E+02  0.00000000000E+00 0.  1.
         21   -1    0    0  502  503 -0.00000000000E+00 -0.00000000000E+00 -0.97029531878E+03  0.97029531878E+03  0.00000000000E+00 0.  1.
         -6    2    1    2    0  503 -0.93697364319E+02  0.41781156121E+02 -0.75390090258E+03  0.77987628724E+03  0.17121796459E+03 0.  0.
        -24    2    3    3    0    0 -0.48290254361E+02  0.55563494853E+02 -0.24569303996E+03  0.26943620248E+03  0.82532094950E+02 0.  0.
          6    2    1    2  501    0  0.93697364319E+02 -0.41781156121E+02 -0.15334863521E+03  0.25346481253E+03  0.17379225007E+03 0.  0.
         24    2    5    5    0    0  0.32724718113E+02  0.43491502246E+02 -0.10374554428E+03  0.13739739040E+03  0.71780826044E+02 0.  0.
          5    1    5    5  501    0  0.60972646206E+02 -0.85272658366E+02 -0.49603090931E+02  0.11606742213E+03  0.47000000000E+01 0. -1.
        -11    1    6    6    0    0  0.41895128705E+02  0.18420244512E+02 -0.20816792409E+02  0.50277689519E+02  0.00000000000E+00 0.  1.
         12    1    6    6    0    0 -0.91704105928E+01  0.25071257734E+02 -0.82928751871E+02  0.87119700881E+02  0.00000000000E+00 0. -1.
         -5    1    3    3    0  503 -0.45407109958E+02 -0.13782338733E+02 -0.50820786262E+03  0.51044008476E+03  0.47000000000E+01 0.  1.
         13    1    4    4    0    0 -0.12900718274E+02  0.35620740851E+02 -0.21554554847E+03  0.21884960401E+03  0.00000000000E+00 0. -1.
        -14    1    4    4    0    0 -0.35389536087E+02  0.19942754003E+02 -0.30147491488E+02  0.50586598469E+02  0.00000000000E+00 0.  1.
</event>
<event>
12    1  0.1030140E-001  0.2301304E+03  0.7818608E-02  0.1126632E+00
         21   -1    0    0  501  502  0.00000000000E+00  0.00000000000E+00  0.75585949070E+03  0.75585949070E+03  0.00000000000E+00 0. -1.
         21   -1    0    0  502  503 -0.00000000000E+00 -0.00000000000E+00 -0.91157178886E+02  0.91157178886E+02  0.00000000000E+00 0.  1.
         -6    2    1    2    0  503  0.11767614791E+03 -0.97320863473E+02  0.12820521212E+03  0.26343233695E+03  0.17216559901E+03 0.  0.
        -24    2    3    3    0    0  0.86631951727E+02  0.15692195498E+00  0.10586360117E+03  0.15861393041E+03  0.80287964131E+02 0.  0.
          6    2    1    2  501    0 -0.11767614791E+03  0.97320863473E+02  0.53649709970E+03  0.58358433264E+03  0.17152990719E+03 0.  0.
         24    2    5    5    0    0 -0.20408797798E+02  0.37569344599E+01  0.78050414767E+02  0.10566111795E+03  0.68130543938E+02 0.  0.
          5    1    5    5  501    0 -0.97267350115E+02  0.93563929013E+02  0.45844668493E+03  0.47792321469E+03  0.47000000000E+01 0. -1.
        -13    1    6    6    0    0  0.18120196286E+02  0.22074476836E+02  0.31353282019E+02  0.42410521505E+02  0.00000000000E+00 0.  1.
         14    1    6    6    0    0 -0.38528994084E+02 -0.18317542376E+02  0.46697132748E+02  0.63250596446E+02  0.00000000000E+00 0. -1.
         -5    1    3    3    0  503  0.31044196186E+02 -0.97477785428E+02  0.22341610945E+02  0.10481840653E+03  0.47000000000E+01 0.  1.
         11    1    4    4    0    0  0.12825939628E+02  0.28887579658E+02  0.58057226399E+02  0.66103241395E+02  0.00000000000E+00 0. -1.
        -12    1    4    4    0    0  0.73806012099E+02 -0.28730657703E+02  0.47806374771E+02  0.92510689019E+02  0.00000000000E+00 0.  1.
</event>
<event>
12    1  0.1030140E-001  0.1822161E+03  0.7818608E-02  0.1165769E+00
         21   -1    0    0  501  502  0.00000000000E+00  0.00000000000E+00  0.42423276787E+03  0.42423276787E+03  0.00000000000E+00 0. -1.
         21   -1    0    0  502  503 -0.00000000000E+00 -0.00000000000E+00 -0.15894454728E+03  0.15894454728E+03  0.00000000000E+00 0. -1.
         -6    2    1    2    0  503 -0.14300059863E+02  0.59230688689E+02 -0.75246788313E+02  0.19714157101E+03  0.17172639190E+03 0.  0.
        -24    2    3    3    0    0  0.14390922002E+02 -0.32951342525E+01 -0.95554835854E+02  0.12525862609E+03  0.79630648684E+02 0.  0.
          6    2    1    2  501    0  0.14300059863E+02 -0.59230688689E+02  0.34053500890E+03  0.38603574414E+03  0.17130889431E+03 0.  0.
         24    2    5    5    0    0  0.34646109678E+02 -0.90182576344E+02  0.16917381385E+03  0.21065407388E+03  0.80138065604E+02 0.  0.
          5    1    5    5  501    0 -0.20346049816E+02  0.30951887655E+02  0.17136119505E+03  0.17538167026E+03  0.47000000000E+01 0. -1.
        -11    1    6    6    0    0  0.19065673330E+02  0.87188081268E+01  0.11592795908E+02  0.23956427773E+02  0.00000000000E+00 0.  1.
         12    1    6    6    0    0  0.15580436348E+02 -0.98901384471E+02  0.15758101794E+03  0.18669764611E+03  0.00000000000E+00 0. -1.
         -5    1    3    3    0  503 -0.28690981865E+02  0.62525822941E+02  0.20308047541E+02  0.71882944916E+02  0.47000000000E+01 0.  1.
         11    1    4    4    0    0  0.29832957651E+02  0.30853085473E+02 -0.58508947207E+02  0.72561802270E+02  0.00000000000E+00 0. -1.
        -12    1    4    4    0    0 -0.15442035648E+02 -0.34148219726E+02 -0.37045888647E+02  0.52696823823E+02  0.00000000000E+00 0.  1.
</event>
<event>
12    1  0.1030140E-001  0.3605267E+03  0.7818608E-02  0.1058400E+00
         21   -1    0    0  501  502  0.00000000000E+00  0.00000000000E+00  0.69048052347E+03  0.69048052347E+03  0.00000000000E+00 0.  1.
         21   -1    0    0  502  503 -0.00000000000E+00 -0.00000000000E+00 -0.32423254289E+03  0.32423254289E+03  0.00000000000E+00 0. -1.
         -6    2    1    2    0  503  0.31571598116E+03 -0.23707545287E+02 -0.14564364967E+03  0.38860401021E+03  0.17193712688E+03 0.  0.
        -24    2    3    3    0    0  0.10698195897E+03  0.41156565660E+02 -0.37107812235E+02  0.14451516795E+03  0.79803769312E+02 0.  0.
          6    2    1    2  501    0 -0.31571598116E+03  0.23707545287E+02  0.51189163025E+03  0.62610905615E+03  0.17245544532E+03 0.  0.
         24    2    5    5    0    0 -0.21632616097E+03 -0.32317617296E+02  0.25666559232E+03  0.34650294815E+03  0.79659465759E+02 0.  0.
          5    1    5    5  501    0 -0.99389820185E+02  0.56025162583E+02  0.25522603792E+03  0.27960610800E+03  0.47000000000E+01 0. -1.
        -11    1    6    6    0    0 -0.19611171204E+02  0.81350173948E+01  0.66938341559E+02  0.70224768527E+02  0.00000000000E+00 0.  1.
         12    1    6    6    0    0 -0.19671498977E+03 -0.40452634690E+02  0.18972725076E+03  0.27627817962E+03  0.00000000000E+00 0. -1.
         -5    1    3    3    0  503  0.20873402219E+03 -0.64864110947E+02 -0.10853583743E+03  0.24408884226E+03  0.47000000000E+01 0.  1.
         11    1    4    4    0    0 -0.76464864916E+01 -0.89225593024E+01  0.46524218376E+01  0.12638269230E+02  0.00000000000E+00 0. -1.
        -12    1    4    4    0    0  0.11462844546E+03  0.50079124963E+02 -0.41760234073E+02  0.13187689872E+03  0.00000000000E+00 0.  1.
</event>
<event>
12    1  0.1030140E-001  0.2215566E+03  0.7818608E-02  0.1132899E+00
         21   -1    0    0  503  502  0.00000000000E+00  0.00000000000E+00  0.65431446303E+03  0.65431446303E+03  0.00000000000E+00 0. -1.
         21   -1    0    0  501  503 -0.00000000000E+00 -0.00000000000E+00 -0.83149410269E+02  0.83149410269E+02  0.00000000000E+00 0. -1.
          6    2    1    2  501    0  0.15473233355E+02  0.13759081219E+03  0.16863665964E+03  0.27843425016E+03  0.17296432042E+03 0.  0.
         24    2    3    3    0    0  0.69022388222E+02  0.44654301576E+02  0.78344994092E+02  0.13815103000E+03  0.78674470227E+02 0.  0.
         -6    2    1    2    0  502 -0.15473233355E+02 -0.13759081219E+03  0.40252839312E+03  0.45902962313E+03  0.17178019414E+03 0.  0.
        -24    2    5    5    0    0 -0.59640903918E+02 -0.13957971868E+03  0.35404819877E+03  0.39324848514E+03  0.79086716493E+02 0.  0.
          5    1    3    3  501    0 -0.53549154867E+02  0.92936510612E+02  0.90291665550E+02  0.14028322016E+03  0.47000000000E+01 0. -1.
        -13    1    4    4    0    0 -0.17428533819E+02  0.53049039920E+01  0.18045813299E+02  0.25642682681E+02  0.00000000000E+00 0.  1.
         14    1    4    4    0    0  0.86450922041E+02  0.39349397584E+02  0.60299180793E+02  0.11250834732E+03  0.00000000000E+00 0. -1.
         -5    1    5    5    0  502  0.44167670564E+02  0.19889064893E+01  0.48480194347E+02  0.65781137996E+02  0.47000000000E+01 0.  1.
         11    1    6    6    0    0 -0.17948819014E+02 -0.35654126447E+02  0.28683344341E+02  0.49153952834E+02  0.00000000000E+00 0. -1.
        -12    1    6    6    0    0 -0.41692084904E+02 -0.10392559223E+03  0.32536485443E+03  0.34409453230E+03  0.00000000000E+00 0.  1.
</event>
<event>
12    1  0.1030140E-001  0.2485238E+03  0.7818608E-02  0.1114320E+00
         21   -1    0    0  501  502  0.00000000000E+00  0.00000000000E+00  0.51299724538E+03  0.51299724538E+03  0.00000000000E+00 0. -1.
         21   -1    0    0  502  503 -0.00000000000E+00 -0.00000000000E+00 -0.17394057667E+03  0.17394057667E+03  0.00000000000E+00 0. -1.
         -6    2    1    2    0  503 -0.10405778789E+03 -0.14660294504E+03 -0.21576142624E+02  0.24896511872E+03  0.17087320941E+03 0.  0.
        -24    2    3    3    0    0 -0.33600659983E+02 -0.52327467681E+02 -0.68976966425E+02  0.12199661632E+03  0.79108686453E+02 0.  0.
          6    2    1    2  501    0  0.10405778789E+03  0.14660294504E+03  0.36063281133E+03  0.43797270333E+03  0.17159142618E+03 0.  0.
         24    2    5    5    0    0  0.77401287576E+01  0.87163770411E+02  0.26529478928E+03  0.28991347400E+03  0.77531056494E+02 0.  0.
          5    1    5    5  501    0  0.96317659134E+02  0.59439174624E+02  0.95338022048E+02  0.14805922933E+03  0.47000000000E+01 0. -1.
        -11    1    6    6    0    0 -0.66600629713E+01  0.86962303190E+02  0.26053473820E+03  0.27474560674E+03  0.00000000000E+00 0.  1.
         12    1    6    6    0    0  0.14400191729E+02  0.20146722037E+00  0.47600510825E+01  0.15167867259E+02  0.00000000000E+00 0. -1.
         -5    1    3    3    0  503 -0.70457127909E+02 -0.94275477354E+02  0.47400823800E+02  0.12696850240E+03  0.47000000000E+01 0.  1.
         13    1    4    4    0    0 -0.23284044710E+02 -0.48329729652E+02 -0.15506418251E+01  0.53668556869E+02  0.00000000000E+00 0. -1.
        -14    1    4    4    0    0 -0.10316615273E+02 -0.39977380293E+01 -0.67426324600E+02  0.68328059456E+02  0.00000000000E+00 0.  1.
</event>
<event>
12    1  0.1030140E-001  0.1751890E+03  0.7818608E-02  0.1172563E+00
         21   -1    0    0  503  502  0.00000000000E+00  0.00000000000E+00  0.50846884148E+02  0.50846884148E+02  0.00000000000E+00 0.  1.
         21   -1    0    0  501  503 -0.00000000000E+00 -0.00000000000E+00 -0.13840282843E+04  0.13840282843E+04  0.00000000000E+00 0. -1.
          6    2    1    2  501    0 -0.13183159415E+02 -0.34690519626E+02 -0.12053586508E+04  0.12180114914E+04  0.17112944920E+03 0.  0.
         24    2    3    3    0    0 -0.67385405190E+02 -0.53340534812E+02 -0.85186720985E+03  0.85987186038E+03  0.79472432756E+02 0.  0.
         -6    2    1    2    0  502  0.13183159415E+02  0.34690519626E+02 -0.12782274941E+03  0.21686367707E+03  0.17121323348E+03 0.  0.
        -24    2    5    5    0    0 -0.46850886186E+02 -0.11680609983E+02 -0.93670413900E+02  0.13353996907E+03  0.82020331103E+02 0.  0.
          5    1    3    3  501    0  0.54202245774E+02  0.18650015187E+02 -0.35349144092E+03  0.35813963104E+03  0.47000000000E+01 0. -1.
        -11    1    4    4    0    0 -0.16985432019E+02  0.21092227880E+02 -0.18389657780E+03  0.18587990290E+03  0.00000000000E+00 0.  1.
         12    1    4    4    0    0 -0.50399973171E+02 -0.74432762692E+02 -0.66797063205E+03  0.67399195747E+03  0.00000000000E+00 0. -1.
         -5    1    5    5    0  502  0.60034045601E+02  0.46371129609E+02 -0.34152335514E+02  0.83323707992E+02  0.47000000000E+01 0.  1.
         13    1    6    6    0    0 -0.28440375374E+02  0.55991344335E+01 -0.10270945338E+03  0.10672130561E+03  0.00000000000E+00 0. -1.
        -14    1    6    6    0    0 -0.18410510812E+02 -0.17279744417E+02  0.90390394764E+01  0.26818663466E+02  0.00000000000E+00 0.  1.
</event>
<event>
12    1  0.1030140E-001  0.2874748E+03  0.7818608E-02  0.1092600E+00
         21   -1    0    0  501  502  0.00000000000E+00  0.00000000000E+00  0.18901029465E+04  0.18901029465E+04  0.00000000000E+00 0. -1.
         21   -1    0    0  502  503 -0.00000000000E+00 -0.00000000000E+00 -0.46065377357E+02  0.46065377357E+02  0.00000000000E+00 0.  1.
         -6    2    1    2    0  503 -0.49331321621E+01  0.22114818565E+03  0.66992480356E+03  0.72900000482E+03  0.18360530711E+03 0.  0.
        -24    2    3    3    0    0 -0.17536872957E+02  0.24485003546E+03  0.63288707466E+03  0.68301614539E+03  0.75537565552E+02 0.  0.
          6    2    1    2  501    0  0.49331321621E+01 -0.22114818565E+03  0.11741127656E+04  0.12071683191E+04  0.17257957113E+03 0.  0.
         24    2    5    5    0    0  0.55964592210E+01 -0.18755455911E+03  0.63147012935E+03  0.66346610973E+03  0.78896904231E+02 0.  0.
          5    1    5    5  501    0 -0.66332705890E+00 -0.33593626534E+02  0.54264263628E+03  0.54370220935E+03  0.47000000000E+01 0. -1.
        -11    1    6    6    0    0 -0.14569037054E+02 -0.14013019828E+00  0.58476171385E+02  0.60263912062E+02  0.00000000000E+00 0.  1.
         12    1    6    6    0    0  0.20165496275E+02 -0.18741442891E+03  0.57299395796E+03  0.60320219766E+03  0.00000000000E+00 0. -1.
         -5    1    3    3    0  503  0.12603740795E+02 -0.23701849812E+02  0.37037728893E+02  0.45983859430E+02  0.47000000000E+01 0.  1.
         13    1    4    4    0    0  0.27510132398E+02  0.77001173210E+02  0.23542425422E+03  0.24921991802E+03  0.00000000000E+00 0. -1.
        -14    1    4    4    0    0 -0.45047005355E+02  0.16784886225E+03  0.39746282044E+03  0.43379622737E+03  0.00000000000E+00 0.  1.
</event>
<event>
12    1  0.1030140E-001  0.3049344E+03  0.7818608E-02  0.1083474E+00
         21   -1    0    0  501  502  0.00000000000E+00  0.00000000000E+00  0.23458377081E+03  0.23458377081E+03  0.00000000000E+00 0.  1.
         21   -1    0    0  502  503 -0.00000000000E+00 -0.00000000000E+00 -0.48630995199E+03  0.48630995199E+03  0.00000000000E+00 0. -1.
         -6    2    1    2    0  503  0.18458215085E+03 -0.16011437501E+03  0.36014519408E+02  0.30163283753E+03  0.17314196363E+03 0.  0.
        -24    2    3    3    0    0  0.69557329396E+02 -0.15644810080E+02 -0.20400138764E+02  0.10848297758E+03  0.79179597168E+02 0.  0.
          6    2    1    2  501    0 -0.18458215085E+03  0.16011437501E+03 -0.28774070058E+03  0.41926088527E+03  0.18242202621E+03 0.  0.
         24    2    5    5    0    0 -0.30452767031E+02  0.26164082507E+01 -0.85553988723E+02  0.12015716924E+03  0.78638690996E+02 0.  0.
          5    1    5    5  501    0 -0.15412938382E+03  0.15749796676E+03 -0.20218671186E+03  0.29910371603E+03  0.47000000000E+01 0. -1.
        -11    1    6    6    0    0 -0.30673749439E+02 -0.23608727438E+00  0.36645439965E+01  0.30892774634E+02  0.00000000000E+00 0.  1.
         12    1    6    6    0    0  0.22098240792E+00  0.28524955251E+01 -0.89218532720E+02  0.89264394607E+02  0.00000000000E+00 0. -1.
         -5    1    3    3    0  503  0.11502482145E+03 -0.14446956493E+03  0.56414658172E+02  0.19314985995E+03  0.47000000000E+01 0.  1.
         11    1    4    4    0    0  0.82281047415E+02 -0.25639092017E+02 -0.27986205484E+02  0.90613252345E+02  0.00000000000E+00 0. -1.
        -12    1    4    4    0    0 -0.12723718019E+02  0.99942819368E+01  0.75860667194E+01  0.17869725234E+02  0.00000000000E+00 0.  1.
</event>
<event>
12    1  0.1030140E-001  0.2808443E+03  0.7818608E-02  0.1095431E+00
         21   -1    0    0  503  502  0.00000000000E+00  0.00000000000E+00  0.42633222353E+03  0.42633222353E+03  0.00000000000E+00 0.  1.
         21   -1    0    0  501  503 -0.00000000000E+00 -0.00000000000E+00 -0.36751008333E+03  0.36751008333E+03  0.00000000000E+00 0. -1.
          6    2    1    2  501    0  0.24081605525E+02  0.21880779614E+03 -0.25108505526E+03  0.37561274809E+03  0.17200132609E+03 0.  0.
         24    2    3    3    0    0 -0.12678684652E+02  0.34263532951E+02 -0.57925199445E+02  0.10590786510E+03  0.80786189565E+02 0.  0.
         -6    2    1    2    0  502 -0.24081605525E+02 -0.21880779614E+03  0.30990719546E+03  0.41822955878E+03  0.17440389520E+03 0.  0.
        -24    2    5    5    0    0  0.34190086317E+02 -0.20150229735E+03  0.25864867228E+03  0.33857658296E+03  0.77219356472E+02 0.  0.
          5    1    3    3  501    0  0.36760290177E+02  0.18454426318E+03 -0.19315985582E+03  0.26970488299E+03  0.47000000000E+01 0. -1.
        -13    1    4    4    0    0  0.28927124922E+02 -0.72861813187E+01 -0.18145484691E+02  0.34915979281E+02  0.00000000000E+00 0.  1.
         14    1    4    4    0    0 -0.41605809574E+02  0.41549714270E+02 -0.39779714754E+02  0.70991885819E+02  0.00000000000E+00 0. -1.
         -5    1    5    5    0  502 -0.58271691842E+02 -0.17305498784E+02  0.51258523177E+02  0.79652975818E+02  0.47000000000E+01 0.  1.
         11    1    6    6    0    0 -0.22223091641E+02 -0.92486624174E+02  0.10040451498E+03  0.13830657281E+03  0.00000000000E+00 0. -1.
        -12    1    6    6    0    0  0.56413177958E+02 -0.10901567318E+03  0.15824415730E+03  0.20027001015E+03  0.00000000000E+00 0.  1.
</event>
<event>
12    1  0.1030140E-001  0.2392273E+03  0.7818608E-02  0.1120570E+00
         21   -1    0    0  503  502  0.00000000000E+00  0.00000000000E+00  0.18739993914E+03  0.18739993914E+03  0.00000000000E+00 0. -1.
         21   -1    0    0  501  503 -0.00000000000E+00 -0.00000000000E+00 -0.60042143787E+03  0.60042143787E+03  0.00000000000E+00 0. -1.
          6    2    1    2  501    0 -0.67413448514E+02  0.15089882582E+03 -0.48390405036E+03  0.53980812615E+03  0.17295853383E+03 0.  0.
         24    2    3    3    0    0 -0.73641351893E+02  0.77024020443E+02 -0.42348190035E+03  0.44405218711E+03  0.80558528511E+02 0.  0.
         -6    2    1    2    0  502  0.67413448514E+02 -0.15089882582E+03  0.70882551637E+02  0.24801325087E+03  0.17079580734E+03 0.  0.
        -24    2    5    5    0    0  0.10534704916E+03 -0.14363449621E+03  0.75712892873E+02  0.20880673688E+03  0.78351400450E+02 0.  0.
          5    1    3    3  501    0  0.62279033789E+01  0.73874805376E+02 -0.60422150010E+02  0.95755939041E+02  0.47000000000E+01 0. -1.
        -13    1    4    4    0    0 -0.72369854986E+02  0.87501983586E+02 -0.31109578333E+03  0.33117152572E+03  0.00000000000E+00 0.  1.
         14    1    4    4    0    0 -0.12714969073E+01 -0.10477963143E+02 -0.11238611703E+03  0.11288066139E+03  0.00000000000E+00 0. -1.
         -5    1    5    5    0  502 -0.37933600642E+02 -0.72643296085E+01 -0.48303412364E+01  0.39206513984E+02  0.47000000000E+01 0.  1.
         11    1    6    6    0    0  0.70105798021E+02 -0.34654418928E+02  0.44990839165E+02  0.90221545521E+02  0.00000000000E+00 0. -1.
        -12    1    6    6    0    0  0.35241251135E+02 -0.10898007728E+03  0.30722053708E+02  0.11858519136E+03  0.00000000000E+00 0.  1.
</event>
<event>
12    1  0.1030140E-001  0.2189887E+03  0.7818608E-02  0.1134927E+00
         21   -1    0    0  501  502  0.00000000000E+00  0.00000000000E+00  0.10067146104E+04  0.10067146104E+04  0.00000000000E+00 0.  1.
         21   -1    0    0  502  503 -0.00000000000E+00 -0.00000000000E+00 -0.20879749249E+03  0.20879749249E+03  0.00000000000E+00 0.  1.
         -6    2    1    2    0  503  0.11893047027E+03 -0.60181259632E+02 -0.13521966232E+03  0.25737214336E+03  0.17375218655E+03 0.  0.
        -24    2    3    3    0    0  0.30354187557E+02  0.43892104536E+01 -0.11869745797E+03  0.14642090766E+03  0.80058439919E+02 0.  0.
          6    2    1    2  501    0 -0.11893047027E+03  0.60181259632E+02  0.93313678028E+03  0.95813995956E+03  0.17181877264E+03 0.  0.
         24    2    5    5    0    0 -0.27085064627E+02  0.68614581080E+02  0.68109769269E+03  0.68971400866E+03  0.79810934598E+02 0.  0.
          5    1    5    5  501    0 -0.91845405648E+02 -0.84333214476E+01  0.25203908758E+03  0.26842595090E+03  0.47000000000E+01 0. -1.
        -11    1    6    6    0    0 -0.37276082589E+01 -0.14763978393E+02  0.22203459031E+03  0.22255612643E+03  0.00000000000E+00 0.  1.
         12    1    6    6    0    0 -0.23357456368E+02  0.83378559473E+02  0.45906310239E+03  0.46715788222E+03  0.00000000000E+00 0. -1.
         -5    1    3    3    0  503  0.88576282717E+02 -0.64570470086E+02 -0.16522204355E+02  0.11095123570E+03  0.47000000000E+01 0.  1.
         13    1    4    4    0    0  0.15021964736E+02 -0.34143818824E+01  0.88178693616E+01  0.17750274596E+02  0.00000000000E+00 0. -1.
        -14    1    4    4    0    0  0.15332222821E+02  0.78035923360E+01 -0.12751532733E+03  0.12867063307E+03  0.00000000000E+00 0.  1.
</event>
<event>
12    1  0.1030140E-001  0.2274839E+03  0.7818608E-02  0.1129984E+00
         21   -1    0    0  503  502  0.00000000000E+00  0.00000000000E+00  0.18007797483E+03  0.18007797483E+03  0.00000000000E+00 0. -1.
         21   -1    0    0  501  503 -0.00000000000E+00 -0.00000000000E+00 -0.30878332392E+03  0.30878332392E+03  0.00000000000E+00 0.  1.
          6    2    1    2  501    0  0.23018500072E+02  0.14623029679E+03 -0.14208213995E+03  0.26098440778E+03  0.16128352541E+03 0.  0.
         24    2    3    3    0    0  0.43029882379E+02  0.97491054060E+02 -0.29356612333E+02  0.13646491622E+03  0.80029908602E+02 0.  0.
         -6    2    1    2    0  502 -0.23018500072E+02 -0.14623029679E+03  0.13376790860E+02  0.22787689097E+03  0.17273039067E+03 0.  0.
        -24    2    5    5    0    0 -0.53549986643E+01 -0.13513946224E+03  0.73363739756E+02  0.16419384825E+03  0.57323914953E+02 0.  0.
          5    1    3    3  501    0 -0.20011382308E+02  0.48739242727E+02 -0.11272552761E+03  0.12451949156E+03  0.47000000000E+01 0. -1.
        -13    1    4    4    0    0  0.38420646307E+02  0.21597997975E+02 -0.40210059742E+02  0.59661281277E+02  0.00000000000E+00 0.  1.
         14    1    4    4    0    0  0.46092360720E+01  0.75893056085E+02  0.10853447409E+02  0.76803634939E+02  0.00000000000E+00 0. -1.
         -5    1    5    5    0  502 -0.17663501407E+02 -0.11090834547E+02 -0.59986948895E+02  0.63683042725E+02  0.47000000000E+01 0.  1.
         13    1    6    6    0    0  0.50679375956E+01 -0.20695226215E+02  0.38672947854E+02  0.44153972361E+02  0.00000000000E+00 0. -1.
        -14    1    6    6    0    0 -0.10422936260E+02 -0.11444423602E+03  0.34690791902E+02  0.12003987588E+03  0.00000000000E+00 0.  1.
</event>
<event>
12    1  0.1030140E-001  0.2509366E+03  0.7818608E-02  0.1112718E+00
         21   -1    0    0  501  502  0.00000000000E+00  0.00000000000E+00  0.10100807362E+03  0.10100807362E+03  0.00000000000E+00 0.  1.
         21   -1    0    0  502  503 -0.00000000000E+00 -0.00000000000E+00 -0.75125618749E+03  0.75125618749E+03  0.00000000000E+00 0.  1.
         -6    2    1    2    0  503 -0.17679789048E+03 -0.44898566136E+02 -0.50096378585E+03  0.56029803663E+03  0.17232469297E+03 0.  0.
        -24    2    3    3    0    0 -0.15975142194E+03 -0.22336881459E+02 -0.50029318559E+03  0.53162485387E+03  0.79449736452E+02 0.  0.
          6    2    1    2  501    0  0.17679789048E+03  0.44898566136E+02 -0.14928432803E+03  0.29196622448E+03  0.17229361659E+03 0.  0.
         24    2    5    5    0    0  0.18470298986E+03  0.58436731265E+02 -0.16681902171E+03  0.26798022870E+03  0.80341589131E+02 0.  0.
          5    1    5    5  501    0 -0.79050993766E+01 -0.13538165130E+02  0.17534693676E+02  0.23985995780E+02  0.47000000000E+01 0. -1.
        -13    1    6    6    0    0  0.13208348918E+03  0.50864237153E+01 -0.12616839068E+03  0.18273035497E+03  0.00000000000E+00 0.  1.
         14    1    6    6    0    0  0.52619500676E+02  0.53350307550E+02 -0.40650631029E+02  0.85249873725E+02  0.00000000000E+00 0. -1.
         -5    1    3    3    0  503 -0.17046468539E+02 -0.22561684677E+02 -0.67060025902E+00  0.28673182764E+02  0.47000000000E+01 0.  1.
         11    1    4    4    0    0 -0.85155267573E+02 -0.24091269105E+02 -0.37918779974E+03  0.38937796074E+03  0.00000000000E+00 0. -1.
        -12    1    4    4    0    0 -0.74596154369E+02  0.17543876464E+01 -0.12110538585E+03  0.14224689313E+03  0.00000000000E+00 0.  1.
</event>
<event>
12    1  0.1030140E-001  0.1951647E+03  0.7818608E-02  0.1154298E+00
         21   -1    0    0  501  502  0.00000000000E+00  0.00000000000E+00  0.61351833802E+02  0.61351833802E+02  0.00000000000E+00 0. -1.
         21   -1    0    0  502  503 -0.00000000000E+00 -0.00000000000E+00 -0.17028632038E+04  0.17028632038E+04  0.00000000000E+00 0. -1.
         -6    2    1    2    0  503  0.47887965609E+02 -0.73892788679E+02 -0.15244129045E+04  0.15366160562E+04  0.17204882844E+03 0.  0.
        -24    2    3    3    0    0  0.42596707223E+02  0.22555614529E+02 -0.89040014242E+03  0.89527015549E+03  0.79831087242E+02 0.  0.
          6    2    1    2  501    0 -0.47887965609E+02  0.73892788679E+02 -0.11709846549E+03  0.22759898137E+03  0.17417188129E+03 0.  0.
         24    2    5    5    0    0  0.25276314862E+02  0.18339350857E+02 -0.10438534441E+03  0.13473935700E+03  0.79266451371E+02 0.  0.
          5    1    5    5  501    0 -0.73164280471E+02  0.55553437822E+02 -0.12713121072E+02  0.92859624370E+02  0.47000000000E+01 0. -1.
        -13    1    6    6    0    0  0.13136945862E+01  0.24539360725E+02 -0.10705939607E+03  0.10984361750E+03  0.00000000000E+00 0.  1.
         14    1    6    6    0    0  0.23962620276E+02 -0.62000098686E+01  0.26740516577E+01  0.24895739497E+02  0.00000000000E+00 0. -1.
         -5    1    3    3    0  503  0.52912583858E+01 -0.96448403207E+02 -0.63401276211E+03  0.64134590075E+03  0.47000000000E+01 0.  1.
         13    1    4    4    0    0  0.30171448027E+02 -0.42461778448E+01 -0.79066337316E+03  0.79125022336E+03  0.00000000000E+00 0. -1.
        -14    1    4    4    0    0  0.12425259197E+02  0.26801792374E+02 -0.99736769255E+02  0.10401993214E+03  0.00000000000E+00 0.  1.
</event>
<event>
12    1  0.1030140E-001  0.2092779E+03  0.7818608E-02  0.1142940E+00
         21   -1    0    0  501  502  0.00000000000E+00  0.00000000000E+00  0.77080400296E+03  0.77080400296E+03  0.00000000000E+00 0.  1.
         21   -1    0    0  502  503 -0.00000000000E+00 -0.00000000000E+00 -0.58745431433E+02  0.58745431433E+02  0.00000000000E+00 0. -1.
         -6    2    1    2    0  503  0.46842398284E+02 -0.11132669386E+03  0.45303241628E+03  0.49903469837E+03  0.17090762689E+03 0.  0.
        -24    2    3    3    0    0  0.26265290434E+02 -0.13087017810E+03  0.26763531091E+03  0.31141928902E+03  0.86812700296E+02 0.  0.
          6    2    1    2  501    0 -0.46842398284E+02  0.11132669386E+03  0.25902615524E+03  0.33051473602E+03  0.16600481494E+03 0.  0.
         24    2    5    5    0    0  0.45882569730E+02  0.31670660602E+02  0.64466539779E+02  0.10069189708E+03  0.53616065124E+02 0.  0.
          5    1    5    5  501    0 -0.92724968014E+02  0.79656033262E+02  0.19455961546E+03  0.22982283894E+03  0.47000000000E+01 0. -1.
        -11    1    6    6    0    0  0.26566476831E+02 -0.11791048123E+02  0.17929625086E+02  0.34150812037E+02  0.00000000000E+00 0.  1.
         12    1    6    6    0    0  0.19316092898E+02  0.43461708725E+02  0.46536914693E+02  0.66541085047E+02  0.00000000000E+00 0. -1.
         -5    1    3    3    0  503  0.20577107850E+02  0.19543484235E+02  0.18539710537E+03  0.18761540935E+03  0.47000000000E+01 0.  1.
         11    1    4    4    0    0  0.19409960166E+02 -0.41319907455E+02  0.23619268685E+02  0.51399913998E+02  0.00000000000E+00 0. -1.
        -12    1    4    4    0    0  0.68553302675E+01 -0.89550270643E+02  0.24401604223E+03  0.26001937503E+03  0.00000000000E+00 0.  1.
</event>
<event>
12    1  0.1030140E-001  0.2793111E+03  0.7818608E-02  0.1096177E+00
         21   -1    0    0  501  502  0.00000000000E+00  0.00000000000E+00  0.41322760327E+04  0.41322760327E+04  0.00000000000E+00 0. -1.
         21   -1    0    0  502  503 -0.00000000000E+00 -0.00000000000E+00 -0.20083224833E+02  0.20083224833E+02  0.00000000000E+00 0.  1.
         -6    2    1    2    0  503 -0.32603378594E+02  0.21715110779E+03  0.15334963200E+04  0.15585801058E+04  0.17129914953E+03 0.  0.
        -24    2    3    3    0    0 -0.45538079925E+02  0.43644765629E+02  0.43117408392E+03  0.44260153989E+03  0.77501291466E+02 0.  0.
          6    2    1    2  501    0  0.32603378594E+02 -0.21715110779E+03  0.25786964879E+04  0.25937791518E+04  0.17261844589E+03 0.  0.
         24    2    5    5    0    0 -0.24357008192E+02 -0.72357148569E+02  0.14807246020E+04  0.14848273366E+04  0.79611881882E+02 0.  0.
          5    1    5    5  501    0  0.56960386786E+02 -0.14479395922E+03  0.10979718858E+04  0.11089518152E+04  0.47000000000E+01 0. -1.
        -11    1    6    6    0    0 -0.51727025579E+02 -0.38530887714E+02  0.10260727002E+04  0.10280980015E+04  0.00000000000E+00 0.  1.
         12    1    6    6    0    0  0.27370017387E+02 -0.33826260855E+02  0.45465190184E+03  0.45672933519E+03  0.00000000000E+00 0. -1.
         -5    1    3    3    0  503  0.12934701331E+02  0.17350634216E+03  0.11023222361E+04  0.11159785659E+04  0.47000000000E+01 0.  1.
         11    1    4    4    0    0  0.13443324862E+02 -0.12198190929E+02  0.98230017495E+02  0.99893218900E+02  0.00000000000E+00 0. -1.
        -12    1    4    4    0    0 -0.58981404787E+02  0.55842956558E+02  0.33294406642E+03  0.34270832099E+03  0.00000000000E+00 0.  1.
</event>
<event>
12    1  0.1030140E-001  0.1928105E+03  0.7818608E-02  0.1156080E+00
         21   -1    0    0  501  502  0.00000000000E+00  0.00000000000E+00  0.12658404744E+04  0.12658404744E+04  0.00000000000E+00 0. -1.
         21   -1    0    0  502  503 -0.00000000000E+00 -0.00000000000E+00 -0.35640113391E+02  0.35640113391E+02  0.00000000000E+00 0.  1.
         -6    2    1    2    0  503  0.66889963711E+02 -0.54207098409E+02  0.34096453086E+03  0.39170488097E+03  0.17252021827E+03 0.  0.
        -24    2    3    3    0    0  0.26550616757E+02 -0.40703861703E+02  0.33571525677E+03  0.34858591539E+03  0.80284912501E+02 0.  0.
          6    2    1    2  501    0 -0.66889963711E+02  0.54207098409E+02  0.88923583016E+03  0.90977570683E+03  0.17186854957E+03 0.  0.
         24    2    5    5    0    0 -0.10470064627E+03  0.61148916388E+02  0.77873829516E+03  0.79268756997E+03  0.84963733024E+02 0.  0.
          5    1    5    5  501    0  0.37810682555E+02 -0.69418179796E+01  0.11049753500E+03  0.11708813686E+03  0.47000000000E+01 0. -1.
        -11    1    6    6    0    0 -0.30232431584E+02  0.15331053862E+01  0.55793133003E+02  0.63476168929E+02  0.00000000000E+00 0.  1.
         12    1    6    6    0    0 -0.74468214682E+02  0.59615811002E+02  0.72294516216E+03  0.72921140104E+03  0.00000000000E+00 0. -1.
         -5    1    3    3    0  503  0.40339346954E+02 -0.13503236706E+02  0.52492740895E+01  0.43118965580E+02  0.47000000000E+01 0.  1.
         13    1    4    4    0    0 -0.52859322244E+01 -0.55935835726E+02  0.24222758636E+03  0.24865832460E+03  0.00000000000E+00 0. -1.
        -14    1    4    4    0    0  0.31836548981E+02  0.15231974023E+02  0.93487670405E+02  0.99927590792E+02  0.00000000000E+00 0.  1.
</event>
<event>
12    1  0.1030140E-001  0.3244122E+03  0.7818608E-02  0.1073717E+00
         21   -1    0    0  503  502  0.00000000000E+00  0.00000000000E+00  0.45710411312E+03  0.45710411312E+03  0.00000000000E+00 0.  1.
         21   -1    0    0  501  503 -0.00000000000E+00 -0.00000000000E+00 -0.41910870891E+03  0.41910870891E+03  0.00000000000E+00 0. -1.
          6    2    1    2  501    0  0.24382719108E+03  0.12462464201E+03 -0.27548715039E+03  0.42560125897E+03  0.17395476739E+03 0.  0.
         24    2    3    3    0    0  0.71751769698E+02  0.80282193658E+02 -0.62283394250E+02  0.14801499309E+03  0.80222627152E+02 0.  0.
         -6    2    1    2    0  502 -0.24382719108E+03 -0.12462464201E+03  0.31348255460E+03  0.45061156306E+03  0.17261653519E+03 0.  0.
        -24    2    5    5    0    0 -0.45352620815E+02 -0.31342963808E+02  0.54608424164E+02  0.11130118607E+03  0.79791180181E+02 0.  0.
          5    1    3    3  501    0  0.17207542138E+03  0.44342448353E+02 -0.21320375614E+03  0.27758626587E+03  0.47000000000E+01 0. -1.
        -11    1    4    4    0    0  0.96064939397E-01  0.59520686182E+02 -0.24180214316E+02  0.64244875876E+02  0.00000000000E+00 0.  1.
         12    1    4    4    0    0  0.71655704758E+02  0.20761507476E+02 -0.38103179935E+02  0.83770117215E+02  0.00000000000E+00 0. -1.
         -5    1    5    5    0  502 -0.19847457026E+03 -0.93281678203E+02  0.25887413044E+03  0.33931037700E+03  0.47000000000E+01 0.  1.
         11    1    6    6    0    0 -0.39730350196E+02 -0.42226735537E+02  0.27812815486E+01  0.58045959789E+02  0.00000000000E+00 0. -1.
        -12    1    6    6    0    0 -0.56222706190E+01  0.10883771729E+02  0.51827142616E+02  0.53255226276E+02  0.00000000000E+00 0.  1.
</event>
<event>
12    1  0.1030140E-001  0.3192043E+03  0.7818608E-02  0.1076043E+00
         21   -1    0    0  501  502  0.00000000000E+00  0.00000000000E+00  0.14204582889E+03  0.14204582889E+03  0.00000000000E+00 0.  1.
         21   -1    0    0  502  503 -0.00000000000E+00 -0.00000000000E+00 -0.80431044528E+03  0.80431044528E+03  0.00000000000E+00 0. -1.
         -6    2    1    2    0  503  0.14185850300E+03  0.22845671803E+03 -0.17494577557E+03  0.36380069056E+03  0.17154769357E+03 0.  0.
        -24    2    3    3    0    0  0.56695522882E+02  0.32792364428E+02 -0.67834740507E+02  0.12498667027E+03  0.82038980034E+02 0.  0.
          6    2    1    2  501    0 -0.14185850300E+03 -0.22845671803E+03 -0.48731884082E+03  0.58255558362E+03  0.17197397623E+03 0.  0.
         24    2    5    5    0    0 -0.10591132426E+03 -0.74961361354E+02 -0.30912977670E+03  0.34459244204E+03  0.79663780748E+02 0.  0.
          5    1    5    5  501    0 -0.35947178750E+02 -0.15349535668E+03 -0.17818906412E+03  0.23796314158E+03  0.47000000000E+01 0. -1.
        -11    1    6    6    0    0  0.93615337380E+01  0.36429763176E+01 -0.42419476759E+02  0.43592678271E+02  0.00000000000E+00 0.  1.
         12    1    6    6    0    0 -0.11527285799E+03 -0.78604337672E+02 -0.26671029995E+03  0.30099976377E+03  0.00000000000E+00 0. -1.
         -5    1    3    3    0  503  0.85162980123E+02  0.19566435360E+03 -0.10711103507E+03  0.23881402029E+03  0.47000000000E+01 0.  1.
         13    1    4    4    0    0  0.78871356603E+01  0.41425892386E+02 -0.62135295679E+02  0.75093984033E+02  0.00000000000E+00 0. -1.
        -14    1    4    4    0    0  0.48808387222E+02 -0.86335279583E+01 -0.56994448279E+01  0.49892686233E+02  0.00000000000E+00 0.  1.
</event>
<event>
12    1  0.1030140E-001  0.1901417E+03  0.7818608E-02  0.1159308E+00
         21   -1    0    0  503  502  0.00000000000E+00  0.00000000000E+00  0.66357258319E+03  0.66357258319E+03  0.00000000000E+00 0.  1.
         21   -1    0    0  501  503 -0.00000000000E+00 -0.00000000000E+00 -0.96942459311E+02  0.96942459311E+02  0.00000000000E+00 0. -1.
          6    2    1    2  501    0 -0.24611958774E+02 -0.76150088598E+02  0.29855226963E+02  0.19247126289E+03  0.17247976100E+03 0.  0.
         24    2    3    3    0    0  0.30812908628E+01 -0.24987878885E+02  0.79871317923E+02  0.11560653019E+03  0.79696637017E+02 0.  0.
         -6    2    1    2    0  502  0.24611958774E+02  0.76150088598E+02  0.53677489691E+03  0.56804377960E+03  0.16775536082E+03 0.  0.
        -24    2    5    5    0    0  0.38657780974E+02 -0.18987974693E+02  0.27931749461E+03  0.29317119056E+03  0.77949451352E+02 0.  0.
          5    1    3    3  501    0 -0.27693249637E+02 -0.51162209713E+02 -0.50016090961E+02  0.76864732700E+02  0.47000000000E+01 0. -1.
        -11    1    4    4    0    0  0.23274677296E+02 -0.42739834374E+02  0.73205084460E+02  0.87905565446E+02  0.00000000000E+00 0.  1.
         12    1    4    4    0    0 -0.20193386434E+02  0.17751955489E+02  0.66662334631E+01  0.27700964747E+02  0.00000000000E+00 0. -1.
         -5    1    5    5    0  502 -0.14045822200E+02  0.95138063291E+02  0.25745740230E+03  0.27487258904E+03  0.47000000000E+01 0.  1.
         13    1    6    6    0    0  0.10072799846E+02 -0.27996010021E+02  0.30693463198E+02  0.42747240343E+02  0.00000000000E+00 0. -1.
        -14    1    6    6    0    0  0.28584981128E+02  0.90080353279E+01  0.24862403141E+03  0.25042395022E+03  0.00000000000E+00 0.  1.
</event>
<event>
12    1  0.1030140E-001  0.2271396E+03  0.7818608E-02  0.1128686E+00
         21   -1    0    0  503  502  0.00000000000E+00  0.00000000000E+00  0.68687641384E+02  0.68687641384E+02  0.00000000000E+00 0. -1.
         21   -1    0    0  501  503 -0.00000000000E+00 -0.00000000000E+00 -0.11133487862E+04  0.11133487862E+04  0.00000000000E+00 0.  1.
          6    2    1    2  501    0 -0.98001701050E+02 -0.11154340184E+03 -0.85951758051E+03  0.88899964513E+03  0.17176621881E+03 0.  0.
         24    2    3    3    0    0 -0.10938381600E+03 -0.79592347092E+02 -0.43011526975E+03  0.45823421368E+03  0.81729360687E+02 0.  0.
         -6    2    1    2    0  502  0.98001701050E+02  0.11154340184E+03 -0.18514356426E+03  0.29303678242E+03  0.17188994316E+03 0.  0.
        -24    2    5    5    0    0  0.13145149382E+03  0.60303206271E+02 -0.14954206815E+03  0.22208607556E+03  0.77739455196E+02 0.  0.
          5    1    3    3  501    0  0.11382114949E+02 -0.31951054748E+02 -0.42940231077E+03  0.43076543145E+03  0.47000000000E+01 0. -1.
        -11    1    4    4    0    0 -0.70465431560E+02 -0.25198128920E+02 -0.32605898431E+03  0.33453667062E+03  0.00000000000E+00 0.  1.
         12    1    4    4    0    0 -0.38918384439E+02 -0.54394218172E+02 -0.10405628544E+03  0.12369754306E+03  0.00000000000E+00 0. -1.
         -5    1    5    5    0  502 -0.33449792774E+02  0.51240195569E+02 -0.35601496113E+02  0.70950706861E+02  0.47000000000E+01 0.  1.
         11    1    6    6    0    0  0.47192203328E+02  0.55936082729E+01 -0.98579635299E+02  0.10943645190E+03  0.00000000000E+00 0. -1.
        -12    1    6    6    0    0  0.84259290497E+02  0.54709597998E+02 -0.50962432851E+02  0.11264962366E+03  0.00000000000E+00 0.  1.
</event>
<event>
12    1  0.1030140E-001  0.3552641E+03  0.7818608E-02  0.1060661E+00
         21   -1    0    0  503  502  0.00000000000E+00  0.00000000000E+00  0.43549686277E+03  0.43549686277E+03  0.00000000000E+00 0.  1.
         21   -1    0    0  501  503 -0.00000000000E+00 -0.00000000000E+00 -0.45177150428E+03  0.45177150428E+03  0.00000000000E+00 0. -1.
          6    2    1    2  501    0 -0.16000363645E+03 -0.26478935047E+03 -0.27500167224E+03  0.44926435990E+03  0.17463671306E+03 0.  0.
         24    2    3    3    0    0 -0.66686878816E+02 -0.11318225632E+03 -0.20951482629E+03  0.25951888500E+03  0.78716111991E+02 0.  0.
         -6    2    1    2    0  502  0.16000363645E+03  0.26478935047E+03  0.25872703073E+03  0.43800400714E+03  0.17086038174E+03 0.  0.
        -24    2    5    5    0    0  0.98889790936E+02  0.12445979707E+03  0.60960856371E+02  0.18788236596E+03  0.79461472369E+02 0.  0.
          5    1    3    3  501    0 -0.93316757629E+02 -0.15160709415E+03 -0.65486845944E+02  0.18974547489E+03  0.47000000000E+01 0. -1.
        -11    1    4    4    0    0 -0.47175849062E+02 -0.22506376875E+02 -0.38315247208E+02  0.64808609793E+02  0.00000000000E+00 0.  1.
         12    1    4    4    0    0 -0.19511029754E+02 -0.90675879441E+02 -0.17119957908E+03  0.19471027521E+03  0.00000000000E+00 0. -1.
         -5    1    5    5    0  502  0.61113845510E+02  0.14032955340E+03  0.19776617436E+03  0.25012164118E+03  0.47000000000E+01 0.  1.
         11    1    6    6    0    0  0.85665684564E+00 -0.84899127574E+01 -0.51412029967E+01  0.99621507634E+01  0.00000000000E+00 0. -1.
        -12    1    6    6    0    0  0.98033134090E+02  0.13294970983E+03  0.66102059368E+02  0.17792021520E+03  0.00000000000E+00 0.  1.
</event>
<event>
12    1  0.1030140E-001  0.2218283E+03  0.7818608E-02  0.1133138E+00
         21   -1    0    0  501  502  0.00000000000E+00  0.00000000000E+00  0.25896401498E+03  0.25896401498E+03  0.00000000000E+00 0. -1.
         21   -1    0    0  502  503 -0.00000000000E+00 -0.00000000000E+00 -0.18991883135E+03  0.18991883135E+03  0.00000000000E+00 0. -1.
         -6    2    1    2    0  503 -0.10599426693E+02 -0.13478581837E+03  0.61047543334E+02  0.22691046289E+03  0.17170320597E+03 0.  0.
        -24    2    3    3    0    0 -0.28344085088E+02 -0.56033974140E+02 -0.29036592957E+02  0.10585689011E+03  0.80120933817E+02 0.  0.
          6    2    1    2  501    0  0.10599426693E+02  0.13478581837E+03  0.79976402912E+01  0.22197238345E+03  0.17586418647E+03 0.  0.
         24    2    5    5    0    0 -0.38031440114E+02  0.77707785287E+02  0.58748176566E+02  0.13130502439E+03  0.79402587163E+02 0.  0.
          5    1    5    5  501    0  0.48630866807E+02  0.57078033078E+02 -0.50750536275E+02  0.90667359059E+02  0.47000000000E+01 0. -1.
        -13    1    6    6    0    0 -0.45852731735E+02  0.62719235931E+02  0.83423056784E+01  0.78139424284E+02  0.00000000000E+00 0.  1.
         14    1    6    6    0    0  0.78212916215E+01  0.14988549356E+02  0.50405870888E+02  0.53165600104E+02  0.00000000000E+00 0. -1.
         -5    1    3    3    0  503  0.17744658395E+02 -0.78751844225E+02  0.90084136291E+02  0.12105357278E+03  0.47000000000E+01 0.  1.
         11    1    4    4    0    0 -0.32180470413E+02 -0.61362832477E+02  0.66164103811E+01  0.69604287023E+02  0.00000000000E+00 0. -1.
        -12    1    4    4    0    0  0.38363853246E+01  0.53288583373E+01 -0.35653003338E+02  0.36252603087E+02  0.00000000000E+00 0.  1.
</event>
<event>
12    1  0.1030140E-001  0.1873768E+03  0.7818608E-02  0.1160996E+00
         21   -1    0    0  503  502  0.00000000000E+00  0.00000000000E+00  0.75202038028E+03  0.75202038028E+03  0.00000000000E+00 0.  1.
         21   -1    0    0  501  503 -0.00000000000E+00 -0.00000000000E+00 -0.57668381050E+02  0.57668381050E+02  0.00000000000E+00 0. -1.
          6    2    1    2  501    0  0.48891065682E+02 -0.54277203022E+02  0.16876309125E+03  0.25169793309E+03  0.17185609528E+03 0.  0.
         24    2    3    3    0    0  0.10660819722E+02 -0.11702583436E+02  0.17626335768E+03  0.19379720827E+03  0.78980903599E+02 0.  0.
         -6    2    1    2    0  502 -0.48891065682E+02  0.54277203022E+02  0.52558890799E+03  0.55799082824E+03  0.17255061034E+03 0.  0.
        -24    2    5    5    0    0 -0.66294845663E+02 -0.14702530214E+02  0.29252701214E+03  0.31426755801E+03  0.92633008318E+02 0.  0.
          5    1    3    3  501    0  0.38230245960E+02 -0.42574619586E+02 -0.75002664390E+01  0.57900724828E+02  0.47000000000E+01 0. -1.
        -11    1    4    4    0    0  0.35136651001E+01  0.26520333565E+02  0.13284329511E+03  0.13551020254E+03  0.00000000000E+00 0.  1.
         12    1    4    4    0    0  0.71471546221E+01 -0.38222917002E+02  0.43420062573E+02  0.58287005731E+02  0.00000000000E+00 0. -1.
         -5    1    5    5    0  502  0.17403779981E+02  0.68979733236E+02  0.23306189584E+03  0.24372327023E+03  0.47000000000E+01 0.  1.
         13    1    6    6    0    0 -0.18400606741E+02 -0.17445092309E+02  0.93015286966E+01  0.27007999004E+02  0.00000000000E+00 0. -1.
        -14    1    6    6    0    0 -0.47894238922E+02  0.27425620950E+01  0.28322548344E+03  0.28725955901E+03  0.00000000000E+00 0.  1.
</event>
<event>
12    1  0.1030140E-001  0.2708683E+03  0.7818608E-02  0.1101110E+00
         21   -1    0    0  501  502  0.00000000000E+00  0.00000000000E+00  0.12036781086E+03  0.12036781086E+03  0.00000000000E+00 0.  1.
         21   -1    0    0  502  503 -0.00000000000E+00 -0.00000000000E+00 -0.77913767406E+03  0.77913767406E+03  0.00000000000E+00 0.  1.
         -6    2    1    2    0  503 -0.15939778846E+03 -0.13000825473E+03 -0.54344168275E+03  0.60720547468E+03  0.17623797734E+03 0.  0.
        -24    2    3    3    0    0 -0.33605780790E+02 -0.64466706707E+02 -0.11561126606E+03  0.15645024269E+03  0.76324365851E+02 0.  0.
          6    2    1    2  501    0  0.15939778846E+03  0.13000825473E+03 -0.11532818044E+03  0.29230001025E+03  0.17271046732E+03 0.  0.
         24    2    5    5    0    0  0.22399389373E+02  0.97575139657E+02 -0.56013111282E+02  0.13945749085E+03  0.79298692273E+02 0.  0.
          5    1    5    5  501    0  0.13699839908E+03  0.32433115073E+02 -0.59315069162E+02  0.15284251939E+03  0.47000000000E+01 0. -1.
        -11    1    6    6    0    0  0.25112018996E+02  0.11022613348E+03 -0.56755952278E+02  0.12649763681E+03  0.00000000000E+00 0.  1.
         12    1    6    6    0    0 -0.27126296230E+01 -0.12650993820E+02  0.74284099572E+00  0.12959854044E+02  0.00000000000E+00 0. -1.
         -5    1    3    3    0  503 -0.12579200767E+03 -0.65541548024E+02 -0.42783041670E+03  0.45075523199E+03  0.47000000000E+01 0.  1.
         11    1    4    4    0    0 -0.29606737315E+02  0.67823255482E+01 -0.17253173836E+02  0.34931802726E+02  0.00000000000E+00 0. -1.
        -12    1    4    4    0    0 -0.39990434744E+01 -0.71249032255E+02 -0.98358092220E+02  0.12151843996E+03  0.00000000000E+00 0.  1.
</event>
<event>
12    1  0.1030140E-001  0.2267840E+03  0.7818608E-02  0.1128960E+00
         21   -1    0    0  501  502  0.00000000000E+00  0.00000000000E+00  0.29547565703E+03  0.29547565703E+03  0.00000000000E+00 0.  1.
         21   -1    0    0  502  503 -0.00000000000E+00 -0.00000000000E+00 -0.25230316584E+03  0.25230316584E+03  0.00000000000E+00 0.  1.
         -6    2    1    2    0  503 -0.10735070552E+03  0.10168852760E+03 -0.13107861483E+03  0.26194003585E+03  0.17194838905E+03 0.  0.
        -24    2    3    3    0    0 -0.12311391417E+03  0.11377199283E+03 -0.14665486278E+03  0.23626517696E+03  0.78819305079E+02 0.  0.
          6    2    1    2  501    0  0.10735070552E+03 -0.10168852760E+03  0.17425110602E+03  0.28583878702E+03  0.17168469236E+03 0.  0.
         24    2    5    5    0    0  0.11366110502E+03 -0.26869437781E+02  0.71283686234E+02  0.15831586013E+03  0.79635005894E+02 0.  0.
          5    1    5    5  501    0 -0.63103995080E+01 -0.74819089823E+02  0.10296741979E+03  0.12752292689E+03  0.47000000000E+01 0. -1.
        -11    1    6    6    0    0  0.81733318632E+02 -0.54497943556E+02  0.57868280129E+02  0.11401359161E+03  0.00000000000E+00 0.  1.
         12    1    6    6    0    0  0.31927786392E+02  0.27628505774E+02  0.13415406105E+02  0.44302268522E+02  0.00000000000E+00 0. -1.
         -5    1    3    3    0  503  0.15763208656E+02 -0.12083465221E+02  0.15576247951E+02  0.25674858892E+02  0.47000000000E+01 0.  1.
         13    1    4    4    0    0 -0.96972533812E+01  0.47023807705E+01 -0.50986753516E+02  0.52113320199E+02  0.00000000000E+00 0. -1.
        -14    1    4    4    0    0 -0.11341666079E+03  0.10906961206E+03 -0.95668109264E+02  0.18415185676E+03  0.00000000000E+00 0.  1.
</event>
<event>
12    1  0.1030140E-001  0.3080692E+03  0.7818608E-02  0.1081277E+00
         21   -1    0    0  503  502  0.00000000000E+00  0.00000000000E+00  0.43193509348E+03  0.43193509348E+03  0.00000000000E+00 0.  1.
         21   -1    0    0  501  503 -0.00000000000E+00 -0.00000000000E+00 -0.21981998530E+03  0.21981998530E+03  0.00000000000E+00 0. -1.
          6    2    1    2  501    0 -0.18651808085E+03  0.17449983220E+03  0.98843384728E+02  0.32352170968E+03  0.17221235730E+03 0.  0.
         24    2    3    3    0    0 -0.17920162156E+03  0.18557483591E+03  0.12207608869E+03  0.29635491346E+03  0.79827453989E+02 0.  0.
         -6    2    1    2    0  502  0.18651808085E+03 -0.17449983220E+03  0.11327172345E+03  0.32823336910E+03  0.17224248991E+03 0.  0.
        -24    2    5    5    0    0  0.35316228442E+02 -0.44271636478E+02 -0.75196364400E+00  0.98353238696E+02  0.80408832380E+02 0.  0.
          5    1    3    3  501    0 -0.73164592898E+01 -0.11075003708E+02 -0.23232703958E+02  0.27166796220E+02  0.47000000000E+01 0. -1.
        -13    1    4    4    0    0 -0.55190462724E+02  0.35648955391E+02  0.67680885007E+02  0.94326758618E+02  0.00000000000E+00 0.  1.
         14    1    4    4    0    0 -0.12401115884E+03  0.14992588052E+03  0.54395203679E+02  0.20202815485E+03  0.00000000000E+00 0. -1.
         -5    1    5    5    0  502  0.15120185241E+03 -0.13022819573E+03  0.11402368710E+03  0.22988013040E+03  0.47000000000E+01 0.  1.
         13    1    6    6    0    0  0.31899539755E+02 -0.56012727019E+02 -0.26620683950E+02  0.69739995976E+02  0.00000000000E+00 0. -1.
        -14    1    6    6    0    0  0.34166886870E+01  0.11741090540E+02  0.25868720306E+02  0.28613242720E+02  0.00000000000E+00 0.  1.
</event>
<event>
12    1  0.1030140E-001  0.2444459E+03  0.7818608E-02  0.1116966E+00
         21   -1    0    0  501  502  0.00000000000E+00  0.00000000000E+00  0.93490721650E+02  0.93490721650E+02  0.00000000000E+00 0.  1.
         21   -1    0    0  502  503 -0.00000000000E+00 -0.00000000000E+00 -0.66726899659E+03  0.66726899659E+03  0.00000000000E+00 0.  1.
         -6    2    1    2    0  503 -0.15513385189E+03  0.76884292906E+02 -0.20624869842E+03  0.31936220155E+03  0.17168571194E+03 0.  0.
        -24    2    3    3    0    0 -0.73550475704E+02 -0.25974080456E+02 -0.75546103975E+02  0.13404908697E+03  0.78597827968E+02 0.  0.
          6    2    1    2  501    0  0.15513385189E+03 -0.76884292906E+02 -0.36752957653E+03  0.44139751669E+03  0.17255744442E+03 0.  0.
         24    2    5    5    0    0  0.13343529472E+03 -0.10129045668E+03 -0.20976290625E+03  0.28021780189E+03  0.80354247975E+02 0.  0.
          5    1    5    5  501    0  0.21698557170E+02  0.24406163770E+02 -0.15776667028E+03  0.16117971481E+03  0.47000000000E+01 0. -1.
        -11    1    6    6    0    0  0.81803557117E+02 -0.38761606803E+02 -0.16342646052E+03  0.18682208680E+03  0.00000000000E+00 0.  1.
         12    1    6    6    0    0  0.51631737601E+02 -0.62528849873E+02 -0.46336445732E+02  0.93395715090E+02  0.00000000000E+00 0. -1.
         -5    1    3    3    0  503 -0.81583376184E+02  0.10285837336E+03 -0.13070259444E+03  0.18531311458E+03  0.47000000000E+01 0.  1.
         13    1    4    4    0    0 -0.68079171922E+01  0.25364052540E+02 -0.22032727551E+02  0.34280081405E+02  0.00000000000E+00 0. -1.
        -14    1    4    4    0    0 -0.66742558511E+02 -0.51338132996E+02 -0.53513376424E+02  0.99769005570E+02  0.00000000000E+00 0.  1.
</event>
<event>
12    1  0.1030140E-001  0.1856266E+03  0.7818608E-02  0.1163019E+00
         21   -1    0    0  503  502  0.00000000000E+00  0.00000000000E+00  0.16374112213E+03  0.16374112213E+03  0.00000000000E+00 0.  1.
         21   -1    0    0  501  503 -0.00000000000E+00 -0.00000000000E+00 -0.30612387256E+03  0.30612387256E+03  0.00000000000E+00 0.  1.
          6    2    1    2  501    0 -0.65670640190E+02 -0.11093838531E+02 -0.20404622200E+03  0.27426429228E+03  0.17073469207E+03 0.  0.
         24    2    3    3    0    0 -0.89154580617E+02 -0.55750246604E+02 -0.15711717575E+03  0.20519826864E+03  0.79774013922E+02 0.  0.
         -6    2    1    2    0  502  0.65670640190E+02  0.11093838531E+02  0.61663471563E+02  0.19560070240E+03  0.17326726413E+03 0.  0.
        -24    2    5    5    0    0  0.30234409328E+02 -0.12645961691E+02  0.10363686697E+03  0.13557437073E+03  0.81029438789E+02 0.  0.
          5    1    3    3  501    0  0.23483940427E+02  0.44656408073E+02 -0.46929046250E+02  0.69066023643E+02  0.47000000000E+01 0. -1.
        -13    1    4    4    0    0 -0.67099706585E+02 -0.52952158481E+02 -0.57229549067E+02  0.10286653002E+03  0.00000000000E+00 0.  1.
         14    1    4    4    0    0 -0.22054874032E+02 -0.27980881225E+01 -0.99887626681E+02  0.10233173862E+03  0.00000000000E+00 0. -1.
         -5    1    5    5    0  502  0.35436230862E+02  0.23739800222E+02 -0.41973395403E+02  0.60026331672E+02  0.47000000000E+01 0.  1.
         11    1    6    6    0    0  0.18552657487E+01 -0.34920106150E+01 -0.13828767859E+02  0.14383009756E+02  0.00000000000E+00 0. -1.
        -12    1    6    6    0    0  0.28379143580E+02 -0.91539510763E+01  0.11746563483E+03  0.12119136098E+03  0.00000000000E+00 0.  1.
</event>
<event>
12    1  0.1030140E-001  0.2111890E+03  0.7818608E-02  0.1141569E+00
         21   -1    0    0  501  502  0.00000000000E+00  0.00000000000E+00  0.82736494391E+03  0.82736494391E+03  0.00000000000E+00 0. -1.
         21   -1    0    0  502  503 -0.00000000000E+00 -0.00000000000E+00 -0.52728180144E+02  0.52728180144E+02  0.00000000000E+00 0.  1.
         -6    2    1    2    0  503  0.80547219791E+02  0.84598153891E+02  0.39198674985E+03  0.44303269948E+03  0.17023412846E+03 0.  0.
        -24    2    3    3    0    0  0.78646772854E+02  0.48046904507E+02  0.38652450269E+03  0.40572946002E+03  0.81984045014E+02 0.  0.
          6    2    1    2  501    0 -0.80547219791E+02 -0.84598153891E+02  0.38265001392E+03  0.43706042458E+03  0.17594339806E+03 0.  0.
         24    2    5    5    0    0 -0.11384090619E+03 -0.10094997595E+03  0.29007948967E+03  0.33722434093E+03  0.80146716847E+02 0.  0.
          5    1    5    5  501    0  0.33293686401E+02  0.16351822056E+02  0.92570524247E+02  0.99836083647E+02  0.47000000000E+01 0. -1.
        -11    1    6    6    0    0 -0.38264067364E+02 -0.48931056223E+02  0.48495530621E+02  0.78804845058E+02  0.00000000000E+00 0.  1.
         12    1    6    6    0    0 -0.75576838827E+02 -0.52018919724E+02  0.24158395905E+03  0.25841949587E+03  0.00000000000E+00 0. -1.
         -5    1    3    3    0  503  0.19004469368E+01  0.36551249385E+02  0.54622471626E+01  0.37303239460E+02  0.47000000000E+01 0.  1.
         11    1    4    4    0    0  0.57449274175E+01  0.43098340661E+02  0.21394700344E+03  0.21832038713E+03  0.00000000000E+00 0. -1.
        -12    1    4    4    0    0  0.72901845436E+02  0.49485638459E+01  0.17257749925E+03  0.18740907289E+03  0.00000000000E+00 0.  1.
</event>
<event>
12    1  0.1030140E-001  0.1831075E+03  0.7818608E-02  0.1165457E+00
         21   -1    0    0  501  502  0.00000000000E+00  0.00000000000E+00  0.62673401829E+03  0.62673401829E+03  0.00000000000E+00 0. -1.
         21   -1    0    0  502  503 -0.00000000000E+00 -0.00000000000E+00 -0.86297076521E+02  0.86297076521E+02  0.00000000000E+00 0. -1.
         -6    2    1    2    0  503  0.14576725215E+02 -0.60076741178E+02  0.46679731154E+02  0.18641497700E+03  0.16955780902E+03 0.  0.
        -24    2    3    3    0    0 -0.14748366920E+01 -0.23926532699E+02  0.92087162650E+02  0.12601286571E+03  0.82610790392E+02 0.  0.
          6    2    1    2  501    0 -0.14576725215E+02  0.60076741178E+02  0.49375721061E+03  0.52661611781E+03  0.17235619154E+03 0.  0.
         24    2    5    5    0    0 -0.71468884544E+02  0.16532932442E+02  0.28857608185E+03  0.30923588257E+03  0.83483751369E+02 0.  0.
          5    1    5    5  501    0  0.56892159330E+02  0.43543808736E+02  0.20518112877E+03  0.21738023524E+03  0.47000000000E+01 0. -1.
        -11    1    6    6    0    0 -0.70283144504E+01 -0.75838103836E+01 -0.20798950913E+01  0.10546911754E+02  0.00000000000E+00 0.  1.
         12    1    6    6    0    0 -0.64440570094E+02  0.24116742825E+02  0.29065597694E+03  0.29868897082E+03  0.00000000000E+00 0. -1.
         -5    1    3    3    0  503  0.16051561907E+02 -0.36150208479E+02 -0.45407431496E+02  0.60402111285E+02  0.47000000000E+01 0.  1.
         13    1    4    4    0    0 -0.29068778808E+02 -0.28270055135E+02  0.13705176239E+02  0.42802123481E+02  0.00000000000E+00 0. -1.
        -14    1    4    4    0    0  0.27593942116E+02  0.43435224356E+01  0.78381986410E+02  0.83210742229E+02  0.00000000000E+00 0.  1.
</event>
<event>
12    1  0.1030140E-001  0.1968368E+03  0.7818608E-02  0.1152504E+00
         21   -1    0    0  501  502  0.00000000000E+00  0.00000000000E+00  0.13751347229E+03  0.13751347229E+03  0.00000000000E+00 0. -1.
         21   -1    0    0  502  503 -0.00000000000E+00 -0.00000000000E+00 -0.57727686080E+03  0.57727686080E+03  0.00000000000E+00 0.  1.
         -6    2    1    2    0  503  0.89974362879E+02  0.32243601173E+02 -0.47570569910E+03  0.51469895313E+03  0.17170924380E+03 0.  0.
        -24    2    3    3    0    0  0.10641781468E+03  0.72716798094E+02 -0.38827117113E+03  0.41684521811E+03  0.79955922393E+02 0.  0.
          6    2    1    2  501    0 -0.89974362879E+02 -0.32243601173E+02  0.35942310590E+02  0.20009137996E+03  0.17207462001E+03 0.  0.
         24    2    5    5    0    0 -0.23752650975E+02  0.34856292326E+02 -0.16395694301E+02  0.92160533622E+02  0.80284466884E+02 0.  0.
          5    1    5    5  501    0 -0.66221711904E+02 -0.67099893499E+02  0.52338004891E+02  0.10793084634E+03  0.47000000000E+01 0. -1.
        -13    1    6    6    0    0  0.93432586974E+01  0.36017134433E+02  0.20581293930E+02  0.42521995669E+02  0.00000000000E+00 0.  1.
         14    1    6    6    0    0 -0.33095909673E+02 -0.11608421073E+01 -0.36976988231E+02  0.49638537953E+02  0.00000000000E+00 0. -1.
         -5    1    3    3    0  503 -0.16443451804E+02 -0.40473196920E+02 -0.87434527973E+02  0.97853735024E+02  0.47000000000E+01 0.  1.
         11    1    4    4    0    0 -0.38404806186E+00 -0.10903355916E+02 -0.70435079029E+02  0.71275037854E+02  0.00000000000E+00 0. -1.
        -12    1    4    4    0    0  0.10680186274E+03  0.83620154010E+02 -0.31783609210E+03  0.34557018026E+03  0.00000000000E+00 0.  1.
</event>
<event>
12    1  0.1030140E-001  0.1827233E+03  0.7818608E-02  0.1165773E+00
         21   -1    0    0  503  502  0.00000000000E+00  0.00000000000E+00  0.10105155110E+04  0.10105155110E+04  0.00000000000E+00 0. -1.
         21   -1    0    0  501  503 -0.00000000000E+00 -0.00000000000E+00 -0.32636647829E+02  0.32636647829E+02  0.00000000000E+00 0. -1.
          6    2    1    2  501    0  0.19360317046E+02 -0.54974727842E+02  0.50237440252E+03  0.53374828307E+03  0.17061695929E+03 0.  0.
         24    2    3    3    0    0  0.56324936810E+02  0.15317220987E+02  0.24379766712E+03  0.26320926689E+03  0.80216581329E+02 0.  0.
         -6    2    1    2    0  502 -0.19360317046E+02  0.54974727842E+02  0.47550446063E+03  0.50940387574E+03  0.17317844542E+03 0.  0.
        -24    2    5    5    0    0 -0.10543502289E+02 -0.39181677769E+02  0.24388528393E+03  0.25917858135E+03  0.77763333230E+02 0.  0.
          5    1    3    3  501    0 -0.36964619764E+02 -0.70291948829E+02  0.25857673540E+03  0.27053901618E+03  0.47000000000E+01 0. -1.
        -13    1    4    4    0    0  0.39728723348E+02  0.46646757254E+01  0.23976675085E+03  0.24308069745E+03  0.00000000000E+00 0.  1.
         14    1    4    4    0    0  0.16596213461E+02  0.10652545262E+02  0.40309162651E+01  0.20128569441E+02  0.00000000000E+00 0. -1.
         -5    1    5    5    0  502 -0.88168147566E+01  0.94156405611E+02  0.23161917669E+03  0.25022529439E+03  0.47000000000E+01 0.  1.
         11    1    6    6    0    0  0.33908490400E+02 -0.16708578548E+02  0.11143133527E+03  0.11766862283E+03  0.00000000000E+00 0. -1.
        -12    1    6    6    0    0 -0.44451992689E+02 -0.22473099221E+02  0.13245394866E+03  0.14150995851E+03  0.00000000000E+00 0.  1.
</event>
<event>
12    1  0.1030140E-001  0.2166669E+03  0.7818608E-02  0.1136454E+00
         21   -1    0    0  501  502  0.00000000000E+00  0.00000000000E+00  0.49482760653E+03  0.49482760653E+03  0.00000000000E+00 0.  1.
         21   -1    0    0  502  503 -0.00000000000E+00 -0.00000000000E+00 -0.11249289270E+03  0.11249289270E+03  0.00000000000E+00 0.  1.
         -6    2    1    2    0  503 -0.34411574055E+02 -0.12739976578E+03  0.70384929641E+02  0.22750843696E+03  0.17143860072E+03 0.  0.
        -24    2    3    3    0    0  0.20900855801E+01 -0.12295727473E+02  0.44493375194E+02  0.10392132848E+03  0.93082913063E+02 0.  0.
          6    2    1    2  501    0  0.34411574055E+02  0.12739976578E+03  0.31194978419E+03  0.37981206227E+03  0.17184201475E+03 0.  0.
         24    2    5    5    0    0  0.69604899668E+02  0.30010557809E+02  0.12816447544E+03  0.16880884497E+03  0.79528722714E+02 0.  0.
          5    1    5    5  501    0 -0.35193325613E+02  0.97389207974E+02  0.18378530875E+03  0.21100321730E+03  0.47000000000E+01 0. -1.
        -11    1    6    6    0    0  0.57846030524E+02 -0.28696120747E+01  0.11955285283E+03  0.13284307487E+03  0.00000000000E+00 0.  1.
         12    1    6    6    0    0  0.11758869143E+02  0.32880169884E+02  0.86116226178E+01  0.35965770105E+02  0.00000000000E+00 0. -1.
         -5    1    3    3    0  503 -0.36501659635E+02 -0.11510403831E+03  0.25891554447E+02  0.12358710848E+03  0.47000000000E+01 0.  1.
         11    1    4    4    0    0  0.19718006050E+02  0.33984560596E+02  0.31642425689E+01  0.39417794872E+02  0.00000000000E+00 0. -1.
        -12    1    4    4    0    0 -0.17627920470E+02 -0.46280288069E+02  0.41329132625E+02  0.64503533604E+02  0.00000000000E+00 0.  1.
</event>
<event>
12    1  0.1030140E-001  0.2097297E+03  0.7818608E-02  0.1142216E+00
         21   -1    0    0  503  502  0.00000000000E+00  0.00000000000E+00  0.31032114414E+03  0.31032114414E+03  0.00000000000E+00 0. -1.
         21   -1    0    0  501  503 -0.00000000000E+00 -0.00000000000E+00 -0.15539968727E+03  0.15539968727E+03  0.00000000000E+00 0. -1.
          6    2    1    2  501    0  0.25325617786E+02  0.11506098436E+03  0.14974453598E+03  0.25592721767E+03  0.17086514463E+03 0.  0.
         24    2    3    3    0    0 -0.18400934995E+02  0.46810219335E+02  0.10903535685E+02  0.95088504334E+02  0.79957148043E+02 0.  0.
         -6    2    1    2    0  502 -0.25325617786E+02 -0.11506098436E+03  0.51769208887E+01  0.20979361375E+03  0.17351121815E+03 0.  0.
        -24    2    5    5    0    0  0.30693773666E+02 -0.14272304827E+02  0.29650383088E+02  0.91820860575E+02  0.80038233317E+02 0.  0.
          5    1    3    3  501    0  0.43726552781E+02  0.68250765020E+02  0.13884100029E+03  0.16083871333E+03  0.47000000000E+01 0. -1.
        -13    1    4    4    0    0 -0.28274946712E+02 -0.47695086593E+01 -0.19244690130E+02  0.34533736007E+02  0.00000000000E+00 0.  1.
         14    1    4    4    0    0  0.98740117171E+01  0.51579727995E+02  0.30148225814E+02  0.60554768327E+02  0.00000000000E+00 0. -1.
         -5    1    5    5    0  502 -0.56019391452E+02 -0.10078867953E+03 -0.24473462199E+02  0.11797275317E+03  0.47000000000E+01 0.  1.
         11    1    6    6    0    0 -0.18403181383E+02 -0.24533105302E+02 -0.47024909083E+01  0.31026823258E+02  0.00000000000E+00 0. -1.
        -12    1    6    6    0    0  0.49096955049E+02  0.10260800475E+02  0.34352873996E+02  0.60794037316E+02  0.00000000000E+00 0.  1.
</event>
<event>
12    1  0.1030140E-001  0.2137512E+03  0.7818608E-02  0.1139023E+00
         21   -1    0    0  501  502  0.00000000000E+00  0.00000000000E+00  0.34278751789E+03  0.34278751789E+03  0.00000000000E+00 0. -1.
         21   -1    0    0  502  503 -0.00000000000E+00 -0.00000000000E+00 -0.18565537772E+03  0.18565537772E+03  0.00000000000E+00 0. -1.
         -6    2    1    2    0  503  0.12286682287E+03  0.18715030502E+02 -0.63172084467E+02  0.22289077189E+03  0.17390536337E+03 0.  0.
        -24    2    3    3    0    0 -0.13672190715E+01  0.31743200222E+02 -0.41516965233E+02  0.96025234523E+02  0.80546180633E+02 0.  0.
          6    2    1    2  501    0 -0.12286682287E+03 -0.18715030502E+02  0.22030422464E+03  0.30555212372E+03  0.17141073592E+03 0.  0.
         24    2    5    5    0    0 -0.21735438044E+02  0.15302955593E+02  0.31019151310E+02  0.88214346609E+02  0.78185506860E+02 0.  0.
          5    1    5    5  501    0 -0.10113138482E+03 -0.34017986095E+02  0.18928507333E+03  0.21733777711E+03  0.47000000000E+01 0. -1.
        -11    1    6    6    0    0 -0.21179136772E+01 -0.19695360297E+02 -0.16672076639E+02  0.25891135839E+02  0.00000000000E+00 0.  1.
         12    1    6    6    0    0 -0.19617524367E+02  0.34998315890E+02  0.47691227949E+02  0.62323210770E+02  0.00000000000E+00 0. -1.
         -5    1    3    3    0  503  0.12423404194E+03 -0.13028169720E+02 -0.21655119234E+02  0.12686553737E+03  0.47000000000E+01 0.  1.
         11    1    4    4    0    0  0.70039061875E+01 -0.24926869209E+02 -0.10963911465E+01  0.25915354213E+02  0.00000000000E+00 0. -1.
        -12    1    4    4    0    0 -0.83711252591E+01  0.56670069432E+02 -0.40420574087E+02  0.70109880309E+02  0.00000000000E+00 0.  1.
</event>
<event>
12    1  0.1030140E-001  0.1933793E+03  0.7818608E-02  0.1155503E+00
         21   -1    0    0  503  502  0.00000000000E+00  0.00000000000E+00  0.39216855498E+03  0.39216855498E+03  0.00000000000E+00 0.  1.
         21   -1    0    0  501  503 -0.00000000000E+00 -0.00000000000E+00 -0.10438193568E+03  0.10438193568E+03  0.00000000000E+00 0.  1.
          6    2    1    2  501    0  0.54003022712E+02 -0.70084672972E+02  0.70312063594E+02  0.20553375853E+03  0.17167455187E+03 0.  0.
         24    2    3    3    0    0  0.23132119838E+02  0.28664452583E+02  0.34586950878E+02  0.95976576563E+02  0.81599633992E+02 0.  0.
         -6    2    1    2    0  502 -0.54003022712E+02  0.70084672972E+02  0.21747455570E+03  0.29101673213E+03  0.17195164482E+03 0.  0.
        -24    2    5    5    0    0 -0.12079135676E+02  0.66325516818E+02  0.22453893214E+03  0.24807795044E+03  0.81116938711E+02 0.  0.
          5    1    3    3  501    0  0.30870902874E+02 -0.98749125555E+02  0.35725112716E+02  0.10955718197E+03  0.47000000000E+01 0. -1.
        -13    1    4    4    0    0  0.19351870825E+02 -0.15945519729E+02 -0.14960374815E+02  0.29198755427E+02  0.00000000000E+00 0.  1.
         14    1    4    4    0    0  0.37802490125E+01  0.44609972312E+02  0.49547325693E+02  0.66777821136E+02  0.00000000000E+00 0. -1.
         -5    1    5    5    0  502 -0.41923887035E+02  0.37591561537E+01 -0.70643764378E+01  0.42938781696E+02  0.47000000000E+01 0.  1.
         13    1    6    6    0    0  0.88843250011E+01 -0.16162614431E+02  0.24338819992E+02  0.30537509633E+02  0.00000000000E+00 0. -1.
        -14    1    6    6    0    0 -0.20963460678E+02  0.82488131249E+02  0.20020011215E+03  0.21754044080E+03  0.00000000000E+00 0.  1.
</event>
<event>
12    1  0.1030140E-001  0.2229725E+03  0.7818608E-02  0.1131942E+00
         21   -1    0    0  503  502  0.00000000000E+00  0.00000000000E+00  0.47522558175E+03  0.47522558175E+03  0.00000000000E+00 0.  1.
         21   -1    0    0  501  503 -0.00000000000E+00 -0.00000000000E+00 -0.13286353033E+03  0.13286353033E+03  0.00000000000E+00 0. -1.
          6    2    1    2  501    0 -0.34822325377E+02 -0.13744064958E+03  0.28960071554E+02  0.22346261800E+03  0.17027721338E+03 0.  0.
         24    2    3    3    0    0  0.24929776947E+02 -0.55109272044E+02 -0.32797801168E+02  0.10436226409E+03  0.78468214968E+02 0.  0.
         -6    2    1    2    0  502  0.34822325377E+02  0.13744064958E+03  0.31340197986E+03  0.38462649408E+03  0.17208780453E+03 0.  0.
        -24    2    5    5    0    0  0.79654053028E+02  0.48396414996E+02  0.18492359591E+03  0.22193800445E+03  0.79829570621E+02 0.  0.
          5    1    3    3  501    0 -0.59752102324E+02 -0.82331377531E+02  0.61757872722E+02  0.11910035391E+03  0.47000000000E+01 0. -1.
        -11    1    4    4    0    0  0.25727924672E+01 -0.30202938472E+02  0.23847246153E+02  0.38568483280E+02  0.00000000000E+00 0.  1.
         12    1    4    4    0    0  0.22356984480E+02 -0.24906333572E+02 -0.56645047321E+02  0.65793780808E+02  0.00000000000E+00 0. -1.
         -5    1    5    5    0  502 -0.44831727651E+02  0.89044234579E+02  0.12847838395E+03  0.16268848963E+03  0.47000000000E+01 0.  1.
         11    1    6    6    0    0  0.84639232389E+02  0.60808070515E+02  0.13671403060E+03  0.17190737990E+03  0.00000000000E+00 0. -1.
        -12    1    6    6    0    0 -0.49851793602E+01 -0.12411655518E+02  0.48209565304E+02  0.50030624549E+02  0.00000000000E+00 0.  1.
</event>
<event>
12    1  0.1030140E-001  0.1869263E+03  0.7818608E-02  0.1161362E+00
         21   -1    0    0  503  502  0.00000000000E+00  0.00000000000E+00  0.22068777162E+03  0.22068777162E+03  0.00000000000E+00 0. -1.
         21   -1    0    0  501  503 -0.00000000000E+00 -0.00000000000E+00 -0.35374485219E+03  0.35374485219E+03  0.00000000000E+00 0. -1.
          6    2    1    2  501    0 -0.14808648055E+02 -0.71662717313E+02 -0.28016589424E+03  0.33656201276E+03  0.17154072120E+03 0.  0.
         24    2    3    3    0    0 -0.44069907136E+02 -0.15317792572E+02 -0.66328861364E+02  0.11344917481E+03  0.79337292190E+02 0.  0.
         -6    2    1    2    0  502  0.14808648055E+02  0.71662717313E+02  0.14710881367E+03  0.23787061106E+03  0.17200750982E+03 0.  0.
        -24    2    5    5    0    0  0.64206788494E+02  0.75965732951E+02  0.13740867063E+03  0.18712738493E+03  0.79007665166E+02 0.  0.
          5    1    3    3  501    0  0.29261259081E+02 -0.56344924741E+02 -0.21383703288E+03  0.22311283795E+03  0.47000000000E+01 0. -1.
        -13    1    4    4    0    0  0.38701825662E+01  0.27492390273E+02 -0.20434870067E+02  0.34473087338E+02  0.00000000000E+00 0.  1.
         14    1    4    4    0    0 -0.47940089702E+02 -0.42810182845E+02 -0.45893991297E+02  0.78976087476E+02  0.00000000000E+00 0. -1.
         -5    1    5    5    0  502 -0.49398140439E+02 -0.43030156388E+01  0.97001430385E+01  0.50743226123E+02  0.47000000000E+01 0.  1.
         13    1    6    6    0    0  0.56265998087E+02  0.13012425029E+02  0.93736255261E+02  0.11009846183E+03  0.00000000000E+00 0. -1.
        -14    1    6    6    0    0  0.79407904062E+01  0.62953307922E+02  0.43672415372E+02  0.77028923108E+02  0.00000000000E+00 0.  1.
</event>
<event>
12    1  0.1030140E-001  0.1922382E+03  0.7818608E-02  0.1156482E+00
         21   -1    0    0  501  502  0.00000000000E+00  0.00000000000E+00  0.20598341419E+02  0.20598341419E+02  0.00000000000E+00 0. -1.
         21   -1    0    0  502  503 -0.00000000000E+00 -0.00000000000E+00 -0.20485255537E+04  0.20485255537E+04  0.00000000000E+00 0. -1.
         -6    2    1    2    0  503  0.57859289552E+02 -0.64774827846E+02 -0.13795537321E+04  0.13928833543E+04  0.17149945540E+03 0.  0.
        -24    2    3    3    0    0  0.57092458565E+02 -0.10091092810E+03 -0.12677083924E+04  0.12752488535E+04  0.75713313694E+02 0.  0.
          6    2    1    2  501    0 -0.57859289552E+02  0.64774827846E+02 -0.64837348017E+03  0.67624054082E+03  0.17137567956E+03 0.  0.
         24    2    5    5    0    0 -0.85239166013E+02  0.87509244054E+02 -0.58700298335E+03  0.60514244523E+03  0.81861427703E+02 0.  0.
          5    1    5    5  501    0  0.27379876461E+02 -0.22734416208E+02 -0.61370496823E+02  0.71098095584E+02  0.47000000000E+01 0. -1.
        -13    1    6    6    0    0 -0.84210989120E+02  0.51382324416E+02 -0.29836133349E+03  0.31424690813E+03  0.00000000000E+00 0.  1.
         14    1    6    6    0    0 -0.10281768933E+01  0.36126919638E+02 -0.28864164986E+03  0.29089553710E+03  0.00000000000E+00 0. -1.
         -5    1    3    3    0  503  0.76683098730E+00  0.36136100255E+02 -0.11184533964E+03  0.11763450077E+03  0.47000000000E+01 0.  1.
         11    1    4    4    0    0 -0.14351605210E+02 -0.29186994233E+02 -0.47326187671E+03  0.47437817525E+03  0.00000000000E+00 0. -1.
        -12    1    4    4    0    0  0.71444063775E+02 -0.71723933867E+02 -0.79444651571E+03  0.80087067824E+03  0.00000000000E+00 0.  1.
</event>
<event>
12    1  0.1030140E-001  0.1840993E+03  0.7818608E-02  0.1164327E+00
         21   -1    0    0  501  502  0.00000000000E+00  0.00000000000E+00  0.69646861014E+02  0.69646861014E+02  0.00000000000E+00 0.  1.
         21   -1    0    0  502  503 -0.00000000000E+00 -0.00000000000E+00 -0.59954096830E+03  0.59954096830E+03  0.00000000000E+00 0.  1.
         -6    2    1    2    0  503  0.45805335705E+02  0.43724213785E+02 -0.41215594002E+03  0.45065901092E+03  0.17091252026E+03 0.  0.
        -24    2    3    3    0    0  0.92810284305E+02  0.49085866906E+02 -0.33350020950E+03  0.35875130472E+03  0.80355072605E+02 0.  0.
          6    2    1    2  501    0 -0.45805335705E+02 -0.43724213785E+02 -0.11773816727E+03  0.21852881839E+03  0.17286593877E+03 0.  0.
         24    2    5    5    0    0 -0.90215413322E+02 -0.62162439278E+02 -0.11592484702E+03  0.17018007194E+03  0.59327034903E+02 0.  0.
          5    1    5    5  501    0  0.44410077617E+02  0.18438225493E+02 -0.18133202455E+01  0.48348746453E+02  0.47000000000E+01 0. -1.
        -13    1    6    6    0    0 -0.18828740282E+02 -0.23146565830E+02 -0.16210743136E+01  0.29881647416E+02  0.00000000000E+00 0.  1.
         14    1    6    6    0    0 -0.71386673040E+02 -0.39015873447E+02 -0.11430377271E+03  0.14029842452E+03  0.00000000000E+00 0. -1.
         -5    1    3    3    0  503 -0.47004948599E+02 -0.53616531206E+01 -0.78655730511E+02  0.91907706202E+02  0.47000000000E+01 0.  1.
         13    1    4    4    0    0  0.10789526326E+02  0.40615619168E+02 -0.61193467172E+02  0.74233973512E+02  0.00000000000E+00 0. -1.
        -14    1    4    4    0    0  0.82020757979E+02  0.84702477371E+01 -0.27230674233E+03  0.28451733120E+03  0.00000000000E+00 0.  1.
</event>
<event>
12    1  0.1030140E-001  0.1840631E+03  0.7818608E-02  0.1165638E+00
         21   -1    0    0  503  502  0.00000000000E+00  0.00000000000E+00  0.68077905030E+02  0.68077905030E+02  0.00000000000E+00 0.  1.
         21   -1    0    0  501  503 -0.00000000000E+00 -0.00000000000E+00 -0.23466078913E+04  0.23466078913E+04  0.00000000000E+00 0.  1.
          6    2    1    2  501    0  0.54442057640E+02 -0.84514282550E+01 -0.22118516488E+04  0.22189175249E+04  0.16814250477E+03 0.  0.
         24    2    3    3    0    0  0.60459987747E+02  0.79455307302E+01 -0.72124407738E+03  0.72820021515E+03  0.79774636362E+02 0.  0.
         -6    2    1    2    0  502 -0.54442057640E+02  0.84514282550E+01 -0.66678337522E+02  0.19576827144E+03  0.17562417581E+03 0.  0.
        -24    2    5    5    0    0 -0.11407771377E+02 -0.51577158517E+02 -0.70459473240E+02  0.12166180741E+03  0.83944728748E+02 0.  0.
          5    1    3    3  501    0 -0.60179301072E+01 -0.16396958985E+02 -0.14906075714E+04  0.14907173098E+04  0.47000000000E+01 0. -1.
        -11    1    4    4    0    0  0.28616974415E+02  0.29761222091E+02 -0.58880829438E+03  0.59025407164E+03  0.00000000000E+00 0.  1.
         12    1    4    4    0    0  0.31843013332E+02 -0.21815691361E+02 -0.13243578300E+03  0.13794614350E+03  0.00000000000E+00 0. -1.
         -5    1    5    5    0  502 -0.43034286263E+02  0.60028586772E+02  0.37811357181E+01  0.74106464031E+02  0.47000000000E+01 0.  1.
         13    1    6    6    0    0 -0.47366323990E+02 -0.20933603929E+02 -0.40197537246E+02  0.65556284385E+02  0.00000000000E+00 0. -1.
        -14    1    6    6    0    0  0.35958552612E+02 -0.30643554588E+02 -0.30261935994E+02  0.56105523025E+02  0.00000000000E+00 0.  1.
</event>
<event>
12    1  0.1030140E-001  0.2435389E+03  0.7818608E-02  0.1119028E+00
         21   -1    0    0  503  502  0.00000000000E+00  0.00000000000E+00  0.49510436653E+03  0.49510436653E+03  0.00000000000E+00 0. -1.
         21   -1    0    0  501  503 -0.00000000000E+00 -0.00000000000E+00 -0.13602848942E+03  0.13602848942E+03  0.00000000000E+00 0. -1.
          6    2    1    2  501    0  0.51691064752E+02  0.14935298149E+03  0.59105844391E+02  0.25060861832E+03  0.18529139073E+03 0.  0.
         24    2    3    3    0    0  0.47792161603E+02  0.16089660013E+03  0.97380981551E+02  0.21016689851E+03  0.80717179197E+02 0.  0.
         -6    2    1    2    0  502 -0.51691064752E+02 -0.14935298149E+03  0.29997003273E+03  0.38052423763E+03  0.17273793918E+03 0.  0.
        -24    2    5    5    0    0 -0.25440399373E+02 -0.13904391356E+02  0.62313175513E+02  0.10568193778E+03  0.80281966295E+02 0.  0.
          5    1    3    3  501    0  0.38989031494E+01 -0.11543618631E+02 -0.38275137160E+02  0.40441719813E+02  0.47000000000E+01 0. -1.
        -13    1    4    4    0    0  0.31889842896E+02  0.38966862723E+02  0.66452411993E+02  0.83374465695E+02  0.00000000000E+00 0.  1.
         14    1    4    4    0    0  0.15902318707E+02  0.12192973740E+03  0.30928569558E+02  0.12679243281E+03  0.00000000000E+00 0. -1.
         -5    1    5    5    0  502 -0.26250665380E+02 -0.13544859014E+03  0.23765685722E+03  0.27484229985E+03  0.47000000000E+01 0.  1.
         13    1    6    6    0    0 -0.53953956106E+01 -0.46005451848E+02  0.42957466644E+02  0.63174012331E+02  0.00000000000E+00 0. -1.
        -14    1    6    6    0    0 -0.20045003762E+02  0.32101060492E+02  0.19355708869E+02  0.42507925453E+02  0.00000000000E+00 0.  1.
</event>
<event>
12    1  0.1030140E-001  0.2195077E+03  0.7818608E-02  0.1134662E+00
         21   -1    0    0  501  502  0.00000000000E+00  0.00000000000E+00  0.89415918549E+03  0.89415918549E+03  0.00000000000E+00 0. -1.
         21   -1    0    0  502  503 -0.00000000000E+00 -0.00000000000E+00 -0.85253384880E+02  0.85253384880E+02  0.00000000000E+00 0. -1.
         -6    2    1    2    0  503  0.71878502515E+02 -0.11485169644E+03  0.10615985751E+03  0.24383097920E+03  0.17270263395E+03 0.  0.
        -24    2    3    3    0    0  0.10057532180E+03 -0.13151332572E+03  0.10327842500E+03  0.21019305446E+03  0.78125135996E+02 0.  0.
          6    2    1    2  501    0 -0.71878502515E+02  0.11485169644E+03  0.70274594309E+03  0.73558159117E+03  0.16991464161E+03 0.  0.
         24    2    5    5    0    0  0.19677476540E+02  0.96865132127E+02  0.41135849978E+03  0.42958364033E+03  0.74540135450E+02 0.  0.
          5    1    5    5  501    0 -0.91555979055E+02  0.17986564308E+02  0.29138744331E+03  0.30599795083E+03  0.47000000000E+01 0. -1.
        -11    1    6    6    0    0  0.11844193692E+02 -0.92501413484E+01  0.28567637184E+02  0.32279404168E+02  0.00000000000E+00 0.  1.
         12    1    6    6    0    0  0.78332828472E+01  0.10611527348E+03  0.38279086260E+03  0.39730423617E+03  0.00000000000E+00 0. -1.
         -5    1    3    3    0  503 -0.28696819286E+02  0.16661629285E+02  0.28814325112E+01  0.33637924741E+02  0.47000000000E+01 0.  1.
         11    1    4    4    0    0  0.14718345997E+02 -0.53678646474E+02  0.10645019234E+01  0.55670099340E+02  0.00000000000E+00 0. -1.
        -12    1    4    4    0    0  0.85856975804E+02 -0.77834679246E+02  0.10221392308E+03  0.15452295512E+03  0.00000000000E+00 0.  1.
</event>
<event>
12    1  0.1030140E-001  0.1807719E+03  0.7818608E-02  0.1167204E+00
         21   -1    0    0  503  502  0.00000000000E+00  0.00000000000E+00  0.26255687920E+03  0.26255687920E+03  0.00000000000E+00 0.  1.
         21   -1    0    0  501  503 -0.00000000000E+00 -0.00000000000E+00 -0.14282818494E+03  0.14282818494E+03  0.00000000000E+00 0.  1.
          6    2    1    2  501    0 -0.10984380939E+02 -0.55185623879E+02 -0.13726522574E+02  0.18068800980E+03  0.17115381900E+03 0.  0.
         24    2    3    3    0    0  0.17076553681E+02 -0.25507910337E+02 -0.69711839397E+02  0.11122846451E+03  0.81054109023E+02 0.  0.
         -6    2    1    2    0  502  0.10984380939E+02  0.55185623879E+02  0.13345521683E+03  0.22469705434E+03  0.17179162268E+03 0.  0.
        -24    2    5    5    0    0 -0.23649938051E+02  0.77498549767E+02  0.14119210869E+03  0.18251468588E+03  0.82529111347E+02 0.  0.
          5    1    3    3  501    0 -0.28060934620E+02 -0.29677713542E+02  0.55985316823E+02  0.69459545295E+02  0.47000000000E+01 0. -1.
        -13    1    4    4    0    0  0.39726069302E+02  0.11191740828E+02 -0.21478840103E+02  0.46526940767E+02  0.00000000000E+00 0.  1.
         14    1    4    4    0    0 -0.22649515622E+02 -0.36699651166E+02 -0.48232999294E+02  0.64701523741E+02  0.00000000000E+00 0. -1.
         -5    1    5    5    0  502  0.34634318990E+02 -0.22312925887E+02 -0.77368918558E+01  0.42182368463E+02  0.47000000000E+01 0.  1.
         11    1    6    6    0    0  0.66144986755E+01  0.51783640941E+01 -0.94803846953E+01  0.12666678388E+02  0.00000000000E+00 0. -1.
        -12    1    6    6    0    0 -0.30264436726E+02  0.72320185673E+02  0.15067249338E+03  0.16984800749E+03  0.00000000000E+00 0.  1.
</event>
<event>
12    1  0.1030140E-001  0.1900878E+03  0.7818608E-02  0.1158705E+00
         21   -1    0    0  503  502  0.00000000000E+00  0.00000000000E+00  0.20686051894E+03  0.20686051894E+03  0.00000000000E+00 0. -1.
         21   -1    0    0  501  503 -0.00000000000E+00 -0.00000000000E+00 -0.17546532265E+03  0.17546532265E+03  0.00000000000E+00 0. -1.
          6    2    1    2  501    0 -0.52990622045E+02  0.57205148576E+02 -0.51572078583E+01  0.19015772270E+03  0.17335780242E+03 0.  0.
         24    2    3    3    0    0 -0.96237910326E+02  0.38680088675E+02  0.25770720915E+02  0.13365876194E+03  0.80266119529E+02 0.  0.
         -6    2    1    2    0  502  0.52990622045E+02 -0.57205148576E+02  0.36552404154E+02  0.19216811889E+03  0.17179078154E+03 0.  0.
        -24    2    5    5    0    0  0.73609532765E+02 -0.93540000057E+02  0.38025213576E+02  0.15010126640E+03  0.83164766467E+02 0.  0.
          5    1    3    3  501    0  0.43247288281E+02  0.18525059901E+02 -0.30927928773E+02  0.56498960754E+02  0.47000000000E+01 0. -1.
        -11    1    4    4    0    0  0.76564487595E+01  0.24967570041E+02  0.19342327774E+01  0.26186676342E+02  0.00000000000E+00 0.  1.
         12    1    4    4    0    0 -0.10389435909E+03  0.13712518633E+02  0.23836488138E+02  0.10747208560E+03  0.00000000000E+00 0. -1.
         -5    1    5    5    0  502 -0.20618910721E+02  0.36334851481E+02 -0.14728094226E+01  0.42066852498E+02  0.47000000000E+01 0.  1.
         11    1    6    6    0    0  0.29854166475E+02 -0.57104751905E+02  0.60972266369E+02  0.88712125509E+02  0.00000000000E+00 0. -1.
        -12    1    6    6    0    0  0.43755366290E+02 -0.36435248152E+02 -0.22947052792E+02  0.61389140888E+02  0.00000000000E+00 0.  1.
</event>
<event>
12    1  0.1030140E-001  0.3211292E+03  0.7818608E-02  0.1075221E+00
         21   -1    0    0  501  502  0.00000000000E+00  0.00000000000E+00  0.60108096029E+03  0.60108096029E+03  0.00000000000E+00 0. -1.
         21   -1    0    0  502  503 -0.00000000000E+00 -0.00000000000E+00 -0.58661440816E+03  0.58661440816E+03  0.00000000000E+00 0.  1.
         -6    2    1    2    0  503  0.41875292584E+02 -0.26711352077E+03 -0.49253345619E+03  0.58797380925E+03  0.17326517764E+03 0.  0.
        -24    2    3    3    0    0  0.30790914289E+02 -0.16287207674E+03 -0.17629094964E+03  0.25477633770E+03  0.79731358583E+02 0.  0.
          6    2    1    2  501    0 -0.41875292584E+02  0.26711352077E+03  0.50700000832E+03  0.59972155920E+03  0.17179571304E+03 0.  0.
         24    2    5    5    0    0 -0.80709716273E+01  0.11368084472E+03  0.35504184403E+03  0.38109472670E+03  0.78676582689E+02 0.  0.
          5    1    5    5  501    0 -0.33804320957E+02  0.15343267604E+03  0.15195816429E+03  0.21862683250E+03  0.47000000000E+01 0. -1.
        -13    1    6    6    0    0 -0.95568839406E+01  0.31734768608E+01  0.90151117148E+00  0.10110277367E+02  0.00000000000E+00 0.  1.
         14    1    6    6    0    0  0.14859123133E+01  0.11050736786E+03  0.35414033286E+03  0.37098444933E+03  0.00000000000E+00 0. -1.
         -5    1    3    3    0  503  0.11084378295E+02 -0.10424144403E+03 -0.31624250655E+03  0.33319747155E+03  0.47000000000E+01 0.  1.
         11    1    4    4    0    0  0.44319041881E+02 -0.38441892471E+02 -0.60300511442E+02  0.84131493806E+02  0.00000000000E+00 0. -1.
        -12    1    4    4    0    0 -0.13528127592E+02 -0.12443018427E+03 -0.11599043820E+03  0.17064484389E+03  0.00000000000E+00 0.  1.
</event>
<event>
12    1  0.1030140E-001  0.2534674E+03  0.7818608E-02  0.1111339E+00
         21   -1    0    0  503  502  0.00000000000E+00  0.00000000000E+00  0.37419276713E+03  0.37419276713E+03  0.00000000000E+00 0.  1.
         21   -1    0    0  501  503 -0.00000000000E+00 -0.00000000000E+00 -0.19060811835E+03  0.19060811835E+03  0.00000000000E+00 0.  1.
          6    2    1    2  501    0 -0.17281451349E+03  0.70571444536E+02  0.18262235352E+03  0.31133168138E+03  0.16950311787E+03 0.  0.
         24    2    3    3    0    0 -0.24827132106E+02 -0.22768410506E+01  0.39442249027E+02  0.92860241405E+02  0.80285508853E+02 0.  0.
         -6    2    1    2    0  502  0.17281451349E+03 -0.70571444536E+02  0.96229525967E+00  0.25346920410E+03  0.17146581746E+03 0.  0.
        -24    2    5    5    0    0  0.46524619977E+02  0.24494456889E+02 -0.79397095518E+01  0.95077289826E+02  0.78817088062E+02 0.  0.
          5    1    3    3  501    0 -0.14798738138E+03  0.72848285587E+02  0.14318010449E+03  0.21847143997E+03  0.47000000000E+01 0. -1.
        -13    1    4    4    0    0 -0.35158790612E+02  0.21596429976E+02  0.49964523376E+02  0.64799690904E+02  0.00000000000E+00 0.  1.
         14    1    4    4    0    0  0.10331658506E+02 -0.23873271026E+02 -0.10522274349E+02  0.28060550502E+02  0.00000000000E+00 0. -1.
         -5    1    5    5    0  502  0.12628989351E+03 -0.95065901425E+02  0.89020048114E+01  0.15839191427E+03  0.47000000000E+01 0.  1.
         11    1    6    6    0    0  0.39930612352E+01  0.14738557875E+02  0.32294905725E+02  0.35722969671E+02  0.00000000000E+00 0. -1.
        -12    1    6    6    0    0  0.42531558742E+02  0.97558990131E+01 -0.40234615277E+02  0.59354320155E+02  0.00000000000E+00 0.  1.
</event>
<event>
12    1  0.1030140E-001  0.2351539E+03  0.7818608E-02  0.1123207E+00
         21   -1    0    0  501  502  0.00000000000E+00  0.00000000000E+00  0.37311980556E+03  0.37311980556E+03  0.00000000000E+00 0. -1.
         21   -1    0    0  502  503 -0.00000000000E+00 -0.00000000000E+00 -0.22139362057E+03  0.22139362057E+03  0.00000000000E+00 0. -1.
         -6    2    1    2    0  503  0.15600888753E+03  0.36331160145E+02 -0.95573599505E+02  0.25383392553E+03  0.17215871352E+03 0.  0.
        -24    2    3    3    0    0  0.13143417332E+03 -0.36543067111E+02 -0.59936317516E+02  0.16894178547E+03  0.79615495027E+02 0.  0.
          6    2    1    2  501    0 -0.15600888753E+03 -0.36331160145E+02  0.24729978449E+03  0.34067950060E+03  0.17101641013E+03 0.  0.
         24    2    5    5    0    0 -0.84208766428E+02  0.27015065499E+02  0.67792715131E+02  0.13717795357E+03  0.80006303586E+02 0.  0.
          5    1    5    5  501    0 -0.71800121099E+02 -0.63346225643E+02  0.17950706936E+03  0.20350154703E+03  0.47000000000E+01 0. -1.
        -13    1    6    6    0    0  0.72838084531E+01  0.21187435573E+02  0.31326302253E+02  0.38513614535E+02  0.00000000000E+00 0.  1.
         14    1    6    6    0    0 -0.91492574881E+02  0.58276299257E+01  0.36466412877E+02  0.98664339034E+02  0.00000000000E+00 0. -1.
         -5    1    3    3    0  503  0.24574714203E+02  0.72874227256E+02 -0.35637281989E+02  0.84892140060E+02  0.47000000000E+01 0.  1.
         11    1    4    4    0    0  0.11123451065E+03 -0.38973098484E+01 -0.19164217114E+02  0.11294057110E+03  0.00000000000E+00 0. -1.
        -12    1    4    4    0    0  0.20199662678E+02 -0.32645757263E+02 -0.40772100402E+02  0.56001214369E+02  0.00000000000E+00 0.  1.
</event>
<event>
12    1  0.1030140E-001  0.1863595E+03  0.7818608E-02  0.1162161E+00
         21   -1    0    0  501  502  0.00000000000E+00  0.00000000000E+00  0.18700762247E+02  0.18700762247E+02  0.00000000000E+00 0. -1.
         21   -1    0    0  502  503 -0.00000000000E+00 -0.00000000000E+00 -0.21888114288E+04  0.21888114288E+04  0.00000000000E+00 0. -1.
         -6    2    1    2    0  503  0.49830353602E+02 -0.40725553988E+02 -0.15289397469E+04  0.15402553755E+04  0.17489493193E+03 0.  0.
        -24    2    3    3    0    0  0.55636310941E+02 -0.91184377952E+02 -0.84048481293E+03  0.84991336739E+03  0.67290574521E+02 0.  0.
          6    2    1    2  501    0 -0.49830353602E+02  0.40725553988E+02 -0.64117091967E+03  0.66725681556E+03  0.17317584936E+03 0.  0.
         24    2    5    5    0    0 -0.30568236083E+02 -0.36036217990E+02 -0.46292717617E+03  0.47217652208E+03  0.80100383921E+02 0.  0.
          5    1    5    5  501    0 -0.19262117519E+02  0.76761771978E+02 -0.17824374350E+03  0.19508029348E+03  0.47000000000E+01 0. -1.
        -13    1    6    6    0    0 -0.41994281863E+02 -0.54581095189E+02 -0.30019147262E+03  0.30798950614E+03  0.00000000000E+00 0.  1.
         14    1    6    6    0    0  0.11426045780E+02  0.18544877199E+02 -0.16273570355E+03  0.16418701594E+03  0.00000000000E+00 0. -1.
         -5    1    3    3    0  503 -0.58059573385E+01  0.50458823965E+02 -0.68845493394E+03  0.69034200808E+03  0.47000000000E+01 0.  1.
         13    1    4    4    0    0 -0.60744174628E+01 -0.43091749398E+02 -0.41677941644E+03  0.41904519968E+03  0.00000000000E+00 0. -1.
        -14    1    4    4    0    0  0.61710728403E+02 -0.48092628554E+02 -0.42370539650E+03  0.43086816771E+03  0.00000000000E+00 0.  1.
</event>
<event>
12    1  0.1030140E-001  0.2340049E+03  0.7818608E-02  0.1125079E+00
         21   -1    0    0  501  502  0.00000000000E+00  0.00000000000E+00  0.51739423660E+03  0.51739423660E+03  0.00000000000E+00 0. -1.
         21   -1    0    0  502  503 -0.00000000000E+00 -0.00000000000E+00 -0.27912306650E+03  0.27912306650E+03  0.00000000000E+00 0.  1.
         -6    2    1    2    0  503 -0.53753632793E+02  0.14041426227E+03 -0.19815529658E+03  0.30131396902E+03  0.17005577991E+03 0.  0.
        -24    2    3    3    0    0  0.16042925116E+02  0.16617424653E+02 -0.57244535053E+02  0.10112618415E+03  0.80100275149E+02 0.  0.
          6    2    1    2  501    0  0.53753632793E+02 -0.14041426227E+03  0.43642646668E+03  0.49520333408E+03  0.17931163705E+03 0.  0.
         24    2    5    5    0    0  0.11523612461E+01 -0.44391038192E+01  0.90720098546E+02  0.11998190552E+03  0.78386783282E+02 0.  0.
          5    1    5    5  501    0  0.52601271546E+02 -0.13597515845E+03  0.34570636813E+03  0.37522142856E+03  0.47000000000E+01 0. -1.
        -11    1    6    6    0    0 -0.28112525083E+02 -0.21643987804E+02  0.18123592648E+02  0.39840191830E+02  0.00000000000E+00 0.  1.
         12    1    6    6    0    0  0.29264886329E+02  0.17204883985E+02  0.72596505898E+02  0.80141713692E+02  0.00000000000E+00 0. -1.
         -5    1    3    3    0  503 -0.69796557908E+02  0.12379683761E+03 -0.14091076153E+03  0.20018778487E+03  0.47000000000E+01 0.  1.
         13    1    4    4    0    0  0.47666726986E+02  0.78234435481E+01 -0.45224361193E+02  0.66170733529E+02  0.00000000000E+00 0. -1.
        -14    1    4    4    0    0 -0.31623801871E+02  0.87939811051E+01 -0.12020173860E+02  0.34955450620E+02  0.00000000000E+00 0.  1.
</event>
<event>
12    1  0.1030140E-001  0.1847513E+03  0.7818608E-02  0.1164152E+00
         21   -1    0    0  501  502  0.00000000000E+00  0.00000000000E+00  0.10345063367E+03  0.10345063367E+03  0.00000000000E+00 0. -1.
         21   -1    0    0  502  503 -0.00000000000E+00 -0.00000000000E+00 -0.33148955347E+03  0.33148955347E+03  0.00000000000E+00 0. -1.
         -6    2    1    2    0  503  0.58804901398E+02 -0.76740894982E+01 -0.14909549816E+03  0.23740789424E+03  0.17497466273E+03 0.  0.
        -24    2    3    3    0    0  0.79536381036E+02  0.79566365906E+01 -0.16959781502E+03  0.20399309448E+03  0.80376736439E+02 0.  0.
          6    2    1    2  501    0 -0.58804901398E+02  0.76740894982E+01 -0.78943421636E+02  0.19753229290E+03  0.17108487613E+03 0.  0.
         24    2    5    5    0    0 -0.36236641489E+01  0.39320400181E+02 -0.96129524949E+02  0.13147239530E+03  0.80528754781E+02 0.  0.
          5    1    5    5  501    0 -0.55181237249E+02 -0.31646310682E+02  0.17186103313E+02  0.66059897602E+02  0.47000000000E+01 0. -1.
        -11    1    6    6    0    0  0.20262642891E+02 -0.17289876948E+02 -0.18322422455E+02  0.32329950610E+02  0.00000000000E+00 0.  1.
         12    1    6    6    0    0 -0.23886307040E+02  0.56610277129E+02 -0.77807102494E+02  0.99142444690E+02  0.00000000000E+00 0. -1.
         -5    1    3    3    0  503 -0.20731479638E+02 -0.15630726089E+02  0.20502316868E+02  0.33414799760E+02  0.47000000000E+01 0.  1.
         13    1    4    4    0    0  0.81307680367E+02 -0.20764499147E+02 -0.11617669925E+03  0.14331478905E+03  0.00000000000E+00 0. -1.
        -14    1    4    4    0    0 -0.17712993316E+01  0.28721135738E+02 -0.53421115779E+02  0.60678305435E+02  0.00000000000E+00 0.  1.
</event>
<event>
12    1  0.1030140E-001  0.1783128E+03  0.7818608E-02  0.1169769E+00
         21   -1    0    0  503  502  0.00000000000E+00  0.00000000000E+00  0.23334345169E+03  0.23334345169E+03  0.00000000000E+00 0. -1.
         21   -1    0    0  501  503 -0.00000000000E+00 -0.00000000000E+00 -0.22657845069E+03  0.22657845069E+03  0.00000000000E+00 0. -1.
          6    2    1    2  501    0  0.42201324930E+02  0.85823103076E+01 -0.14260022518E+03  0.22832052958E+03  0.17303419353E+03 0.  0.
         24    2    3    3    0    0 -0.26735903580E+01 -0.51446785988E+02 -0.11628845330E+03  0.14874886526E+03  0.77131709886E+02 0.  0.
         -6    2    1    2    0  502 -0.42201324930E+02 -0.85823103076E+01  0.14936522618E+03  0.23160137280E+03  0.17168173233E+03 0.  0.
        -24    2    5    5    0    0 -0.30661632013E+02 -0.95083876337E+01  0.17914481975E+03  0.19930684811E+03  0.81239203248E+02 0.  0.
          5    1    3    3  501    0  0.44874915288E+02  0.60029096295E+02 -0.26311771874E+02  0.79571664324E+02  0.47000000000E+01 0. -1.
        -11    1    4    4    0    0 -0.23352316103E+02  0.62132719054E+01 -0.10165864952E+02  0.26216029931E+02  0.00000000000E+00 0.  1.
         12    1    4    4    0    0  0.20678725745E+02 -0.57660057893E+02 -0.10612258835E+03  0.12253283533E+03  0.00000000000E+00 0. -1.
         -5    1    5    5    0  502 -0.11539692918E+02  0.92607732608E+00 -0.29779593576E+02  0.32294524697E+02  0.47000000000E+01 0.  1.
         13    1    6    6    0    0 -0.58506390691E+02 -0.85118893420E+01  0.11297139242E+03  0.12750680577E+03  0.00000000000E+00 0. -1.
        -14    1    6    6    0    0  0.27844758678E+02 -0.99649829167E+00  0.66173427331E+02  0.71800042336E+02  0.00000000000E+00 0.  1.
</event>
<event>
12    1  0.1030140E-001  0.2026880E+03  0.7818608E-02  0.1147679E+00
         21   -1    0    0  503  502  0.00000000000E+00  0.00000000000E+00  0.16859800086E+03  0.16859800086E+03  0.00000000000E+00 0. -1.
         21   -1    0    0  501  503 -0.00000000000E+00 -0.00000000000E+00 -0.24269754537E+03  0.24269754537E+03  0.00000000000E+00 0.  1.
          6    2    1    2  501    0 -0.97476921548E+02 -0.41930993776E+02 -0.41439499707E+02  0.20599304675E+03  0.17162734251E+03 0.  0.
         24    2    3    3    0    0  0.55947442944E+01 -0.45377182403E+02 -0.58528549403E+02  0.10135189741E+03  0.68965398324E+02 0.  0.
         -6    2    1    2    0  502  0.97476921548E+02  0.41930993776E+02 -0.32660044800E+02  0.20530249949E+03  0.17269186228E+03 0.  0.
        -24    2    5    5    0    0  0.49354999951E+02 -0.16009507768E+02  0.36898754126E+02  0.10267045008E+03  0.80544912348E+02 0.  0.
          5    1    3    3  501    0 -0.10307166584E+03  0.34461886266E+01  0.17089049696E+02  0.10464114934E+03  0.47000000000E+01 0. -1.
        -13    1    4    4    0    0 -0.18872908946E+02 -0.48051699736E+01 -0.49401915451E+02  0.53102030101E+02  0.00000000000E+00 0.  1.
         14    1    4    4    0    0  0.24467653240E+02 -0.40572012429E+02 -0.91266339515E+01  0.48249867305E+02  0.00000000000E+00 0. -1.
         -5    1    5    5    0  502  0.48121921597E+02  0.57940501544E+02 -0.69558798927E+02  0.10263204941E+03  0.47000000000E+01 0.  1.
         11    1    6    6    0    0  0.14241136587E+02  0.26526976436E+02  0.36755738947E+02  0.47512890837E+02  0.00000000000E+00 0. -1.
        -12    1    6    6    0    0  0.35113863364E+02 -0.42536484204E+02  0.14301517952E+00  0.55157559247E+02  0.00000000000E+00 0.  1.
</event>
<event>
12    1  0.1030140E-001  0.2009885E+03  0.7818608E-02  0.1148951E+00
         21   -1    0    0  501  502  0.00000000000E+00  0.00000000000E+00  0.51644310953E+03  0.51644310953E+03  0.00000000000E+00 0. -1.
         21   -1    0    0  502  503 -0.00000000000E+00 -0.00000000000E+00 -0.80732435849E+02  0.80732435849E+02  0.00000000000E+00 0. -1.
         -6    2    1    2    0  503  0.52175368089E+02  0.88380962784E+02  0.27147169942E+03  0.33777694148E+03  0.17280889731E+03 0.  0.
        -24    2    3    3    0    0  0.36313947800E+02  0.10684458352E+03  0.11304582575E+03  0.17742315327E+03  0.77234375546E+02 0.  0.
          6    2    1    2  501    0 -0.52175368089E+02 -0.88380962784E+02  0.16423897426E+03  0.25939860390E+03  0.17256804867E+03 0.  0.
         24    2    5    5    0    0 -0.38126891938E+02  0.22097955133E+02  0.85805341342E+02  0.12310159088E+03  0.76481798907E+02 0.  0.
          5    1    5    5  501    0 -0.14048476150E+02 -0.11047891792E+03  0.78433632919E+02  0.13629701302E+03  0.47000000000E+01 0. -1.
        -13    1    6    6    0    0 -0.17750627483E+02  0.24723800323E+02 -0.42510530586E+01  0.30731458322E+02  0.00000000000E+00 0.  1.
         14    1    6    6    0    0 -0.20376264456E+02 -0.26258451902E+01  0.90056394400E+02  0.92370132557E+02  0.00000000000E+00 0. -1.
         -5    1    3    3    0  503  0.15861420289E+02 -0.18463620732E+02  0.15842587367E+03  0.16035378821E+03  0.47000000000E+01 0.  1.
         13    1    4    4    0    0  0.17181338111E+02  0.10404885311E+03  0.11718371002E+03  0.15764956108E+03  0.00000000000E+00 0. -1.
        -14    1    4    4    0    0  0.19132609689E+02  0.27957304014E+01 -0.41378842716E+01  0.19773592194E+02  0.00000000000E+00 0.  1.
</event>
<event>
12    1  0.1030140E-001  0.1811592E+03  0.7818608E-02  0.1166746E+00
         21   -1    0    0  501  502  0.00000000000E+00  0.00000000000E+00  0.12761210292E+03  0.12761210292E+03  0.00000000000E+00 0. -1.
         21   -1    0    0  502  503 -0.00000000000E+00 -0.00000000000E+00 -0.45324336377E+03  0.45324336377E+03  0.00000000000E+00 0. -1.
         -6    2    1    2    0  503  0.34072474342E+02 -0.47264441113E+02 -0.35394284696E+03  0.39749738055E+03  0.17127103587E+03 0.  0.
        -24    2    3    3    0    0  0.46345789176E+02  0.33282849889E+02 -0.19485441452E+03  0.21869659845E+03  0.81266715470E+02 0.  0.
          6    2    1    2  501    0 -0.34072474342E+02  0.47264441113E+02  0.28311586109E+02  0.18335808614E+03  0.17153361462E+03 0.  0.
         24    2    5    5    0    0  0.17369738289E+02  0.69123746473E+02 -0.22660074583E+02  0.10756672341E+03  0.77313135171E+02 0.  0.
          5    1    5    5  501    0 -0.51442212631E+02 -0.21859305360E+02  0.50971660693E+02  0.75791362733E+02  0.47000000000E+01 0. -1.
        -13    1    6    6    0    0 -0.26502907157E+02  0.52316918819E+01 -0.11093943986E+02  0.29203600478E+02  0.00000000000E+00 0.  1.
         14    1    6    6    0    0  0.43872645446E+02  0.63892054591E+02 -0.11566130598E+02  0.78363122930E+02  0.00000000000E+00 0. -1.
         -5    1    3    3    0  503 -0.12273314834E+02 -0.80547291002E+02 -0.15908843244E+03  0.17880078210E+03  0.47000000000E+01 0.  1.
         11    1    4    4    0    0  0.16389709565E+02  0.33095861260E+02 -0.18265476513E+03  0.18635107147E+03  0.00000000000E+00 0. -1.
        -12    1    4    4    0    0  0.29956079611E+02  0.18698862891E+00 -0.12199649391E+02  0.32345526981E+02  0.00000000000E+00 0.  1.
</event>
<event>
12    1  0.1030140E-001  0.1723435E+03  0.7818608E-02  0.1175429E+00
         21   -1    0    0  501  502  0.00000000000E+00  0.00000000000E+00  0.40002413620E+03  0.40002413620E+03  0.00000000000E+00 0.  1.
         21   -1    0    0  502  503 -0.00000000000E+00 -0.00000000000E+00 -0.76124926312E+02  0.76124926312E+02  0.00000000000E+00 0.  1.
         -6    2    1    2    0  503  0.12475645741E+02 -0.17362856478E+02  0.19934252846E+03  0.26350697701E+03  0.17100108993E+03 0.  0.
        -24    2    3    3    0    0  0.70673999690E+02 -0.16401270098E+02  0.92884335061E+02  0.14208453266E+03  0.79351741177E+02 0.  0.
          6    2    1    2  501    0 -0.12475645741E+02  0.17362856478E+02  0.12455668142E+03  0.21264208550E+03  0.17101221920E+03 0.  0.
         24    2    5    5    0    0  0.28376007924E+02 -0.18035130309E+02  0.70500535791E+01  0.83213446230E+02  0.75791230542E+02 0.  0.
          5    1    5    5  501    0 -0.40851653665E+02  0.35397986787E+02  0.11750662784E+03  0.12942863927E+03  0.47000000000E+01 0. -1.
        -11    1    6    6    0    0  0.12503202680E+01 -0.62691489781E+01 -0.32898069662E+02  0.33513408021E+02  0.00000000000E+00 0.  1.
         12    1    6    6    0    0  0.27125687656E+02 -0.11765981331E+02  0.39948123241E+02  0.49700038209E+02  0.00000000000E+00 0. -1.
         -5    1    3    3    0  503 -0.58198353949E+02 -0.96158637999E+00  0.10645819340E+03  0.12142244436E+03  0.47000000000E+01 0.  1.
         11    1    4    4    0    0  0.63768706570E+02 -0.41438884764E+01  0.10539707367E+03  0.12325649227E+03  0.00000000000E+00 0. -1.
        -12    1    4    4    0    0  0.69052931200E+01 -0.12257381622E+02 -0.12512738608E+02  0.18828040385E+02  0.00000000000E+00 0.  1.
</event>
<event>
12    1  0.1030140E-001  0.2427056E+03  0.7818608E-02  0.1118131E+00
         21   -1    0    0  503  502  0.00000000000E+00  0.00000000000E+00  0.53769826747E+02  0.53769826747E+02  0.00000000000E+00 0. -1.
         21   -1    0    0  501  503 -0.00000000000E+00 -0.00000000000E+00 -0.11018876210E+04  0.11018876210E+04  0.00000000000E+00 0.  1.
          6    2    1    2  501    0 -0.15636599868E+03 -0.69252877795E+02 -0.57954621084E+03  0.62831506759E+03  0.17221999604E+03 0.  0.
         24    2    3    3    0    0 -0.12714578497E+03 -0.11158697449E+02 -0.51516024609E+03  0.53668321103E+03  0.79675734625E+02 0.  0.
         -6    2    1    2    0  502  0.15636599868E+03  0.69252877795E+02 -0.46857158341E+03  0.52734238015E+03  0.17112676734E+03 0.  0.
        -24    2    5    5    0    0  0.85179571674E+02  0.10636393493E+03 -0.21513531534E+03  0.26145373820E+03  0.59211546376E+02 0.  0.
          5    1    3    3  501    0 -0.29220213712E+02 -0.58094180346E+02 -0.64385964752E+02  0.91631856559E+02  0.47000000000E+01 0. -1.
        -11    1    4    4    0    0 -0.35631063919E+02 -0.27097275822E+02 -0.79563118221E+02  0.91291428152E+02  0.00000000000E+00 0.  1.
         12    1    4    4    0    0 -0.91514721053E+02  0.15938578373E+02 -0.43559712787E+03  0.44539178288E+03  0.00000000000E+00 0. -1.
         -5    1    5    5    0  502  0.71186427010E+02 -0.37111057132E+02 -0.25343626806E+03  0.26588864196E+03  0.47000000000E+01 0.  1.
         11    1    6    6    0    0  0.59439400578E+02  0.27939062451E+02 -0.86392348206E+02  0.10852313753E+03  0.00000000000E+00 0. -1.
        -12    1    6    6    0    0  0.25740171095E+02  0.78424872476E+02 -0.12874296714E+03  0.15293060066E+03  0.00000000000E+00 0.  1.
</event>
<event>
12    1  0.1030140E-001  0.2065977E+03  0.7818608E-02  0.1144970E+00
         21   -1    0    0  501  502  0.00000000000E+00  0.00000000000E+00  0.31528488865E+03  0.31528488865E+03  0.00000000000E+00 0. -1.
         21   -1    0    0  502  503 -0.00000000000E+00 -0.00000000000E+00 -0.13792459785E+03  0.13792459785E+03  0.00000000000E+00 0.  1.
         -6    2    1    2    0  503  0.43264277839E+02 -0.10132866177E+03  0.46035425413E+02  0.20840582991E+03  0.17080525201E+03 0.  0.
        -24    2    3    3    0    0  0.62499763927E+01 -0.76909967339E+02  0.92593760977E+02  0.14393801034E+03  0.78678719924E+02 0.  0.
          6    2    1    2  501    0 -0.43264277839E+02  0.10132866177E+03  0.13132486539E+03  0.24480365659E+03  0.17476645724E+03 0.  0.
         24    2    5    5    0    0  0.77834860059E+01  0.11822829899E+03  0.58434994812E+02  0.15410362812E+03  0.79339562916E+02 0.  0.
          5    1    5    5  501    0 -0.51047763845E+02 -0.16899637221E+02  0.72889870575E+02  0.90700028469E+02  0.47000000000E+01 0. -1.
        -11    1    6    6    0    0 -0.91503111044E+00  0.43789717865E+02  0.65533962525E+02  0.78823073506E+02  0.00000000000E+00 0.  1.
         12    1    6    6    0    0  0.86985171164E+01  0.74438581127E+02 -0.70989677134E+01  0.75280554613E+02  0.00000000000E+00 0. -1.
         -5    1    3    3    0  503  0.37014301446E+02 -0.24418694433E+02 -0.46558335564E+02  0.64467819568E+02  0.47000000000E+01 0.  1.
         11    1    4    4    0    0 -0.38906574490E+01 -0.85593216896E+02  0.49783873656E+02  0.99094752991E+02  0.00000000000E+00 0. -1.
        -12    1    4    4    0    0  0.10140633842E+02  0.86832495576E+01  0.42809887321E+02  0.44843257353E+02  0.00000000000E+00 0.  1.
</event>
<event>
12    1  0.1030140E-001  0.1853063E+03  0.7818608E-02  0.1163033E+00
         21   -1    0    0  503  502  0.00000000000E+00  0.00000000000E+00  0.48042958768E+02  0.48042958768E+02  0.00000000000E+00 0.  1.
         21   -1    0    0  501  503 -0.00000000000E+00 -0.00000000000E+00 -0.12808070502E+04  0.12808070502E+04  0.00000000000E+00 0.  1.
          6    2    1    2  501    0  0.16984565896E+02  0.64459659379E+02 -0.10608831505E+04  0.10769454351E+04  0.17290138241E+03 0.  0.
         24    2    3    3    0    0 -0.37673186223E+02  0.65288742921E+02 -0.42441959579E+03  0.43812143454E+03  0.78335874258E+02 0.  0.
         -6    2    1    2    0  502 -0.16984565896E+02 -0.64459659379E+02 -0.17188094092E+03  0.25190457384E+03  0.17166634296E+03 0.  0.
        -24    2    5    5    0    0 -0.53978893818E+02  0.14786919941E+02 -0.78156055516E+02  0.12362735538E+03  0.77736606596E+02 0.  0.
          5    1    3    3  501    0  0.54657752119E+02 -0.82908354187E+00 -0.63646355469E+03  0.63882400056E+03  0.47000000000E+01 0. -1.
        -13    1    4    4    0    0 -0.15635490367E+02  0.28364916608E+02 -0.40769532097E+02  0.52069106009E+02  0.00000000000E+00 0.  1.
         14    1    4    4    0    0 -0.22037695856E+02  0.36923826313E+02 -0.38365006369E+03  0.38605232853E+03  0.00000000000E+00 0. -1.
         -5    1    5    5    0  502  0.36994327921E+02 -0.79246579319E+02 -0.93724885406E+02  0.12827721846E+03  0.47000000000E+01 0.  1.
         11    1    6    6    0    0 -0.52414088190E+02 -0.23154726464E+02 -0.40660574781E+02  0.70261371606E+02  0.00000000000E+00 0. -1.
        -12    1    6    6    0    0 -0.15648056281E+01  0.37941646405E+02 -0.37495480734E+02  0.53365983773E+02  0.00000000000E+00 0.  1.
</event>
<event>
12    1  0.1030140E-001  0.2006177E+03  0.7818608E-02  0.1149318E+00
         21   -1    0    0  503  502  0.00000000000E+00  0.00000000000E+00  0.17825862850E+03  0.17825862850E+03  0.00000000000E+00 0. -1.
         21   -1    0    0  501  503 -0.00000000000E+00 -0.00000000000E+00 -0.26144205893E+03  0.26144205893E+03  0.00000000000E+00 0.  1.
          6    2    1    2  501    0 -0.16890492588E+02  0.10225882370E+03  0.40250344178E+02  0.20415165944E+03  0.17121814764E+03 0.  0.
         24    2    3    3    0    0 -0.26980969350E+02  0.13513379419E+03  0.51433149748E+02  0.16768624368E+03  0.80524483159E+02 0.  0.
         -6    2    1    2    0  502  0.16890492588E+02 -0.10225882370E+03 -0.12343377461E+03  0.23554902799E+03  0.17177104561E+03 0.  0.
        -24    2    5    5    0    0  0.33372740131E+02 -0.35825420093E+01 -0.13702511859E+02  0.86983510201E+02  0.79068311127E+02 0.  0.
          5    1    3    3  501    0  0.10090476761E+02 -0.32874970489E+02 -0.11182805570E+02  0.36465415757E+02  0.47000000000E+01 0. -1.
        -13    1    4    4    0    0 -0.48364901400E+02  0.42480515492E+02  0.24249425054E+02  0.68788025843E+02  0.00000000000E+00 0.  1.
         14    1    4    4    0    0  0.21383932051E+02  0.92653278701E+02  0.27183724694E+02  0.98898217842E+02  0.00000000000E+00 0. -1.
         -5    1    5    5    0  502 -0.16482247543E+02 -0.98676281694E+02 -0.10973126275E+03  0.14856551779E+03  0.47000000000E+01 0.  1.
         11    1    6    6    0    0  0.28280374746E+02  0.29411827204E+02 -0.29202361529E+02  0.50175821809E+02  0.00000000000E+00 0. -1.
        -12    1    6    6    0    0  0.50923653850E+01 -0.32994369214E+02  0.15499849670E+02  0.36807688393E+02  0.00000000000E+00 0.  1.
</event>
<event>
12    1  0.1030140E-001  0.3781951E+03  0.7818608E-02  0.1051608E+00
         21   -1    0    0  503  502  0.00000000000E+00  0.00000000000E+00  0.76257011422E+03  0.76257011422E+03  0.00000000000E+00 0. -1.
         21   -1    0    0  501  503 -0.00000000000E+00 -0.00000000000E+00 -0.19866553723E+03  0.19866553723E+03  0.00000000000E+00 0.  1.
          6    2    1    2  501    0 -0.28159384224E+03 -0.18593868691E+03  0.16822989506E+03  0.41392367062E+03  0.17077242233E+03 0.  0.
         24    2    3    3    0    0 -0.24333710662E+03 -0.18530171437E+03  0.93029522445E+02  0.32941822940E+03  0.79449386469E+02 0.  0.
         -6    2    1    2    0  502  0.28159384224E+03  0.18593868691E+03  0.39567468192E+03  0.54731198082E+03  0.17065656494E+03 0.  0.
        -24    2    5    5    0    0  0.10168739716E+03  0.98784676677E+02  0.10454775612E+03  0.19412771247E+03  0.81587966961E+02 0.  0.
          5    1    3    3  501    0 -0.38256735627E+02 -0.63697254461E+00  0.75200372616E+02  0.84505441224E+02  0.47000000000E+01 0. -1.
        -11    1    4    4    0    0 -0.10215323684E+03 -0.35733720708E+02  0.14196736921E+02  0.10915003404E+03  0.00000000000E+00 0.  1.
         12    1    4    4    0    0 -0.14118386978E+03 -0.14956799366E+03  0.78832785524E+02  0.22026819536E+03  0.00000000000E+00 0. -1.
         -5    1    5    5    0  502  0.17990644509E+03  0.87154010236E+02  0.29112692580E+03  0.35318426835E+03  0.47000000000E+01 0.  1.
         13    1    6    6    0    0  0.10965715511E+03  0.87721749254E+02  0.11104189905E+03  0.17902541804E+03  0.00000000000E+00 0. -1.
        -14    1    6    6    0    0 -0.79697579520E+01  0.11062927422E+02 -0.64941429233E+01  0.15102294437E+02  0.00000000000E+00 0.  1.
</event>
<event>
12    1  0.1030140E-001  0.1795938E+03  0.7818608E-02  0.1171137E+00
         21   -1    0    0  503  502  0.00000000000E+00  0.00000000000E+00  0.34920578232E+02  0.34920578232E+02  0.00000000000E+00 0. -1.
         21   -1    0    0  501  503 -0.00000000000E+00 -0.00000000000E+00 -0.86623762197E+03  0.86623762197E+03  0.00000000000E+00 0. -1.
          6    2    1    2  501    0  0.50257734487E+02 -0.15703263870E+02 -0.44970703989E+03  0.48424203296E+03  0.17170175416E+03 0.  0.
         24    2    3    3    0    0  0.15198599110E+02 -0.71869875691E+02 -0.21564130912E+03  0.24094655914E+03  0.78471610898E+02 0.  0.
         -6    2    1    2    0  502 -0.50257734487E+02  0.15703263870E+02 -0.38161000384E+03  0.41691616724E+03  0.15943796004E+03 0.  0.
        -24    2    5    5    0    0 -0.30123022619E+02  0.27870330915E+02 -0.10322367741E+03  0.13749805601E+03  0.81033548549E+02 0.  0.
          5    1    3    3  501    0  0.35059135377E+02  0.56166611821E+02 -0.23406573077E+03  0.24329547381E+03  0.47000000000E+01 0. -1.
        -13    1    4    4    0    0 -0.29935446968E+01  0.15775128871E+02 -0.18904477252E+02  0.24803130063E+02  0.00000000000E+00 0.  1.
         14    1    4    4    0    0  0.18192143806E+02 -0.87645004562E+02 -0.19673683187E+03  0.21614342908E+03  0.00000000000E+00 0. -1.
         -5    1    5    5    0  502 -0.20134711868E+02 -0.12167067044E+02 -0.27838632643E+03  0.27941811123E+03  0.47000000000E+01 0.  1.
         13    1    6    6    0    0 -0.58118419829E+02  0.15213018676E+02 -0.70023865844E+02  0.92263364605E+02  0.00000000000E+00 0. -1.
        -14    1    6    6    0    0  0.27995397210E+02  0.12657312239E+02 -0.33199811570E+02  0.45234691403E+02  0.00000000000E+00 0.  1.
</event>
<event>
12    1  0.1030140E-001  0.2184597E+03  0.7818608E-02  0.1135336E+00
         21   -1    0    0  501  502  0.00000000000E+00  0.00000000000E+00  0.82672751506E+02  0.82672751506E+02  0.00000000000E+00 0.  1.
         21   -1    0    0  502  503 -0.00000000000E+00 -0.00000000000E+00 -0.12030739170E+04  0.12030739170E+04  0.00000000000E+00 0.  1.
         -6    2    1    2    0  503  0.10975738678E+03  0.76887844180E+02 -0.10263786807E+04  0.10493702123E+04  0.17252890095E+03 0.  0.
        -24    2    3    3    0    0  0.41594317359E+02  0.10291959867E+03 -0.79410813502E+03  0.80586343071E+03  0.80533271508E+02 0.  0.
          6    2    1    2  501    0 -0.10975738678E+03 -0.76887844180E+02 -0.94022484790E+02  0.23637645624E+03  0.17051444772E+03 0.  0.
         24    2    5    5    0    0 -0.26678373421E+02  0.16742457390E+01  0.57947418569E+01  0.84522272334E+02  0.79974350764E+02 0.  0.
          5    1    5    5  501    0 -0.83079013359E+02 -0.78562089919E+02 -0.99817226647E+02  0.15185418390E+03  0.47000000000E+01 0. -1.
        -11    1    6    6    0    0 -0.41394020474E+02  0.13129362689E+02 -0.23816172431E+02  0.49528326893E+02  0.00000000000E+00 0.  1.
         12    1    6    6    0    0  0.14715647053E+02 -0.11455116950E+02  0.29610914287E+02  0.34993945440E+02  0.00000000000E+00 0. -1.
         -5    1    3    3    0  503  0.68163069421E+02 -0.26031754491E+02 -0.23227054568E+03  0.24350678156E+03  0.47000000000E+01 0.  1.
         13    1    4    4    0    0  0.10751310093E+02  0.48055921731E+02 -0.13400575846E+03  0.14276731273E+03  0.00000000000E+00 0. -1.
        -14    1    4    4    0    0  0.30843007266E+02  0.54863676940E+02 -0.66010237656E+03  0.66309611798E+03  0.00000000000E+00 0.  1.
</event>
<event>
12    1  0.1030140E-001  0.3584822E+03  0.7818608E-02  0.1059300E+00
         21   -1    0    0  503  502  0.00000000000E+00  0.00000000000E+00  0.30872984701E+03  0.30872984701E+03  0.00000000000E+00 0. -1.
         21   -1    0    0  501  503 -0.00000000000E+00 -0.00000000000E+00 -0.42631804870E+03  0.42631804870E+03  0.00000000000E+00 0.  1.
          6    2    1    2  501    0 -0.18273925027E+03 -0.25474000623E+03  0.11661534141E+01  0.35848409941E+03  0.17384874246E+03 0.  0.
         24    2    3    3    0    0 -0.27100646107E+02 -0.14195433500E+03 -0.15789552708E+02  0.16547226374E+03  0.79033422341E+02 0.  0.
         -6    2    1    2    0  502  0.18273925027E+03  0.25474000623E+03 -0.11875435511E+03  0.37656379630E+03  0.17149808006E+03 0.  0.
        -24    2    5    5    0    0  0.16380113384E+02  0.10436730818E+03 -0.39074222749E+02  0.13853370527E+03  0.80647067406E+02 0.  0.
          5    1    3    3  501    0 -0.15563860416E+03 -0.11278567123E+03  0.16955706122E+02  0.19301183567E+03  0.47000000000E+01 0. -1.
        -13    1    4    4    0    0 -0.10200178382E+02 -0.10795879779E+03 -0.45165531075E+02  0.11746944648E+03  0.00000000000E+00 0.  1.
         14    1    4    4    0    0 -0.16900467726E+02 -0.33995537212E+02  0.29375978367E+02  0.48002817258E+02  0.00000000000E+00 0. -1.
         -5    1    5    5    0  502  0.16635913689E+03  0.15037269805E+03 -0.79680132359E+02  0.23803009103E+03  0.47000000000E+01 0.  1.
         11    1    6    6    0    0  0.24444451334E+01  0.47655802331E+00  0.18686453046E+02  0.18851682869E+02  0.00000000000E+00 0. -1.
        -12    1    6    6    0    0  0.13935668250E+02  0.10389075016E+03 -0.57760675795E+02  0.11968202240E+03  0.00000000000E+00 0.  1.
</event>
<event>
12    1  0.1030140E-001  0.1803856E+03  0.7818608E-02  0.1167498E+00
         21   -1    0    0  503  502  0.00000000000E+00  0.00000000000E+00  0.17613689748E+03  0.17613689748E+03  0.00000000000E+00 0.  1.
         21   -1    0    0  501  503 -0.00000000000E+00 -0.00000000000E+00 -0.22847925095E+03  0.22847925095E+03  0.00000000000E+00 0.  1.
          6    2    1    2  501    0 -0.11319652932E+01 -0.49875727378E+02 -0.11499864930E+03  0.21392444047E+03  0.17334966790E+03 0.  0.
         24    2    3    3    0    0  0.60436064898E+02 -0.45928958423E+02 -0.37952544138E+02  0.11510950411E+03  0.77767700023E+02 0.  0.
         -6    2    1    2    0  502  0.11319652932E+01  0.49875727378E+02  0.62656295823E+02  0.19069170796E+03  0.17305677263E+03 0.  0.
        -24    2    5    5    0    0 -0.53942526119E+02  0.38380858577E+02  0.79447545740E+02  0.13179036938E+03  0.81693956375E+02 0.  0.
          5    1    3    3  501    0 -0.61568030191E+02 -0.39467689547E+01 -0.77046105164E+02  0.98814936360E+02  0.47000000000E+01 0. -1.
        -11    1    4    4    0    0  0.31998740374E+02 -0.57717625568E+02 -0.49220587424E+02  0.82328062731E+02  0.00000000000E+00 0.  1.
         12    1    4    4    0    0  0.28437324524E+02  0.11788667144E+02  0.11268043286E+02  0.32781441375E+02  0.00000000000E+00 0. -1.
         -5    1    5    5    0  502  0.55074491412E+02  0.11494868801E+02 -0.16791249917E+02  0.58901338583E+02  0.47000000000E+01 0.  1.
         13    1    6    6    0    0 -0.49771524328E+02 -0.11797039576E+02  0.22805307713E+02  0.56004078750E+02  0.00000000000E+00 0. -1.
        -14    1    6    6    0    0 -0.41710017908E+01  0.50177898153E+02  0.56642238027E+02  0.75786290631E+02  0.00000000000E+00 0.  1.
</event>
<event>
12    1  0.1030140E-001  0.1921264E+03  0.7818608E-02  0.1156691E+00
         21   -1    0    0  503  502  0.00000000000E+00  0.00000000000E+00  0.37537734874E+03  0.37537734874E+03  0.00000000000E+00 0.  1.
         21   -1    0    0  501  503 -0.00000000000E+00 -0.00000000000E+00 -0.11849807102E+03  0.11849807102E+03  0.00000000000E+00 0.  1.
          6    2    1    2  501    0  0.77290211712E+02  0.34719576724E+02  0.25969045097E+02  0.19387347956E+03  0.17243349134E+03 0.  0.
         24    2    3    3    0    0  0.24417532913E+02 -0.44488538077E+02 -0.15147819598E+01  0.94641950476E+02  0.79870885132E+02 0.  0.
         -6    2    1    2    0  502 -0.77290211712E+02 -0.34719576724E+02  0.23091023263E+03  0.30000194020E+03  0.17176263493E+03 0.  0.
        -24    2    5    5    0    0  0.77635722737E+01  0.25105898981E+02  0.79011166830E+02  0.11585892539E+03  0.80560206621E+02 0.  0.
          5    1    3    3  501    0  0.52872678798E+02  0.79208114801E+02  0.27483827057E+02  0.99231529079E+02  0.47000000000E+01 0. -1.
        -13    1    4    4    0    0 -0.37175106668E+01 -0.14063410987E+02 -0.37207368266E+02  0.39949814360E+02  0.00000000000E+00 0.  1.
         14    1    4    4    0    0  0.28135043580E+02 -0.30425127090E+02  0.35692586306E+02  0.54692136116E+02  0.00000000000E+00 0. -1.
         -5    1    5    5    0  502 -0.85053783986E+02 -0.59825475705E+02  0.15189906580E+03  0.18414301481E+03  0.47000000000E+01 0.  1.
         11    1    6    6    0    0  0.34954103861E+02 -0.89427306165E+01  0.16534262116E+02  0.39688079209E+02  0.00000000000E+00 0. -1.
        -12    1    6    6    0    0 -0.27190531587E+02  0.34048629597E+02  0.62476904714E+02  0.76170846182E+02  0.00000000000E+00 0.  1.
</event>
<event>
12    1  0.1030140E-001  0.2079776E+03  0.7818608E-02  0.1143417E+00
         21   -1    0    0  501  502  0.00000000000E+00  0.00000000000E+00  0.64924475981E+02  0.64924475981E+02  0.00000000000E+00 0. -1.
         21   -1    0    0  502  503 -0.00000000000E+00 -0.00000000000E+00 -0.13392296824E+04  0.13392296824E+04  0.00000000000E+00 0.  1.
         -6    2    1    2    0  503 -0.11507645323E+03  0.55639911595E+01 -0.11353501246E+04  0.11540278301E+04  0.17171714838E+03 0.  0.
        -24    2    3    3    0    0 -0.26449757208E+02 -0.47814654721E+02 -0.69438230995E+03  0.70106130300E+03  0.79588487422E+02 0.  0.
          6    2    1    2  501    0  0.11507645323E+03 -0.55639911595E+01 -0.13895508177E+03  0.25012632827E+03  0.17315056239E+03 0.  0.
         24    2    5    5    0    0  0.63111300989E+02  0.20734977691E+02 -0.15745410084E+03  0.18883753226E+03  0.80342044443E+02 0.  0.
          5    1    5    5  501    0  0.51965152240E+02 -0.26298968851E+02  0.18499019069E+02  0.61288796011E+02  0.47000000000E+01 0. -1.
        -11    1    6    6    0    0  0.18811078309E+02  0.47510074515E+02 -0.93583307352E+02  0.10662504050E+03  0.00000000000E+00 0.  1.
         12    1    6    6    0    0  0.44300222680E+02 -0.26775096824E+02 -0.63870793487E+02  0.82212491753E+02  0.00000000000E+00 0. -1.
         -5    1    3    3    0  503 -0.88626696022E+02  0.53378645881E+02 -0.44096781470E+03  0.45296652711E+03  0.47000000000E+01 0.  1.
         11    1    4    4    0    0 -0.11993085096E+02  0.52913846240E+01 -0.46439587207E+03  0.46458084209E+03  0.00000000000E+00 0. -1.
        -12    1    4    4    0    0 -0.14456672112E+02 -0.53106039345E+02 -0.22998643788E+03  0.23648046091E+03  0.00000000000E+00 0.  1.
</event>
<event>
12    1  0.1030140E-001  0.1945063E+03  0.7818608E-02  0.1156037E+00
         21   -1    0    0  503  502  0.00000000000E+00  0.00000000000E+00  0.46430318755E+03  0.46430318755E+03  0.00000000000E+00 0. -1.
         21   -1    0    0  501  503 -0.00000000000E+00 -0.00000000000E+00 -0.12285255502E+03  0.12285255502E+03  0.00000000000E+00 0.  1.
          6    2    1    2  501    0  0.25524295596E+02 -0.83367521202E+02 -0.35388022481E+01  0.19453851866E+03  0.17387086836E+03 0.  0.
         24    2    3    3    0    0  0.37664328452E+02 -0.11145922859E+03  0.36624265541E+02  0.14382672086E+03  0.74182393661E+02 0.  0.
         -6    2    1    2    0  502 -0.25524295596E+02  0.83367521202E+02  0.34498943477E+03  0.39261722391E+03  0.16591847743E+03 0.  0.
        -24    2    5    5    0    0 -0.41394792429E+02  0.11374970739E+03  0.31536866498E+03  0.34707131400E+03  0.79677960417E+02 0.  0.
          5    1    3    3  501    0 -0.12140032856E+02  0.28091707392E+02 -0.40163067789E+02  0.50711797800E+02  0.47000000000E+01 0. -1.
        -11    1    4    4    0    0  0.34141325898E+01 -0.61570192322E+02 -0.15916809272E+02  0.63685867359E+02  0.00000000000E+00 0.  1.
         12    1    4    4    0    0  0.34250195862E+02 -0.49889036272E+02  0.52541074813E+02  0.80140853497E+02  0.00000000000E+00 0. -1.
         -5    1    5    5    0  502  0.15870496833E+02 -0.30382186185E+02  0.29620769793E+02  0.45545909918E+02  0.47000000000E+01 0.  1.
         11    1    6    6    0    0 -0.20635911233E+02  0.11611300082E+03  0.29581085284E+03  0.31845271305E+03  0.00000000000E+00 0. -1.
        -12    1    6    6    0    0 -0.20758881196E+02 -0.23632934282E+01  0.19557812138E+02  0.28618600944E+02  0.00000000000E+00 0.  1.
</event>
<event>
12    1  0.1030140E-001  0.2182999E+03  0.7818608E-02  0.1135408E+00
         21   -1    0    0  503  502  0.00000000000E+00  0.00000000000E+00  0.80816786682E+03  0.80816786682E+03  0.00000000000E+00 0.  1.
         21   -1    0    0  501  503 -0.00000000000E+00 -0.00000000000E+00 -0.64362123065E+03  0.64362123065E+03  0.00000000000E+00 0. -1.
          6    2    1    2  501    0  0.95704056948E+01  0.13226741939E+03 -0.60980485988E+03  0.64725501639E+03  0.17172893238E+03 0.  0.
         24    2    3    3    0    0  0.77379382968E+01  0.41069694186E+00 -0.18668675799E+03  0.20403884866E+03  0.81974763149E+02 0.  0.
         -6    2    1    2    0  502 -0.95704056948E+01 -0.13226741939E+03  0.77435149605E+03  0.80453408108E+03  0.17340295639E+03 0.  0.
        -24    2    5    5    0    0  0.35058673862E+02 -0.15036800447E+03  0.58968085849E+03  0.61362907774E+03  0.70551277795E+02 0.  0.
          5    1    3    3  501    0  0.18324673980E+01  0.13185672244E+03 -0.42311810189E+03  0.44321616773E+03  0.47000000000E+01 0. -1.
        -13    1    4    4    0    0 -0.18833683177E+01 -0.93517734321E+01 -0.18975354789E+03  0.18999318851E+03  0.00000000000E+00 0.  1.
         14    1    4    4    0    0  0.96213066145E+01  0.97624703740E+01  0.30667899028E+01  0.14045660151E+02  0.00000000000E+00 0. -1.
         -5    1    5    5    0  502 -0.44629079557E+02  0.18100585080E+02  0.18467063757E+03  0.19090500334E+03  0.47000000000E+01 0.  1.
         11    1    6    6    0    0  0.14350138574E+01  0.21535230930E+01 -0.90410416023E+00  0.27412279758E+01  0.00000000000E+00 0. -1.
        -12    1    6    6    0    0  0.33623660005E+02 -0.15252152756E+03  0.59058496265E+03  0.61088784976E+03  0.00000000000E+00 0.  1.
</event>
<event>
12    1  0.1030140E-001  0.2572224E+03  0.7818608E-02  0.1109318E+00
         21   -1    0    0  503  502  0.00000000000E+00  0.00000000000E+00  0.35985266074E+02  0.35985266074E+02  0.00000000000E+00 0. -1.
         21   -1    0    0  501  503 -0.00000000000E+00 -0.00000000000E+00 -0.21980073426E+04  0.21980073426E+04  0.00000000000E+00 0.  1.
          6    2    1    2  501    0 -0.18559462777E+03  0.46520368219E+02 -0.62077865481E+03  0.67195943695E+03  0.17191229193E+03 0.  0.
         24    2    3    3    0    0 -0.51000373441E+02 -0.24705352600E+02 -0.33431861062E+03  0.34750579847E+03  0.76026008867E+02 0.  0.
         -6    2    1    2    0  502  0.18559462777E+03 -0.46520368219E+02 -0.15412434217E+04  0.15620331717E+04  0.16705338692E+03 0.  0.
        -24    2    5    5    0    0  0.18432885116E+03 -0.15924985746E+02 -0.14775876656E+04  0.14912389283E+04  0.79356796338E+02 0.  0.
          5    1    3    3  501    0 -0.13459425433E+03  0.71225720819E+02 -0.28646004419E+03  0.32445363848E+03  0.47000000000E+01 0. -1.
        -13    1    4    4    0    0 -0.49237604760E+02  0.14736749268E+02 -0.23649525949E+03  0.24201553930E+03  0.00000000000E+00 0.  1.
         14    1    4    4    0    0 -0.17627686813E+01 -0.39442101868E+02 -0.97823351133E+02  0.10549025917E+03  0.00000000000E+00 0. -1.
         -5    1    5    5    0  502  0.12657766088E+01 -0.30595382473E+02 -0.63655756078E+02  0.70794243417E+02  0.47000000000E+01 0.  1.
         11    1    6    6    0    0  0.18195140154E+03  0.11265932123E+01 -0.12745198482E+04  0.12874425911E+04  0.00000000000E+00 0. -1.
        -12    1    6    6    0    0  0.23774496196E+01 -0.17051578958E+02 -0.20306781738E+03  0.20379633723E+03  0.00000000000E+00 0.  1.
</event>
<event>
12    1  0.1030140E-001  0.1769263E+03  0.7818608E-02  0.1171041E+00
         21   -1    0    0  503  502  0.00000000000E+00  0.00000000000E+00  0.11042581313E+03  0.11042581313E+03  0.00000000000E+00 0.  1.
         21   -1    0    0  501  503 -0.00000000000E+00 -0.00000000000E+00 -0.51313227931E+03  0.51313227931E+03  0.00000000000E+00 0.  1.
          6    2    1    2  501    0 -0.70256070104E+00  0.40739324117E+02 -0.41089372820E+03  0.44736627545E+03  0.17217067814E+03 0.  0.
         24    2    3    3    0    0 -0.34675207250E+02  0.84059062540E+02 -0.27036333342E+03  0.29636421484E+03  0.80418404523E+02 0.  0.
         -6    2    1    2    0  502  0.70256070104E+00 -0.40739324117E+02  0.81872620191E+01  0.17619181700E+03  0.17122014775E+03 0.  0.
        -24    2    5    5    0    0 -0.20679960764E+01 -0.71380095228E+02 -0.45830296944E+02  0.11384986070E+03  0.75907707516E+02 0.  0.
          5    1    3    3  501    0  0.33972646549E+02 -0.43319738423E+02 -0.14053039478E+03  0.15100206060E+03  0.47000000000E+01 0. -1.
        -11    1    4    4    0    0 -0.33078689239E+01  0.43289990112E+02 -0.22046468732E+03  0.22469900666E+03  0.00000000000E+00 0.  1.
         12    1    4    4    0    0 -0.31367338326E+02  0.40769072429E+02 -0.49898646107E+02  0.71665208182E+02  0.00000000000E+00 0. -1.
         -5    1    5    5    0  502  0.27705567775E+01  0.30640771111E+02  0.54017558963E+02  0.62341956301E+02  0.47000000000E+01 0.  1.
         11    1    6    6    0    0 -0.14487843377E+02  0.88915755950E+01 -0.24587009155E+02  0.29891114758E+02  0.00000000000E+00 0. -1.
        -12    1    6    6    0    0  0.12419847300E+02 -0.80271670823E+02 -0.21243287789E+02  0.83958745939E+02  0.00000000000E+00 0.  1.
</event>
<event>
12    1  0.1030140E-001  0.2149303E+03  0.7818608E-02  0.1137930E+00
         21   -1    0    0  501  502  0.00000000000E+00  0.00000000000E+00  0.22923327070E+03  0.22923327070E+03  0.00000000000E+00 0. -1.
         21   -1    0    0  502  503 -0.00000000000E+00 -0.00000000000E+00 -0.20067717498E+03  0.20067717498E+03  0.00000000000E+00 0. -1.
         -6    2    1    2    0  503  0.11102913594E+03 -0.63365338130E+02  0.78692699068E+01  0.21398687193E+03  0.17142292976E+03 0.  0.
        -24    2    3    3    0    0  0.12364852593E+03 -0.93427622808E+02 -0.13337935624E+02  0.17481002252E+03  0.79768194017E+02 0.  0.
          6    2    1    2  501    0 -0.11102913594E+03  0.63365338130E+02  0.20686825814E+02  0.21592357374E+03  0.17277849933E+03 0.  0.
         24    2    5    5    0    0  0.10662945345E+02  0.21092072689E+02  0.24727752226E+02  0.86949116170E+02  0.79938183235E+02 0.  0.
          5    1    5    5  501    0 -0.12169208129E+03  0.42273265441E+02 -0.40409264116E+01  0.12897445757E+03  0.47000000000E+01 0. -1.
        -11    1    6    6    0    0  0.98673543440E+01  0.50654397627E+02  0.60219652112E+01  0.51956681435E+02  0.00000000000E+00 0.  1.
         12    1    6    6    0    0  0.79559100134E+00 -0.29562324939E+02  0.18705787014E+02  0.34992434735E+02  0.00000000000E+00 0. -1.
         -5    1    3    3    0  503 -0.12619389989E+02  0.30062284678E+02  0.21207205530E+02  0.39176849416E+02  0.47000000000E+01 0.  1.
         11    1    4    4    0    0  0.69704335695E+02 -0.46534003185E+02  0.32507635539E+02  0.89893571714E+02  0.00000000000E+00 0. -1.
        -12    1    4    4    0    0  0.53944190237E+02 -0.46893619624E+02 -0.45845571163E+02  0.84916450803E+02  0.00000000000E+00 0.  1.
</event>
<event>
12    1  0.1030140E-001  0.3184568E+03  0.7818608E-02  0.1076400E+00
         21   -1    0    0  503  502  0.00000000000E+00  0.00000000000E+00  0.18289606621E+03  0.18289606621E+03  0.00000000000E+00 0. -1.
         21   -1    0    0  501  503 -0.00000000000E+00 -0.00000000000E+00 -0.69696643348E+03  0.69696643348E+03  0.00000000000E+00 0.  1.
          6    2    1    2  501    0 -0.22981444127E+03  0.13823927152E+03 -0.45645314669E+03  0.55656464019E+03  0.17172638115E+03 0.  0.
         24    2    3    3    0    0 -0.23193575964E+03  0.80958882710E+02 -0.34417116400E+03  0.43041046242E+03  0.80317113615E+02 0.  0.
         -6    2    1    2    0  502  0.22981444127E+03 -0.13823927152E+03 -0.57617220579E+02  0.32329785950E+03  0.17110519643E+03 0.  0.
        -24    2    5    5    0    0  0.24447570015E+03 -0.10145661483E+03 -0.48802934010E+02  0.28246040129E+03  0.85675779982E+02 0.  0.
          5    1    3    3  501    0  0.21213183667E+01  0.57280388807E+02 -0.11228198268E+03  0.12615417777E+03  0.47000000000E+01 0. -1.
        -13    1    4    4    0    0 -0.82783010540E+02 -0.65435089315E+01 -0.84879700139E+02  0.11874513817E+03  0.00000000000E+00 0.  1.
         14    1    4    4    0    0 -0.14915274910E+03  0.87502391641E+02 -0.25929146386E+03  0.31166532425E+03  0.00000000000E+00 0. -1.
         -5    1    5    5    0  502 -0.14661258878E+02 -0.36782656692E+02 -0.88142865690E+01  0.40837458208E+02  0.47000000000E+01 0.  1.
         11    1    6    6    0    0  0.86445562557E+02 -0.81704990113E+02 -0.20020809251E+02  0.12062078386E+03  0.00000000000E+00 0. -1.
        -12    1    6    6    0    0  0.15803013759E+03 -0.19751624712E+02 -0.28782124760E+02  0.16183961744E+03  0.00000000000E+00 0.  1.
</event>
<event>
12    1  0.1030140E-001  0.1874429E+03  0.7818608E-02  0.1160839E+00
         21   -1    0    0  501  502  0.00000000000E+00  0.00000000000E+00  0.20354054672E+04  0.20354054672E+04  0.00000000000E+00 0.  1.
         21   -1    0    0  502  503 -0.00000000000E+00 -0.00000000000E+00 -0.28633801827E+02  0.28633801827E+02  0.00000000000E+00 0.  1.
         -6    2    1    2    0  503 -0.35432833369E+02  0.65499206197E+02  0.35207336317E+03  0.39875811531E+03  0.17177528860E+03 0.  0.
        -24    2    3    3    0    0  0.37889329262E+02  0.13235305253E+02  0.12119790559E+03  0.15090085439E+03  0.80444769622E+02 0.  0.
          6    2    1    2  501    0  0.35432833369E+02 -0.65499206197E+02  0.16546983022E+04  0.16652811537E+04  0.17201516774E+03 0.  0.
         24    2    5    5    0    0  0.73591544866E+02 -0.42345518724E+02  0.70246521657E+03  0.71199099859E+03  0.79151393816E+02 0.  0.
          5    1    5    5  501    0 -0.38158711497E+02 -0.23153687473E+02  0.95223308559E+03  0.95329015509E+03  0.47000000000E+01 0. -1.
        -13    1    6    6    0    0  0.13223437577E+02 -0.20742408924E+02  0.47570024298E+03  0.47633583531E+03  0.00000000000E+00 0.  1.
         14    1    6    6    0    0  0.60368107289E+02 -0.21603109800E+02  0.22676497359E+03  0.23565516328E+03  0.00000000000E+00 0. -1.
         -5    1    3    3    0  503 -0.73322162631E+02  0.52263900945E+02  0.23087545759E+03  0.24785726092E+03  0.47000000000E+01 0.  1.
         13    1    4    4    0    0  0.32141671721E+02  0.52826895862E+01  0.13220300937E+03  0.13615663611E+03  0.00000000000E+00 0. -1.
        -14    1    4    4    0    0  0.57476575412E+01  0.79526156664E+01 -0.11005103788E+02  0.14744218274E+02  0.00000000000E+00 0.  1.
</event>
<event>
12    1  0.1030140E-001  0.1926280E+03  0.7818608E-02  0.1156610E+00
         21   -1    0    0  501  502  0.00000000000E+00  0.00000000000E+00  0.77827080299E+03  0.77827080299E+03  0.00000000000E+00 0. -1.
         21   -1    0    0  502  503 -0.00000000000E+00 -0.00000000000E+00 -0.47215968578E+02  0.47215968578E+02  0.00000000000E+00 0. -1.
         -6    2    1    2    0  503  0.77508367029E+02 -0.28394029750E+02  0.34963030168E+03  0.39918279974E+03  0.17404537301E+03 0.  0.
        -24    2    3    3    0    0  0.31200903446E+02  0.49240226291E+02  0.14210196471E+03  0.17277264196E+03  0.79115871835E+02 0.  0.
          6    2    1    2  501    0 -0.77508367029E+02  0.28394029750E+02  0.38142453273E+03  0.42630397184E+03  0.17157107667E+03 0.  0.
         24    2    5    5    0    0  0.19887241873E+02 -0.14033519499E+02  0.20621424131E+03  0.22134851865E+03  0.76670798437E+02 0.  0.
          5    1    5    5  501    0 -0.97395608902E+02  0.42427549249E+02  0.17521029143E+03  0.20495545319E+03  0.47000000000E+01 0. -1.
        -13    1    6    6    0    0 -0.11284312820E+02 -0.21235927135E+02  0.17003276231E+02  0.29451854265E+02  0.00000000000E+00 0.  1.
         14    1    6    6    0    0  0.31171554693E+02  0.72024076362E+01  0.18921096508E+03  0.19189666439E+03  0.00000000000E+00 0. -1.
         -5    1    3    3    0  503  0.46307463583E+02 -0.77634256041E+02  0.20752833697E+03  0.22641015777E+03  0.47000000000E+01 0.  1.
         13    1    4    4    0    0  0.14065507405E+02 -0.86913086282E+01 -0.18697982081E+01  0.16639515906E+02  0.00000000000E+00 0. -1.
        -14    1    4    4    0    0  0.17135396041E+02  0.57931534919E+02  0.14397176292E+03  0.15613312606E+03  0.00000000000E+00 0.  1.
</event>
<event>
12    1  0.1030140E-001  0.2313529E+03  0.7818608E-02  0.1125764E+00
         21   -1    0    0  503  502  0.00000000000E+00  0.00000000000E+00  0.26464416213E+03  0.26464416213E+03  0.00000000000E+00 0. -1.
         21   -1    0    0  501  503 -0.00000000000E+00 -0.00000000000E+00 -0.25439924253E+03  0.25439924253E+03  0.00000000000E+00 0. -1.
          6    2    1    2  501    0 -0.29881697756E+02  0.15091283870E+03 -0.11278959592E+03  0.25700970630E+03  0.17223500063E+03 0.  0.
         24    2    3    3    0    0 -0.36841385531E+02  0.12199736042E+03 -0.14678518604E+03  0.21159679751E+03  0.83586304124E+02 0.  0.
         -6    2    1    2    0  502  0.29881697756E+02 -0.15091283870E+03  0.12303451552E+03  0.26203369836E+03  0.17279052729E+03 0.  0.
        -24    2    5    5    0    0  0.31925562341E+02 -0.85013705028E+02 -0.12060933631E+01  0.12130455391E+03  0.80416220780E+02 0.  0.
          5    1    3    3  501    0  0.69596877745E+01  0.28915478279E+02  0.33995590117E+02  0.45412908797E+02  0.47000000000E+01 0. -1.
        -13    1    4    4    0    0 -0.62581897374E+02  0.10199019054E+03 -0.11904652888E+03  0.16879149529E+03  0.00000000000E+00 0.  1.
         14    1    4    4    0    0  0.25740511843E+02  0.20007169885E+02 -0.27738657160E+02  0.42805302216E+02  0.00000000000E+00 0. -1.
         -5    1    5    5    0  502 -0.20438645846E+01 -0.65899133671E+02  0.12424060889E+03  0.14072914445E+03  0.47000000000E+01 0.  1.
         11    1    6    6    0    0 -0.25503828825E+02 -0.20070926601E+02 -0.10509659111E+02  0.34113638240E+02  0.00000000000E+00 0. -1.
        -12    1    6    6    0    0  0.57429391166E+02 -0.64942778427E+02  0.93035657482E+01  0.87190915669E+02  0.00000000000E+00 0.  1.
</event>
<event>
12    1  0.1030140E-001  0.1780104E+03  0.7818608E-02  0.1170517E+00
         21   -1    0    0  503  502  0.00000000000E+00  0.00000000000E+00  0.14035784397E+04  0.14035784397E+04  0.00000000000E+00 0.  1.
         21   -1    0    0  501  503 -0.00000000000E+00 -0.00000000000E+00 -0.32627663014E+02  0.32627663014E+02  0.00000000000E+00 0.  1.
          6    2    1    2  501    0 -0.58975206901E+01  0.46447182592E+02  0.28329408053E+03  0.33457918681E+03  0.17174275723E+03 0.  0.
         24    2    3    3    0    0  0.47767458909E+02  0.24690014290E+02  0.85711939583E+02  0.12863235671E+03  0.79425560549E+02 0.  0.
         -6    2    1    2    0  502  0.58975206901E+01 -0.46447182592E+02  0.10876566962E+04  0.11016269159E+04  0.16850119178E+03 0.  0.
        -24    2    5    5    0    0 -0.12172562985E+02  0.29202037847E+02  0.74417100028E+03  0.74941413114E+03  0.82644612637E+02 0.  0.
          5    1    3    3  501    0 -0.53664979600E+02  0.21757168302E+02  0.19758214094E+03  0.20594683010E+03  0.47000000000E+01 0. -1.
        -13    1    4    4    0    0  0.89702226300E+01  0.48734808759E+02  0.36742383961E+02  0.61689134034E+02  0.00000000000E+00 0.  1.
         14    1    4    4    0    0  0.38797236280E+02 -0.24044794468E+02  0.48969555622E+02  0.66943222673E+02  0.00000000000E+00 0. -1.
         -5    1    5    5    0  502  0.18070083675E+02 -0.75649220439E+02  0.34348569589E+03  0.35221278478E+03  0.47000000000E+01 0.  1.
         13    1    6    6    0    0 -0.14220953653E+02 -0.19923485315E+01  0.20284319587E+02  0.24852738211E+02  0.00000000000E+00 0. -1.
        -14    1    6    6    0    0  0.20483906680E+01  0.31194386378E+02  0.72388668069E+03  0.72456139293E+03  0.00000000000E+00 0.  1.
</event>
<event>
12    1  0.1030140E-001  0.3122904E+03  0.7818608E-02  0.1079998E+00
         21   -1    0    0  503  502  0.00000000000E+00  0.00000000000E+00  0.38408722901E+03  0.38408722901E+03  0.00000000000E+00 0.  1.
         21   -1    0    0  501  503 -0.00000000000E+00 -0.00000000000E+00 -0.39557862924E+03  0.39557862924E+03  0.00000000000E+00 0. -1.
          6    2    1    2  501    0  0.13866583456E+03 -0.21078489737E+03 -0.24316328135E+03  0.39579501368E+03  0.18402941292E+03 0.  0.
         24    2    3    3    0    0 -0.10679390823E+02 -0.66410456084E+02 -0.85623796609E+02  0.13504847987E+03  0.79889043699E+02 0.  0.
         -6    2    1    2    0  502 -0.13866583456E+03  0.21078489737E+03  0.23167188112E+03  0.38387084457E+03  0.17328149980E+03 0.  0.
        -24    2    5    5    0    0 -0.78186559253E+02  0.83526431329E+02  0.36963386326E+02  0.14348376533E+03  0.78303870947E+02 0.  0.
          5    1    3    3  501    0  0.14934522538E+03 -0.14437444129E+03 -0.15753948474E+03  0.26074653381E+03  0.47000000000E+01 0. -1.
        -13    1    4    4    0    0 -0.42538637387E+02 -0.30669029566E+02 -0.25861371613E+02  0.58471664821E+02  0.00000000000E+00 0.  1.
         14    1    4    4    0    0  0.31859246564E+02 -0.35741426518E+02 -0.59762424995E+02  0.76576815046E+02  0.00000000000E+00 0. -1.
         -5    1    5    5    0  502 -0.60479275305E+02  0.12725846605E+03  0.19470849479E+03  0.24038707924E+03  0.47000000000E+01 0.  1.
         13    1    6    6    0    0  0.12284276727E+02  0.79468825201E+00  0.14200798399E+02  0.18793553663E+02  0.00000000000E+00 0. -1.
        -14    1    6    6    0    0 -0.90470835980E+02  0.82731743077E+02  0.22762587927E+02  0.12469021166E+03  0.00000000000E+00 0.  1.
</event>
<event>
12    1  0.1030140E-001  0.2870781E+03  0.7818608E-02  0.1091893E+00
         21   -1    0    0  503  502  0.00000000000E+00  0.00000000000E+00  0.72201546082E+02  0.72201546082E+02  0.00000000000E+00 0.  1.
         21   -1    0    0  501  503 -0.00000000000E+00 -0.00000000000E+00 -0.14688001497E+04  0.14688001497E+04  0.00000000000E+00 0. -1.
          6    2    1    2  501    0  0.22939860966E+03 -0.16495336403E+02 -0.10621311690E+04  0.11002270514E+04  0.17170068796E+03 0.  0.
         24    2    3    3    0    0  0.40118665677E+02  0.11580119807E+01 -0.23520264635E+03  0.25171576127E+03  0.80185355880E+02 0.  0.
         -6    2    1    2    0  502 -0.22939860966E+03  0.16495336403E+02 -0.33446743461E+03  0.44077464437E+03  0.17180804425E+03 0.  0.
        -24    2    5    5    0    0 -0.17651518490E+03  0.36555117369E+02 -0.32973680471E+03  0.38382273232E+03  0.78100207174E+02 0.  0.
          5    1    3    3  501    0  0.18927994398E+03 -0.17653348383E+02 -0.82692852266E+03  0.84851129014E+03  0.47000000000E+01 0. -1.
        -13    1    4    4    0    0  0.13455459081E+02 -0.31306258914E+02 -0.42432153217E+02  0.54420757556E+02  0.00000000000E+00 0.  1.
         14    1    4    4    0    0  0.26663206596E+02  0.32464270895E+02 -0.19277049313E+03  0.19729500372E+03  0.00000000000E+00 0. -1.
         -5    1    5    5    0  502 -0.52883424760E+02 -0.20059780966E+02 -0.47306298990E+01  0.56951912048E+02  0.47000000000E+01 0.  1.
         11    1    6    6    0    0 -0.19931343119E+02 -0.13763967977E+02 -0.89213927220E+02  0.92443658858E+02  0.00000000000E+00 0. -1.
        -12    1    6    6    0    0 -0.15658384178E+03  0.50319085346E+02 -0.24052287749E+03  0.29137907346E+03  0.00000000000E+00 0.  1.
</event>
<event>
12    1  0.1030140E-001  0.1786471E+03  0.7818608E-02  0.1170472E+00
         21   -1    0    0  503  502  0.00000000000E+00  0.00000000000E+00  0.89330386734E+02  0.89330386734E+02  0.00000000000E+00 0. -1.
         21   -1    0    0  501  503 -0.00000000000E+00 -0.00000000000E+00 -0.94545480716E+03  0.94545480716E+03  0.00000000000E+00 0. -1.
          6    2    1    2  501    0 -0.20895026097E+02 -0.98654070173E+01 -0.84229477014E+03  0.86103150942E+03  0.17714641409E+03 0.  0.
         24    2    3    3    0    0  0.52167051336E+02 -0.33282065753E+02 -0.50752762818E+03  0.51755292725E+03  0.80297210399E+02 0.  0.
         -6    2    1    2    0  502  0.20895026097E+02  0.98654070173E+01 -0.13829650282E+02  0.17375368448E+03  0.17165417347E+03 0.  0.
        -24    2    5    5    0    0 -0.53524573127E+02 -0.33063037659E+01  0.54348855653E+01  0.95619293489E+02  0.78979109474E+02 0.  0.
          5    1    3    3  501    0 -0.73062077433E+02  0.23416658736E+02 -0.33476714196E+03  0.34347858216E+03  0.47000000000E+01 0. -1.
        -13    1    4    4    0    0  0.34317459698E+02 -0.18988529652E+02 -0.76951954448E+02  0.86370455550E+02  0.00000000000E+00 0.  1.
         14    1    4    4    0    0  0.17849591638E+02 -0.14293536102E+02 -0.43057567373E+03  0.43118247170E+03  0.00000000000E+00 0. -1.
         -5    1    5    5    0  502  0.74419599224E+02  0.13171710783E+02 -0.19264535847E+02  0.78134390988E+02  0.47000000000E+01 0.  1.
         13    1    6    6    0    0  0.15189710627E+02  0.13411671186E+02  0.13639565508E+02  0.24426174080E+02  0.00000000000E+00 0. -1.
        -14    1    6    6    0    0 -0.68714283754E+02 -0.16717974952E+02 -0.82046799427E+01  0.71193119410E+02  0.00000000000E+00 0.  1.
</event>
<event>
12    1  0.1030140E-001  0.2367785E+03  0.7818608E-02  0.1122717E+00
         21   -1    0    0  503  502  0.00000000000E+00  0.00000000000E+00  0.18207604911E+04  0.18207604911E+04  0.00000000000E+00 0.  1.
         21   -1    0    0  501  503 -0.00000000000E+00 -0.00000000000E+00 -0.31452945082E+02  0.31452945082E+02  0.00000000000E+00 0. -1.
          6    2    1    2  501    0 -0.15524348477E+03 -0.24052087641E+02  0.10863056035E+04  0.11118110964E+04  0.17715814283E+03 0.  0.
         24    2    3    3    0    0 -0.52576965713E+02  0.26525049120E+02  0.28471718933E+03  0.30207994564E+03  0.81978656404E+02 0.  0.
         -6    2    1    2    0  502  0.15524348477E+03  0.24052087641E+02  0.70300194258E+03  0.74040233976E+03  0.17118659695E+03 0.  0.
        -24    2    5    5    0    0  0.12879749271E+03  0.81264476586E+01  0.30066366813E+03  0.33685408541E+03  0.80107429402E+02 0.  0.
          5    1    3    3  501    0 -0.10266651906E+03 -0.50577136761E+02  0.80158841415E+03  0.80973115081E+03  0.47000000000E+01 0. -1.
        -11    1    4    4    0    0 -0.46658496358E+01  0.33414107487E+02  0.21237296892E+03  0.21503616128E+03  0.00000000000E+00 0.  1.
         12    1    4    4    0    0 -0.47911116077E+02 -0.68890583676E+01  0.72344220410E+02  0.87043784360E+02  0.00000000000E+00 0. -1.
         -5    1    5    5    0  502  0.26445992061E+02  0.15925639982E+02  0.40233827444E+03  0.40354825435E+03  0.47000000000E+01 0.  1.
         11    1    6    6    0    0  0.20806756338E+02  0.33225552543E+02  0.57316515062E+02  0.69440919853E+02  0.00000000000E+00 0. -1.
        -12    1    6    6    0    0  0.10799073637E+03 -0.25099104885E+02  0.24334715307E+03  0.26741316556E+03  0.00000000000E+00 0.  1.
</event>
<event>
12    1  0.1030140E-001  0.2291995E+03  0.7818608E-02  0.1127247E+00
         21   -1    0    0  503  502  0.00000000000E+00  0.00000000000E+00  0.30628522758E+02  0.30628522758E+02  0.00000000000E+00 0.  1.
         21   -1    0    0  501  503 -0.00000000000E+00 -0.00000000000E+00 -0.17515395377E+04  0.17515395377E+04  0.00000000000E+00 0. -1.
          6    2    1    2  501    0  0.74706927125E+02  0.13160300780E+03 -0.99157719179E+03  0.10176680579E+04  0.17182104709E+03 0.  0.
         24    2    3    3    0    0  0.95284950680E+02  0.78153317794E+02 -0.44877349116E+03  0.47183083692E+03  0.77714409188E+02 0.  0.
         -6    2    1    2    0  502 -0.74706927125E+02 -0.13160300780E+03 -0.72933382313E+03  0.76450000251E+03  0.17213933790E+03 0.  0.
        -24    2    5    5    0    0  0.18974811288E+02 -0.99210003609E+02 -0.42894060180E+03  0.44813984027E+03  0.81465380888E+02 0.  0.
          5    1    3    3  501    0 -0.20578023555E+02  0.53449690008E+02 -0.54280370064E+03  0.54583722101E+03  0.47000000000E+01 0. -1.
        -13    1    4    4    0    0  0.15020814136E+01  0.46600916680E+02 -0.15281597360E+03  0.15977053380E+03  0.00000000000E+00 0.  1.
         14    1    4    4    0    0  0.93782869267E+02  0.31552401113E+02 -0.29595751756E+03  0.31206030312E+03  0.00000000000E+00 0. -1.
         -5    1    5    5    0  502 -0.93681738413E+02 -0.32393004192E+02 -0.30039322133E+03  0.31636016224E+03  0.47000000000E+01 0.  1.
         11    1    6    6    0    0 -0.17674196939E+02 -0.17395181303E+02 -0.21142457998E+03  0.21287395940E+03  0.00000000000E+00 0. -1.
        -12    1    6    6    0    0  0.36649008227E+02 -0.81814822305E+02 -0.21751602182E+03  0.23526588087E+03  0.00000000000E+00 0.  1.
</event>
<event>
12    1  0.1030140E-001  0.4265846E+03  0.7818608E-02  0.1034950E+00
         21   -1    0    0  503  502  0.00000000000E+00  0.00000000000E+00  0.13765148487E+04  0.13765148487E+04  0.00000000000E+00 0.  1.
         21   -1    0    0  501  503 -0.00000000000E+00 -0.00000000000E+00 -0.19385384792E+03  0.19385384792E+03  0.00000000000E+00 0. -1.
          6    2    1    2  501    0  0.67154594774E+02  0.38449432737E+03  0.14847937360E+03  0.45168631153E+03  0.17213010270E+03 0.  0.
         24    2    3    3    0    0  0.71189284582E+01  0.70511373826E+02  0.26846252416E+02  0.10962450057E+03  0.79210333133E+02 0.  0.
         -6    2    1    2    0  502 -0.67154594774E+02 -0.38449432737E+03  0.10341816272E+04  0.11186823851E+04  0.17196805903E+03 0.  0.
        -24    2    5    5    0    0 -0.53156903651E+02 -0.26855910853E+03  0.88060355985E+03  0.92569217008E+03  0.80583577391E+02 0.  0.
          5    1    3    3  501    0  0.60035666316E+02  0.31398295355E+03  0.12163312119E+03  0.34206181096E+03  0.47000000000E+01 0. -1.
        -13    1    4    4    0    0 -0.25296784952E+02  0.12740563876E+02 -0.14210848320E+02  0.31689075511E+02  0.00000000000E+00 0.  1.
         14    1    4    4    0    0  0.32415713410E+02  0.57770809949E+02  0.41057100736E+02  0.77935425058E+02  0.00000000000E+00 0. -1.
         -5    1    5    5    0  502 -0.13997691123E+02 -0.11593521884E+03  0.15357806734E+03  0.19299021501E+03  0.47000000000E+01 0.  1.
         11    1    6    6    0    0 -0.27159975330E+02 -0.93044722083E+02  0.44313603888E+03  0.45361275723E+03  0.00000000000E+00 0. -1.
        -12    1    6    6    0    0 -0.25996928322E+02 -0.17551438645E+03  0.43746752096E+03  0.47207941284E+03  0.00000000000E+00 0.  1.
</event>
<event>
12    1  0.1030140E-001  0.1742609E+03  0.7818608E-02  0.1173595E+00
         21   -1    0    0  503  502  0.00000000000E+00  0.00000000000E+00  0.28293875142E+03  0.28293875142E+03  0.00000000000E+00 0.  1.
         21   -1    0    0  501  503 -0.00000000000E+00 -0.00000000000E+00 -0.10782071432E+03  0.10782071432E+03  0.00000000000E+00 0.  1.
          6    2    1    2  501    0  0.13302138003E+02  0.96530710906E+01  0.10435109911E+03  0.20311580134E+03  0.17348414398E+03 0.  0.
         24    2    3    3    0    0  0.37083017173E+02  0.19576718794E+02  0.13537593774E+03  0.16251235803E+03  0.79531276313E+02 0.  0.
         -6    2    1    2    0  502 -0.13302138003E+02 -0.96530710906E+01  0.70766937989E+02  0.18764366439E+03  0.17300883393E+03 0.  0.
        -24    2    5    5    0    0 -0.18898525765E+02  0.61129504718E+01 -0.27704624045E+02  0.87650537024E+02  0.80749910264E+02 0.  0.
          5    1    3    3  501    0 -0.23780879170E+02 -0.99236477030E+01 -0.31024838620E+02  0.40603443317E+02  0.47000000000E+01 0. -1.
        -13    1    4    4    0    0  0.49049027018E+02  0.50829647682E+01  0.35194193509E+02  0.60582793259E+02  0.00000000000E+00 0.  1.
         14    1    4    4    0    0 -0.11966009845E+02  0.14493754025E+02  0.10018174423E+03  0.10192956477E+03  0.00000000000E+00 0. -1.
         -5    1    5    5    0  502  0.55963877619E+01 -0.15766021562E+02  0.98471562034E+02  0.99993127370E+02  0.47000000000E+01 0.  1.
         11    1    6    6    0    0  0.29408381771E+02 -0.16379141356E+01 -0.25029903663E+02  0.38652707001E+02  0.00000000000E+00 0. -1.
        -12    1    6    6    0    0 -0.48306907536E+02  0.77508646073E+01 -0.26747203815E+01  0.48997830023E+02  0.00000000000E+00 0.  1.
</event>
<event>
12    1  0.1030140E-001  0.2200917E+03  0.7818608E-02  0.1134298E+00
         21   -1    0    0  501  502  0.00000000000E+00  0.00000000000E+00  0.14217360816E+03  0.14217360816E+03  0.00000000000E+00 0. -1.
         21   -1    0    0  502  503 -0.00000000000E+00 -0.00000000000E+00 -0.46722671666E+03  0.46722671666E+03  0.00000000000E+00 0.  1.
         -6    2    1    2    0  503  0.67872445497E+02  0.11894975546E+03 -0.32286478580E+03  0.38929776145E+03  0.16898332455E+03 0.  0.
        -24    2    3    3    0    0  0.77784439199E+02  0.77342432329E+02 -0.11763468293E+03  0.17960536272E+03  0.79924319651E+02 0.  0.
          6    2    1    2  501    0 -0.67872445497E+02 -0.11894975546E+03 -0.21883226983E+01  0.22010256337E+03  0.17229229949E+03 0.  0.
         24    2    5    5    0    0 -0.96720745237E+02 -0.44190133784E+02  0.25323357949E+02  0.13524852397E+03  0.79644336235E+02 0.  0.
          5    1    5    5  501    0  0.28848299739E+02 -0.74759621676E+02 -0.27511680647E+02  0.84854039403E+02  0.47000000000E+01 0. -1.
        -13    1    6    6    0    0 -0.41367113644E+02 -0.23859982958E+01 -0.26037698092E+02  0.48937641964E+02  0.00000000000E+00 0.  1.
         14    1    6    6    0    0 -0.55353631593E+02 -0.41804135488E+02  0.51361056040E+02  0.86310882002E+02  0.00000000000E+00 0. -1.
         -5    1    3    3    0  503 -0.99119937014E+01  0.41607323131E+02 -0.20523010287E+03  0.20969239872E+03  0.47000000000E+01 0.  1.
         13    1    4    4    0    0  0.56685097645E+02  0.17223263254E+02 -0.95060248292E+02  0.11201023122E+03  0.00000000000E+00 0. -1.
        -14    1    4    4    0    0  0.21099341553E+02  0.60119169074E+02 -0.22574434635E+02  0.67595131506E+02  0.00000000000E+00 0.  1.
</event>
<event>
12    1  0.1030140E-001  0.1726350E+03  0.7818608E-02  0.1175705E+00
         21   -1    0    0  503  502  0.00000000000E+00  0.00000000000E+00  0.34950020370E+03  0.34950020370E+03  0.00000000000E+00 0. -1.
         21   -1    0    0  501  503 -0.00000000000E+00 -0.00000000000E+00 -0.85583030831E+02  0.85583030831E+02  0.00000000000E+00 0. -1.
          6    2    1    2  501    0  0.22768101523E+01  0.90736307234E+01  0.10313727354E+03  0.19917433191E+03  0.17013407260E+03 0.  0.
         24    2    3    3    0    0 -0.34194145417E+02 -0.32031858610E+02  0.10965261477E+03  0.14363757359E+03  0.80079816900E+02 0.  0.
         -6    2    1    2    0  502 -0.22768101523E+01 -0.90736307234E+01  0.16077989933E+03  0.23590890262E+03  0.17238132053E+03 0.  0.
        -24    2    5    5    0    0  0.48135974681E+02  0.12111274798E+02  0.15602902129E+03  0.18081888593E+03  0.76724565750E+02 0.  0.
          5    1    3    3  501    0  0.36470955570E+02  0.41105489334E+02 -0.65153412282E+01  0.55536758321E+02  0.47000000000E+01 0. -1.
        -13    1    4    4    0    0  0.17607430038E+02  0.11455955340E+02  0.46835615603E+02  0.51330647708E+02  0.00000000000E+00 0.  1.
         14    1    4    4    0    0 -0.51801575455E+02 -0.43487813950E+02  0.62816999164E+02  0.92306925882E+02  0.00000000000E+00 0. -1.
         -5    1    5    5    0  502 -0.50412784833E+02 -0.21184905521E+02  0.47508780431E+01  0.55090016689E+02  0.47000000000E+01 0.  1.
         13    1    6    6    0    0  0.29653731754E+02  0.42861767117E+01  0.74284314733E+01  0.30869025121E+02  0.00000000000E+00 0. -1.
        -14    1    6    6    0    0  0.18482242927E+02  0.78250980863E+01  0.14860058981E+03  0.14994986081E+03  0.00000000000E+00 0.  1.
</event>
<event>
12    1  0.1030140E-001  0.2130002E+03  0.7818608E-02  0.1139407E+00
         21   -1    0    0  503  502  0.00000000000E+00  0.00000000000E+00  0.31323613290E+03  0.31323613290E+03  0.00000000000E+00 0. -1.
         21   -1    0    0  501  503 -0.00000000000E+00 -0.00000000000E+00 -0.15156320871E+03  0.15156320871E+03  0.00000000000E+00 0. -1.
          6    2    1    2  501    0  0.72932678626E+02  0.10033152478E+03  0.29658783885E+02  0.21505514258E+03  0.17315738625E+03 0.  0.
         24    2    3    3    0    0  0.19096590064E+02 -0.11878675051E+02 -0.90172842380E+01  0.84642790317E+02  0.81100603355E+02 0.  0.
         -6    2    1    2    0  502 -0.72932678626E+02 -0.10033152478E+03  0.13201414030E+03  0.24974419902E+03  0.17192684848E+03 0.  0.
        -24    2    5    5    0    0 -0.43482699907E+02 -0.13527236584E+03  0.11677693345E+03  0.20134558238E+03  0.81937983896E+02 0.  0.
          5    1    3    3  501    0  0.53836088562E+02  0.11221019983E+03  0.38676068123E+02  0.13041235227E+03  0.47000000000E+01 0. -1.
        -11    1    4    4    0    0 -0.70207565938E+01  0.13965004428E+02  0.28264378047E+02  0.32298412317E+02  0.00000000000E+00 0.  1.
         12    1    4    4    0    0  0.26117346658E+02 -0.25843679479E+02 -0.37281662285E+02  0.52344378000E+02  0.00000000000E+00 0. -1.
         -5    1    5    5    0  502 -0.29449978720E+02  0.34940841060E+02  0.15237206851E+02  0.48398616645E+02  0.47000000000E+01 0.  1.
         13    1    6    6    0    0  0.10424481506E+02 -0.94823337858E+02  0.56145109461E+02  0.11069059822E+03  0.00000000000E+00 0. -1.
        -14    1    6    6    0    0 -0.53907181413E+02 -0.40449027984E+02  0.60631823990E+02  0.90654984160E+02  0.00000000000E+00 0.  1.
</event>
<event>
12    1  0.1030140E-001  0.1963741E+03  0.7818608E-02  0.1152924E+00
         21   -1    0    0  501  502  0.00000000000E+00  0.00000000000E+00  0.77749777253E+03  0.77749777253E+03  0.00000000000E+00 0. -1.
         21   -1    0    0  502  503 -0.00000000000E+00 -0.00000000000E+00 -0.37441735489E+03  0.37441735489E+03  0.00000000000E+00 0. -1.
         -6    2    1    2    0  503  0.63953235572E+02 -0.65669914171E+02 -0.33502906282E+03  0.38812955163E+03  0.17319792710E+03 0.  0.
        -24    2    3    3    0    0  0.91443962872E+02  0.57372393053E+01 -0.20615178715E+03  0.23817567927E+03  0.76381807963E+02 0.  0.
          6    2    1    2  501    0 -0.63953235572E+02  0.65669914171E+02  0.73810948045E+03  0.76378557579E+03  0.17366705697E+03 0.  0.
         24    2    5    5    0    0 -0.34832232739E+02  0.10856981892E+03  0.49040103704E+03  0.51066505593E+03  0.85351814266E+02 0.  0.
          5    1    5    5  501    0 -0.29121002832E+02 -0.42899904753E+02  0.24770844341E+03  0.25312051986E+03  0.47000000000E+01 0. -1.
        -13    1    6    6    0    0  0.23140758728E+02  0.56512586310E+02  0.27232398913E+03  0.27908694377E+03  0.00000000000E+00 0.  1.
         14    1    6    6    0    0 -0.57972991468E+02  0.52057232614E+02  0.21807704791E+03  0.23157811216E+03  0.00000000000E+00 0. -1.
         -5    1    3    3    0  503 -0.27490727300E+02 -0.71407153476E+02 -0.12887727567E+03  0.14995387237E+03  0.47000000000E+01 0.  1.
         11    1    4    4    0    0  0.32437514872E+02 -0.34766657471E+02 -0.76190741140E+02  0.89810588898E+02  0.00000000000E+00 0. -1.
        -12    1    4    4    0    0  0.59006448000E+02  0.40503896776E+02 -0.12996104601E+03  0.14836509037E+03  0.00000000000E+00 0.  1.
</event>
<event>
12    1  0.1030140E-001  0.3132462E+03  0.7818608E-02  0.1078802E+00
         21   -1    0    0  501  502  0.00000000000E+00  0.00000000000E+00  0.58676198521E+02  0.58676198521E+02  0.00000000000E+00 0.  1.
         21   -1    0    0  502  503 -0.00000000000E+00 -0.00000000000E+00 -0.17838446691E+04  0.17838446691E+04  0.00000000000E+00 0.  1.
         -6    2    1    2    0  503  0.24859527982E+03  0.91238211492E+02 -0.63212102554E+03  0.70547868105E+03  0.16732947767E+03 0.  0.
        -24    2    3    3    0    0  0.19197358677E+03  0.11717916836E+03 -0.56760084087E+03  0.61567949622E+03  0.79408513315E+02 0.  0.
          6    2    1    2  501    0 -0.24859527982E+03 -0.91238211492E+02 -0.10930474450E+04  0.11370421865E+04  0.16729672011E+03 0.  0.
         24    2    5    5    0    0 -0.16671727743E+03 -0.12621426200E+03 -0.78090622243E+03  0.81241691917E+03  0.80511066332E+02 0.  0.
          5    1    5    5  501    0 -0.81878002386E+02  0.34976050505E+02 -0.31214122258E+03  0.32462526737E+03  0.47000000000E+01 0. -1.
        -11    1    6    6    0    0 -0.77205565229E+02 -0.26659995433E+02 -0.19510505252E+03  0.21151226011E+03  0.00000000000E+00 0.  1.
         12    1    6    6    0    0 -0.89511712202E+02 -0.99554266563E+02 -0.58580116991E+03  0.60090465906E+03  0.00000000000E+00 0. -1.
         -5    1    3    3    0  503  0.56621693042E+02 -0.25940956872E+02 -0.64520184670E+02  0.89799184831E+02  0.47000000000E+01 0.  1.
         11    1    4    4    0    0  0.58869684893E+02  0.44504861081E+02 -0.29122997720E+03  0.30043505468E+03  0.00000000000E+00 0. -1.
        -12    1    4    4    0    0  0.13310390188E+03  0.72674307282E+02 -0.27637086367E+03  0.31524444154E+03  0.00000000000E+00 0.  1.
</event>
<event>
12    1  0.1030140E-001  0.2274381E+03  0.7818608E-02  0.1128573E+00
         21   -1    0    0  501  502  0.00000000000E+00  0.00000000000E+00  0.39748975616E+03  0.39748975616E+03  0.00000000000E+00 0. -1.
         21   -1    0    0  502  503 -0.00000000000E+00 -0.00000000000E+00 -0.13356919212E+03  0.13356919212E+03  0.00000000000E+00 0.  1.
         -6    2    1    2    0  503 -0.11545749565E+03 -0.91377009299E+02  0.87318525251E+02  0.24362390367E+03  0.17334327347E+03 0.  0.
        -24    2    3    3    0    0 -0.63279922110E+02 -0.96913295537E+02  0.11755394273E+03  0.18288330673E+03  0.78935663904E+02 0.  0.
          6    2    1    2  501    0  0.11545749565E+03  0.91377009299E+02  0.17660203879E+03  0.28743504460E+03  0.17248314013E+03 0.  0.
         24    2    5    5    0    0  0.14371354293E+03  0.56235872086E+02  0.12101571120E+03  0.21570476127E+03  0.89820298063E+02 0.  0.
          5    1    5    5  501    0 -0.28256047282E+02  0.35141137213E+02  0.55586327587E+02  0.71730283335E+02  0.47000000000E+01 0. -1.
        -13    1    6    6    0    0  0.11504037357E+03  0.48454531098E+02  0.42678256747E+02  0.13192256340E+03  0.00000000000E+00 0.  1.
         14    1    6    6    0    0  0.28673169363E+02  0.77813409873E+01  0.78337454457E+02  0.83782197869E+02  0.00000000000E+00 0. -1.
         -5    1    3    3    0  503 -0.52177573541E+02  0.55362862379E+01 -0.30235417483E+02  0.60740596937E+02  0.47000000000E+01 0.  1.
         13    1    4    4    0    0 -0.87465225296E+01 -0.33959020321E+02  0.87622179286E+02  0.94378827182E+02  0.00000000000E+00 0. -1.
        -14    1    4    4    0    0 -0.54533399580E+02 -0.62954275216E+02  0.29931763447E+02  0.88504479552E+02  0.00000000000E+00 0.  1.
</event>
<event>
12    1  0.1030140E-001  0.1920037E+03  0.7818608E-02  0.1159488E+00
         21   -1    0    0  503  502  0.00000000000E+00  0.00000000000E+00  0.62309722630E+02  0.62309722630E+02  0.00000000000E+00 0.  1.
         21   -1    0    0  501  503 -0.00000000000E+00 -0.00000000000E+00 -0.55787847423E+03  0.55787847423E+03  0.00000000000E+00 0.  1.
          6    2    1    2  501    0 -0.38302505769E+02 -0.36828303760E+02 -0.27996413554E+03  0.33947806177E+03  0.18450482738E+03 0.  0.
         24    2    3    3    0    0 -0.98238752076E+02 -0.19474534515E+02 -0.16826375484E+03  0.21144458186E+03  0.79787280331E+02 0.  0.
         -6    2    1    2    0  502  0.38302505769E+02  0.36828303760E+02 -0.21560461606E+03  0.28071013509E+03  0.17172484844E+03 0.  0.
        -24    2    5    5    0    0 -0.41389036752E+02 -0.71310925622E+01 -0.11857507149E+03  0.14759367107E+03  0.77200643237E+02 0.  0.
          5    1    3    3  501    0  0.59936246306E+02 -0.17353769246E+02 -0.11170038071E+03  0.12803347991E+03  0.47000000000E+01 0. -1.
        -11    1    4    4    0    0 -0.82670789585E+01 -0.33368182663E+02 -0.66793351650E+02  0.75120782966E+02  0.00000000000E+00 0.  1.
         12    1    4    4    0    0 -0.89971673117E+02  0.13893648148E+02 -0.10147040319E+03  0.13632379890E+03  0.00000000000E+00 0. -1.
         -5    1    5    5    0  502  0.79691542521E+02  0.43959396322E+02 -0.97029544568E+02  0.13311646402E+03  0.47000000000E+01 0.  1.
         11    1    6    6    0    0 -0.35298658528E+02  0.11822199319E+02 -0.11906902677E+02  0.39083679740E+02  0.00000000000E+00 0. -1.
        -12    1    6    6    0    0 -0.60903782238E+01 -0.18953291881E+02 -0.10666816882E+03  0.10850999133E+03  0.00000000000E+00 0.  1.
</event>
<event>
12    1  0.1030140E-001  0.1835689E+03  0.7818608E-02  0.1164888E+00
         21   -1    0    0  501  502  0.00000000000E+00  0.00000000000E+00  0.45442072801E+02  0.45442072801E+02  0.00000000000E+00 0. -1.
         21   -1    0    0  502  503 -0.00000000000E+00 -0.00000000000E+00 -0.15215865137E+04  0.15215865137E+04  0.00000000000E+00 0. -1.
         -6    2    1    2    0  503  0.48275777928E+02 -0.40782347485E+02 -0.13000401633E+04  0.13126464572E+04  0.17012508566E+03 0.  0.
        -24    2    3    3    0    0  0.21251969922E+01  0.31992442118E+02 -0.45374244404E+03  0.46195969595E+03  0.80601007078E+02 0.  0.
          6    2    1    2  501    0 -0.48275777928E+02  0.40782347485E+02 -0.17610427758E+03  0.25438212930E+03  0.17234790548E+03 0.  0.
         24    2    5    5    0    0 -0.70670051051E+02  0.77236633801E+02 -0.16104355661E+03  0.20878241684E+03  0.81824915165E+02 0.  0.
          5    1    5    5  501    0  0.22394273124E+02 -0.36454286316E+02 -0.15060720974E+02  0.45599712453E+02  0.47000000000E+01 0. -1.
        -11    1    6    6    0    0 -0.27636455791E+01  0.40368771280E+02 -0.14258795248E+02  0.42902082390E+02  0.00000000000E+00 0.  1.
         12    1    6    6    0    0 -0.67906405472E+02  0.36867862521E+02 -0.14678476136E+03  0.16588033445E+03  0.00000000000E+00 0. -1.
         -5    1    3    3    0  503  0.46150580935E+02 -0.72774789603E+02 -0.84629771928E+03  0.85068676126E+03  0.47000000000E+01 0.  1.
         11    1    4    4    0    0  0.79746335746E+01 -0.59508425919E+01 -0.36660165045E+03  0.36673665950E+03  0.00000000000E+00 0. -1.
        -12    1    4    4    0    0 -0.58494365824E+01  0.37943284710E+02 -0.87140793587E+02  0.95223036446E+02  0.00000000000E+00 0.  1.
</event>
<event>
12    1  0.1030140E-001  0.1938721E+03  0.7818608E-02  0.1156146E+00
         21   -1    0    0  501  502  0.00000000000E+00  0.00000000000E+00  0.33602010530E+03  0.33602010530E+03  0.00000000000E+00 0.  1.
         21   -1    0    0  502  503 -0.00000000000E+00 -0.00000000000E+00 -0.13357722590E+03  0.13357722590E+03  0.00000000000E+00 0. -1.
         -6    2    1    2    0  503  0.87161414053E+02 -0.19769093011E+02  0.15017752495E+01  0.19387793716E+03  0.17204205896E+03 0.  0.
        -24    2    3    3    0    0  0.61549554782E+02 -0.37938585286E+02 -0.60765995564E+02  0.12398184952E+03  0.80320040132E+02 0.  0.
          6    2    1    2  501    0 -0.87161414053E+02  0.19769093011E+02  0.20094110416E+03  0.27571939404E+03  0.16630071489E+03 0.  0.
         24    2    5    5    0    0 -0.87160224820E+02 -0.40810661084E+02  0.15415221097E+03  0.19903043048E+03  0.81165221979E+02 0.  0.
          5    1    5    5  501    0 -0.11892329996E-02  0.60579754096E+02  0.46788893185E+02  0.76688963568E+02  0.47000000000E+01 0. -1.
        -13    1    6    6    0    0 -0.88832293773E+02 -0.76791141758E+01  0.13143163817E+03  0.15882197808E+03  0.00000000000E+00 0.  1.
         14    1    6    6    0    0  0.16720689523E+01 -0.33131546909E+02  0.22720572806E+02  0.40208452392E+02  0.00000000000E+00 0. -1.
         -5    1    3    3    0  503  0.25611859271E+02  0.18169492275E+02  0.62267770814E+02  0.69896087637E+02  0.47000000000E+01 0.  1.
         13    1    4    4    0    0 -0.15466906100E+02  0.66168845643E+01 -0.19934305662E+02  0.26084188465E+02  0.00000000000E+00 0. -1.
        -14    1    4    4    0    0  0.77016460882E+02 -0.44555469851E+02 -0.40831689902E+02  0.97897661059E+02  0.00000000000E+00 0.  1.
</event>
<event>
12    1  0.1030140E-001  0.2335166E+03  0.7818608E-02  0.1124546E+00
         21   -1    0    0  503  502  0.00000000000E+00  0.00000000000E+00  0.15171988511E+03  0.15171988511E+03  0.00000000000E+00 0. -1.
         21   -1    0    0  501  503 -0.00000000000E+00 -0.00000000000E+00 -0.37940225479E+03  0.37940225479E+03  0.00000000000E+00 0. -1.
          6    2    1    2  501    0 -0.11459484003E+03 -0.10617232030E+03 -0.47760912601E+02  0.23633112651E+03  0.17078277907E+03 0.  0.
         24    2    3    3    0    0 -0.13842438899E+03 -0.77803834749E+02 -0.30356787854E+01  0.17806402674E+03  0.80516048744E+02 0.  0.
         -6    2    1    2    0  502  0.11459484003E+03  0.10617232030E+03 -0.17992145708E+03  0.29479101338E+03  0.17356690898E+03 0.  0.
        -24    2    5    5    0    0  0.57076605291E+02  0.30867551609E+02 -0.11512506369E+02  0.10149636732E+03  0.77190868391E+02 0.  0.
          5    1    3    3  501    0  0.23829548955E+02 -0.28368485551E+02 -0.44725233816E+02  0.58267099771E+02  0.47000000000E+01 0. -1.
        -11    1    4    4    0    0  0.95751576098E+01  0.10573195536E+01 -0.38202889260E+01  0.10363212599E+02  0.00000000000E+00 0.  1.
         12    1    4    4    0    0 -0.14799954660E+03 -0.78861154303E+02  0.78461014051E+00  0.16770081414E+03  0.00000000000E+00 0. -1.
         -5    1    5    5    0  502  0.57518234741E+02  0.75304768692E+02 -0.16840895071E+03  0.19329464606E+03  0.47000000000E+01 0.  1.
         13    1    6    6    0    0  0.55831523861E+02 -0.12215934260E+02 -0.11970441416E+02  0.58392461621E+02  0.00000000000E+00 0. -1.
        -14    1    6    6    0    0  0.12450814307E+01  0.43083485868E+02  0.45793504653E+00  0.43103905703E+02  0.00000000000E+00 0.  1.
</event>
<event>
12    1  0.1030140E-001  0.1834967E+03  0.7818608E-02  0.1165820E+00
         21   -1    0    0  501  502  0.00000000000E+00  0.00000000000E+00  0.18059809882E+03  0.18059809882E+03  0.00000000000E+00 0.  1.
         21   -1    0    0  502  503 -0.00000000000E+00 -0.00000000000E+00 -0.28786070206E+03  0.28786070206E+03  0.00000000000E+00 0.  1.
         -6    2    1    2    0  503  0.16298208066E+02 -0.47385785792E+02 -0.19598376700E+03  0.26463903312E+03  0.17062572093E+03 0.  0.
        -24    2    3    3    0    0  0.59232208681E+02 -0.70432523367E+02 -0.10329385567E+03  0.15981541849E+03  0.80013451847E+02 0.  0.
          6    2    1    2  501    0 -0.16298208066E+02  0.47385785792E+02  0.88721163753E+02  0.20381976776E+03  0.17652197753E+03 0.  0.
         24    2    5    5    0    0  0.60229535813E+02  0.32301736419E+02  0.61050954885E+02  0.12092372088E+03  0.78894410575E+02 0.  0.
          5    1    5    5  501    0 -0.76527743879E+02  0.15084049374E+02  0.27670208868E+02  0.82896046875E+02  0.47000000000E+01 0. -1.
        -13    1    6    6    0    0  0.32095929727E+02  0.57974155275E+02  0.37402968861E+02  0.76092926508E+02  0.00000000000E+00 0.  1.
         14    1    6    6    0    0  0.28133606085E+02 -0.25672418857E+02  0.23647986024E+02  0.44830794375E+02  0.00000000000E+00 0. -1.
         -5    1    3    3    0  503 -0.42934000614E+02  0.23046737575E+02 -0.92689911330E+02  0.10482361463E+03  0.47000000000E+01 0.  1.
         13    1    4    4    0    0  0.41417358735E+01  0.12877286725E+02  0.31097170508E+01  0.13879799335E+02  0.00000000000E+00 0. -1.
        -14    1    4    4    0    0  0.55090472807E+02 -0.83309810092E+02 -0.10640357272E+03  0.14593561916E+03  0.00000000000E+00 0.  1.
</event>
<event>
12    1  0.1030140E-001  0.2072124E+03  0.7818608E-02  0.1145063E+00
         21   -1    0    0  501  502  0.00000000000E+00  0.00000000000E+00  0.18929662081E+04  0.18929662081E+04  0.00000000000E+00 0. -1.
         21   -1    0    0  502  503 -0.00000000000E+00 -0.00000000000E+00 -0.59836260180E+02  0.59836260180E+02  0.00000000000E+00 0.  1.
         -6    2    1    2    0  503 -0.10427518238E+03  0.64555507150E+01  0.14538083223E+03  0.25312559480E+03  0.17894689874E+03 0.  0.
        -24    2    3    3    0    0 -0.31777994379E+02  0.57324286851E+02  0.32910498583E+02  0.10989453485E+03  0.81840045718E+02 0.  0.
          6    2    1    2  501    0  0.10427518238E+03 -0.64555507150E+01  0.16877491157E+04  0.16996768735E+04  0.17172480579E+03 0.  0.
         24    2    5    5    0    0  0.32858686718E+02  0.57579599548E+02  0.79372711908E+03  0.80051157347E+03  0.80130743867E+02 0.  0.
          5    1    5    5  501    0  0.71416495664E+02 -0.64035150263E+02  0.89402199666E+03  0.89916530006E+03  0.47000000000E+01 0. -1.
        -13    1    6    6    0    0  0.50871749104E+02  0.65936572589E+02  0.67765485727E+03  0.68275300955E+03  0.00000000000E+00 0.  1.
         14    1    6    6    0    0 -0.18013062385E+02 -0.83569730410E+01  0.11607226181E+03  0.11775856392E+03  0.00000000000E+00 0. -1.
         -5    1    3    3    0  503 -0.72497188003E+02 -0.50868736136E+02  0.11247033365E+03  0.14323105995E+03  0.47000000000E+01 0.  1.
         13    1    4    4    0    0  0.86072612561E+00 -0.19643733849E+02  0.14117813544E+02  0.24205986620E+02  0.00000000000E+00 0. -1.
        -14    1    4    4    0    0 -0.32638720505E+02  0.76968020700E+02  0.18792685039E+02  0.85688548230E+02  0.00000000000E+00 0.  1.
</event>
<event>
12    1  0.1030140E-001  0.2178336E+03  0.7818608E-02  0.1135546E+00
         21   -1    0    0  501  502  0.00000000000E+00  0.00000000000E+00  0.17812165887E+04  0.17812165887E+04  0.00000000000E+00 0. -1.
         21   -1    0    0  502  503 -0.00000000000E+00 -0.00000000000E+00 -0.26657642179E+02  0.26657642179E+02  0.00000000000E+00 0.  1.
         -6    2    1    2    0  503 -0.93012014344E+02 -0.99077831160E+02  0.84098525599E+03  0.86868927993E+03  0.16999180226E+03 0.  0.
        -24    2    3    3    0    0  0.83764826103E+01 -0.11484012649E+02  0.39771197438E+03  0.40558497576E+03  0.78245191459E+02 0.  0.
          6    2    1    2  501    0  0.93012014344E+02  0.99077831160E+02  0.91357369057E+03  0.93918495098E+03  0.17024638797E+03 0.  0.
         24    2    5    5    0    0  0.94873808321E+02  0.13340396049E+03  0.79823963364E+03  0.81874499034E+03  0.79744531580E+02 0.  0.
          5    1    5    5  501    0 -0.18617939772E+01 -0.34326129334E+02  0.11533405693E+03  0.12043996065E+03  0.47000000000E+01 0. -1.
        -13    1    6    6    0    0  0.83571682322E+02  0.75761798753E+02  0.37962591738E+03  0.39603019252E+03  0.00000000000E+00 0.  1.
         14    1    6    6    0    0  0.11302125999E+02  0.57642161741E+02  0.41861371625E+03  0.42271479782E+03  0.00000000000E+00 0. -1.
         -5    1    3    3    0  503 -0.10138849695E+03 -0.87593818512E+02  0.44327328161E+03  0.46310430418E+03  0.47000000000E+01 0.  1.
         11    1    4    4    0    0 -0.23444956854E+02 -0.32013607599E+02  0.15835564304E+03  0.16325148317E+03  0.00000000000E+00 0. -1.
        -12    1    4    4    0    0  0.31821439464E+02  0.20529594950E+02  0.23935633134E+03  0.24233349259E+03  0.00000000000E+00 0.  1.
</event>
<event>
12    1  0.1030140E-001  0.1893040E+03  0.7818608E-02  0.1159184E+00
         21   -1    0    0  501  502  0.00000000000E+00  0.00000000000E+00  0.68116898431E+03  0.68116898431E+03  0.00000000000E+00 0.  1.
         21   -1    0    0  502  503 -0.00000000000E+00 -0.00000000000E+00 -0.11868945424E+03  0.11868945424E+03  0.00000000000E+00 0.  1.
         -6    2    1    2    0  503  0.73224720974E+02  0.31376231647E+02 -0.17291624023E+02  0.19009208013E+03  0.17172556884E+03 0.  0.
        -24    2    3    3    0    0  0.33046235604E+02 -0.49929623491E+02 -0.26124719351E+01  0.98100122478E+02  0.77664586725E+02 0.  0.
          6    2    1    2  501    0 -0.73224720974E+02 -0.31376231647E+02  0.57977115408E+03  0.60976635842E+03  0.17127198568E+03 0.  0.
         24    2    5    5    0    0  0.21895728673E+02 -0.38094116562E+02  0.26402886165E+03  0.27990530411E+03  0.81885009828E+02 0.  0.
          5    1    5    5  501    0 -0.95120449646E+02  0.67178849154E+01  0.31574229244E+03  0.32986105431E+03  0.47000000000E+01 0. -1.
        -11    1    6    6    0    0  0.33987774350E+02 -0.43684601343E+02  0.26023193101E+03  0.26605294795E+03  0.00000000000E+00 0.  1.
         12    1    6    6    0    0 -0.12092045677E+02  0.55904847811E+01  0.37969306416E+01  0.13852356155E+02  0.00000000000E+00 0. -1.
         -5    1    3    3    0  503  0.40178485370E+02  0.81305855137E+02 -0.14679152087E+02  0.91991957650E+02  0.47000000000E+01 0.  1.
         13    1    4    4    0    0 -0.19522309303E+02 -0.17648346614E+02  0.19299422277E+02  0.32635140554E+02  0.00000000000E+00 0. -1.
        -14    1    4    4    0    0  0.52568544907E+02 -0.32281276876E+02 -0.21911894212E+02  0.65464981925E+02  0.00000000000E+00 0.  1.
</event>
<event>
12    1  0.1030140E-001  0.1992724E+03  0.7818608E-02  0.1150514E+00
         21   -1    0    0  503  502  0.00000000000E+00  0.00000000000E+00  0.24050581529E+03  0.24050581529E+03  0.00000000000E+00 0. -1.
         21   -1    0    0  501  503 -0.00000000000E+00 -0.00000000000E+00 -0.16517892021E+03  0.16517892021E+03  0.00000000000E+00 0. -1.
          6    2    1    2  501    0 -0.64807239340E+02 -0.75595671091E+02  0.24579773072E+02  0.20078261987E+03  0.17261173610E+03 0.  0.
         24    2    3    3    0    0 -0.11885822591E+01 -0.76179463578E+01  0.68136404207E+02  0.97886678725E+02  0.69855468355E+02 0.  0.
         -6    2    1    2    0  502  0.64807239340E+02  0.75595671091E+02  0.50747122004E+02  0.20490211563E+03  0.17174085955E+03 0.  0.
        -24    2    5    5    0    0  0.84793360727E+02  0.10695323823E+03  0.37372396042E+02  0.16510619424E+03  0.85055571239E+02 0.  0.
          5    1    3    3  501    0 -0.63618657081E+02 -0.67977724733E+02 -0.43556631135E+02  0.10289594115E+03  0.47000000000E+01 0. -1.
        -11    1    4    4    0    0 -0.50603224474E+01 -0.38303270806E+02  0.30844897511E+02  0.49438397225E+02  0.00000000000E+00 0.  1.
         12    1    4    4    0    0  0.38717401883E+01  0.30685324449E+02  0.37291506696E+02  0.48448281500E+02  0.00000000000E+00 0. -1.
         -5    1    5    5    0  502 -0.19986121387E+02 -0.31357567137E+02  0.13374725961E+02  0.39795921391E+02  0.47000000000E+01 0.  1.
         13    1    6    6    0    0  0.26977155010E+02  0.14466157368E+02 -0.24944784450E+02  0.39487705336E+02  0.00000000000E+00 0. -1.
        -14    1    6    6    0    0  0.57816205717E+02  0.92487080859E+02  0.62317180492E+02  0.12561848890E+03  0.00000000000E+00 0.  1.
</event>
<event>
12    1  0.1030140E-001  0.2135984E+03  0.7818608E-02  0.1138985E+00
         21   -1    0    0  503  502  0.00000000000E+00  0.00000000000E+00  0.11784197733E+03  0.11784197733E+03  0.00000000000E+00 0.  1.
         21   -1    0    0  501  503 -0.00000000000E+00 -0.00000000000E+00 -0.47045603088E+03  0.47045603088E+03  0.00000000000E+00 0. -1.
          6    2    1    2  501    0  0.10973150580E+03  0.64121119232E+02 -0.30211652388E+03  0.36999819529E+03  0.17167337949E+03 0.  0.
         24    2    3    3    0    0  0.73180216718E+02  0.90054427678E+01 -0.28022999593E+03  0.30017810770E+03  0.78368383965E+02 0.  0.
         -6    2    1    2    0  502 -0.10973150580E+03 -0.64121119232E+02 -0.50497529674E+02  0.21829981292E+03  0.17015371439E+03 0.  0.
        -24    2    5    5    0    0 -0.46671836635E+02 -0.81755436280E+02  0.17490991826E+02  0.12379044794E+03  0.78459725397E+02 0.  0.
          5    1    3    3  501    0  0.36551289086E+02  0.55115676465E+02 -0.21886527945E+02  0.69820087593E+02  0.47000000000E+01 0. -1.
        -11    1    4    4    0    0  0.69363948631E+02 -0.13789513225E+02 -0.12830265499E+03  0.14650283042E+03  0.00000000000E+00 0.  1.
         12    1    4    4    0    0  0.38162680866E+01  0.22794955993E+02 -0.15192734094E+03  0.15367527728E+03  0.00000000000E+00 0. -1.
         -5    1    5    5    0  502 -0.63059669169E+02  0.17634317047E+02 -0.67988521499E+02  0.94509364981E+02  0.47000000000E+01 0.  1.
         13    1    6    6    0    0  0.13586519121E+02  0.68156101767E+01  0.46637975104E+01  0.15899592798E+02  0.00000000000E+00 0. -1.
        -14    1    6    6    0    0 -0.60258355756E+02 -0.88571046456E+02  0.12827194315E+02  0.10789085514E+03  0.00000000000E+00 0.  1.
</event>
<event>
12    1  0.1030140E-001  0.1840449E+03  0.7818608E-02  0.1164355E+00
         21   -1    0    0  501  502  0.00000000000E+00  0.00000000000E+00  0.28894861625E+02  0.28894861625E+02  0.00000000000E+00 0. -1.
         21   -1    0    0  502  503 -0.00000000000E+00 -0.00000000000E+00 -0.11669456039E+04  0.11669456039E+04  0.00000000000E+00 0. -1.
         -6    2    1    2    0  503  0.46631906226E+02  0.43006597034E+02 -0.52984247978E+03  0.56089711566E+03  0.17276694972E+03 0.  0.
        -24    2    3    3    0    0  0.28563881592E+02  0.37712330874E+02 -0.12343978886E+03  0.15403138848E+03  0.79058028895E+02 0.  0.
          6    2    1    2  501    0 -0.46631906226E+02 -0.43006597034E+02 -0.60820826249E+03  0.63494334985E+03  0.17091420332E+03 0.  0.
         24    2    5    5    0    0 -0.46438634047E+02 -0.60321917754E+02 -0.60705206358E+03  0.61696323635E+03  0.79599915872E+02 0.  0.
          5    1    5    5  501    0 -0.19327217887E+00  0.17315320720E+02 -0.11561989041E+01  0.17980113506E+02  0.47000000000E+01 0. -1.
        -13    1    6    6    0    0  0.15073865293E+02 -0.22008859349E+02 -0.67726846783E+02  0.72791050823E+02  0.00000000000E+00 0.  1.
         14    1    6    6    0    0 -0.61512499340E+02 -0.38313058405E+02 -0.53932521680E+03  0.54417218552E+03  0.00000000000E+00 0. -1.
         -5    1    3    3    0  503  0.18068024634E+02  0.52942661595E+01 -0.40640269092E+03  0.40686572718E+03  0.47000000000E+01 0.  1.
         11    1    4    4    0    0  0.28692097366E+02 -0.19263052435E+02 -0.38304857060E+02  0.51590345171E+02  0.00000000000E+00 0. -1.
        -12    1    4    4    0    0 -0.12821577441E+00  0.56975383310E+02 -0.85134931797E+02  0.10244104331E+03  0.00000000000E+00 0.  1.
</event>
<event>
12    1  0.1030140E-001  0.2082117E+03  0.7818608E-02  0.1143433E+00
         21   -1    0    0  503  502  0.00000000000E+00  0.00000000000E+00  0.92495511648E+02  0.92495511648E+02  0.00000000000E+00 0. -1.
         21   -1    0    0  501  503 -0.00000000000E+00 -0.00000000000E+00 -0.63720565207E+03  0.63720565207E+03  0.00000000000E+00 0.  1.
          6    2    1    2  501    0  0.11526820380E+03  0.20395462126E+02 -0.80949230902E+02  0.22134468937E+03  0.16952274138E+03 0.  0.
         24    2    3    3    0    0  0.12271114235E+03  0.65281158260E+02 -0.50624881086E+02  0.16646500967E+03  0.76341776105E+02 0.  0.
         -6    2    1    2    0  502 -0.11526820380E+03 -0.20395462126E+02 -0.46376090952E+03  0.50835647435E+03  0.17218998268E+03 0.  0.
        -24    2    5    5    0    0 -0.83748634181E+02  0.12233629969E+02 -0.14515865085E+03  0.18650615176E+03  0.80932164802E+02 0.  0.
          5    1    3    3  501    0 -0.74429385524E+01 -0.44885696134E+02 -0.30324349816E+02  0.54879679696E+02  0.47000000000E+01 0. -1.
        -11    1    4    4    0    0  0.29888070216E+01 -0.12729426936E+02 -0.13567500579E+02  0.18842726700E+02  0.00000000000E+00 0.  1.
         12    1    4    4    0    0  0.11972233533E+03  0.78010585197E+02 -0.37057380507E+02  0.14762228297E+03  0.00000000000E+00 0. -1.
         -5    1    5    5    0  502 -0.31519569618E+02 -0.32629092095E+02 -0.31860225868E+03  0.32185032259E+03  0.47000000000E+01 0.  1.
         11    1    6    6    0    0 -0.45907682469E+02  0.32563686994E+02 -0.12876343231E+03  0.14052733016E+03  0.00000000000E+00 0. -1.
        -12    1    6    6    0    0 -0.37840951711E+02 -0.20330057025E+02 -0.16395218532E+02  0.45978821601E+02  0.00000000000E+00 0.  1.
</event>
<event>
12    1  0.1030140E-001  0.2166072E+03  0.7818608E-02  0.1137546E+00
         21   -1    0    0  501  502  0.00000000000E+00  0.00000000000E+00  0.12923082333E+03  0.12923082333E+03  0.00000000000E+00 0. -1.
         21   -1    0    0  502  503 -0.00000000000E+00 -0.00000000000E+00 -0.48282237376E+03  0.48282237376E+03  0.00000000000E+00 0.  1.
         -6    2    1    2    0  503 -0.12975815868E+03 -0.19264423243E+02 -0.33342753071E+03  0.39450949955E+03  0.16509248697E+03 0.  0.
        -24    2    3    3    0    0 -0.83667744817E+02 -0.48429387705E+02 -0.13113244073E+03  0.18493775806E+03  0.87524626410E+02 0.  0.
          6    2    1    2  501    0  0.12975815868E+03  0.19264423243E+02 -0.20164019725E+02  0.21754369754E+03  0.17236697741E+03 0.  0.
         24    2    5    5    0    0  0.89103268007E+02  0.32406065831E+02 -0.76718410841E+02  0.14650841011E+03  0.81175453178E+02 0.  0.
          5    1    5    5  501    0  0.40654890676E+02 -0.13141642588E+02  0.56554391117E+02  0.71035287431E+02  0.47000000000E+01 0. -1.
        -11    1    6    6    0    0 -0.44310663925E+01 -0.76980484118E+01  0.95880266073E+01  0.13069986723E+02  0.00000000000E+00 0.  1.
         12    1    6    6    0    0  0.93534334399E+02  0.40104114243E+02 -0.86306437448E+02  0.13343842339E+03  0.00000000000E+00 0. -1.
         -5    1    3    3    0  503 -0.46090413866E+02  0.29164964462E+02 -0.20229508997E+03  0.20957174149E+03  0.47000000000E+01 0.  1.
         13    1    4    4    0    0 -0.47597617150E+02 -0.13325088062E+02 -0.56651958554E+01  0.49751236912E+02  0.00000000000E+00 0. -1.
        -14    1    4    4    0    0 -0.36070127667E+02 -0.35104299642E+02 -0.12546724488E+03  0.13518652115E+03  0.00000000000E+00 0.  1.
</event>
<event>
12    1  0.1030140E-001  0.2186168E+03  0.7818608E-02  0.1135216E+00
         21   -1    0    0  501  502  0.00000000000E+00  0.00000000000E+00  0.36005982429E+02  0.36005982429E+02  0.00000000000E+00 0. -1.
         21   -1    0    0  502  503 -0.00000000000E+00 -0.00000000000E+00 -0.20867741466E+04  0.20867741466E+04  0.00000000000E+00 0.  1.
         -6    2    1    2    0  503  0.42408836691E+02 -0.12807589529E+03 -0.16720295404E+04  0.16862609845E+04  0.17202145112E+03 0.  0.
        -24    2    3    3    0    0  0.89643146199E+02 -0.11620423143E+03 -0.13079678087E+04  0.13189259183E+04  0.85126214128E+02 0.  0.
          6    2    1    2  501    0 -0.42408836691E+02  0.12807589529E+03 -0.37873862385E+03  0.43651914456E+03  0.17001198190E+03 0.  0.
         24    2    5    5    0    0 -0.22358388461E+02  0.56007431486E+01 -0.90412705620E+02  0.12258267250E+03  0.79503386101E+02 0.  0.
          5    1    5    5  501    0 -0.20050448230E+02  0.12247515214E+03 -0.28832591823E+03  0.31393647206E+03  0.47000000000E+01 0. -1.
        -11    1    6    6    0    0  0.92224214276E+01  0.16496717279E+02 -0.86968009428E+02  0.88997917964E+02  0.00000000000E+00 0.  1.
         12    1    6    6    0    0 -0.31580809889E+02 -0.10895974130E+02 -0.34446961919E+01  0.33584754537E+02  0.00000000000E+00 0. -1.
         -5    1    3    3    0  503 -0.47234309508E+02 -0.11871663864E+02 -0.36406173167E+03  0.36733506620E+03  0.47000000000E+01 0.  1.
         11    1    4    4    0    0  0.16765100625E+02 -0.45326043254E+02 -0.17962010792E+03  0.18600780082E+03  0.00000000000E+00 0. -1.
        -12    1    4    4    0    0  0.72878045574E+02 -0.70878188175E+02 -0.11283477008E+04  0.11329181175E+04  0.00000000000E+00 0.  1.
</event>
<event>
12    1  0.1030140E-001  0.2160410E+03  0.7818608E-02  0.1136950E+00
         21   -1    0    0  501  502  0.00000000000E+00  0.00000000000E+00  0.56749280193E+02  0.56749280193E+02  0.00000000000E+00 0.  1.
         21   -1    0    0  502  503 -0.00000000000E+00 -0.00000000000E+00 -0.99403247542E+03  0.99403247542E+03  0.00000000000E+00 0. -1.
         -6    2    1    2    0  503 -0.11079207652E+03 -0.69820126116E+02 -0.68755833625E+03  0.72057545806E+03  0.17129737529E+03 0.  0.
        -24    2    3    3    0    0 -0.86449790813E+01 -0.51763943547E+02 -0.46947323235E+03  0.47903196759E+03  0.79449786451E+02 0.  0.
          6    2    1    2  501    0  0.11079207652E+03  0.69820126116E+02 -0.24972485897E+03  0.33020629755E+03  0.17182537508E+03 0.  0.
         24    2    5    5    0    0 -0.13141577086E+01  0.32311999985E+02 -0.54049190375E+02  0.10154557823E+03  0.79651723921E+02 0.  0.
          5    1    5    5  501    0  0.11210623423E+03  0.37508126131E+02 -0.19567566860E+03  0.22866071932E+03  0.47000000000E+01 0. -1.
        -11    1    6    6    0    0  0.12352729382E+02  0.56674362675E+02 -0.35276892582E+02  0.67889855340E+02  0.00000000000E+00 0.  1.
         12    1    6    6    0    0 -0.13666887091E+02 -0.24362362690E+02 -0.18772297794E+02  0.33655722887E+02  0.00000000000E+00 0. -1.
         -5    1    3    3    0  503 -0.10214709744E+03 -0.18056182570E+02 -0.21808510390E+03  0.24154349047E+03  0.47000000000E+01 0.  1.
         11    1    4    4    0    0 -0.27654624125E+01 -0.24294931649E+02 -0.42938780691E+03  0.43008345726E+03  0.00000000000E+00 0. -1.
        -12    1    4    4    0    0 -0.58795166689E+01 -0.27469011898E+02 -0.40085425436E+02  0.48948510328E+02  0.00000000000E+00 0.  1.
</event>
<event>
12    1  0.1030140E-001  0.2467003E+03  0.7818608E-02  0.1115699E+00
         21   -1    0    0  503  502  0.00000000000E+00  0.00000000000E+00  0.60246492297E+03  0.60246492297E+03  0.00000000000E+00 0. -1.
         21   -1    0    0  501  503 -0.00000000000E+00 -0.00000000000E+00 -0.12714772431E+03  0.12714772431E+03  0.00000000000E+00 0.  1.
          6    2    1    2  501    0  0.16158582411E+03 -0.73410585923E+02  0.69282064801E+02  0.25450681111E+03  0.16874424351E+03 0.  0.
         24    2    3    3    0    0  0.13821026464E+03 -0.10978934422E+03  0.30408704428E+02  0.19617106750E+03  0.80016379954E+02 0.  0.
         -6    2    1    2    0  502 -0.16158582411E+03  0.73410585923E+02  0.40603513386E+03  0.47510583617E+03  0.17135324029E+03 0.  0.
        -24    2    5    5    0    0 -0.14430863656E+03 -0.48851592942E+01  0.29672217305E+03  0.33945872662E+03  0.79619920454E+02 0.  0.
          5    1    3    3  501    0  0.23375559468E+02  0.36378758300E+02  0.38873360373E+02  0.58335743610E+02  0.47000000000E+01 0. -1.
        -11    1    4    4    0    0  0.19199842538E+02 -0.58615697111E+02 -0.49723228524E+01  0.61880189850E+02  0.00000000000E+00 0.  1.
         12    1    4    4    0    0  0.11901042211E+03 -0.51173647112E+02  0.35381027280E+02  0.13429087765E+03  0.00000000000E+00 0. -1.
         -5    1    5    5    0  502 -0.17277187554E+02  0.78295745217E+02  0.10931296081E+03  0.13564710955E+03  0.47000000000E+01 0.  1.
         11    1    6    6    0    0 -0.87278388768E-01 -0.14158419915E+02  0.63740322061E+02  0.65293928725E+02  0.00000000000E+00 0. -1.
        -12    1    6    6    0    0 -0.14422135817E+03  0.92732606209E+01  0.23298185099E+03  0.27416479790E+03  0.00000000000E+00 0.  1.
</event>
<event>
12    1  0.1030140E-001  0.3343810E+03  0.7818608E-02  0.1069315E+00
         21   -1    0    0  503  502  0.00000000000E+00  0.00000000000E+00  0.68776659018E+03  0.68776659018E+03  0.00000000000E+00 0.  1.
         21   -1    0    0  501  503 -0.00000000000E+00 -0.00000000000E+00 -0.17469737993E+03  0.17469737993E+03  0.00000000000E+00 0.  1.
          6    2    1    2  501    0 -0.24197685571E+03  0.15321513611E+03  0.37255564954E+03  0.50060799734E+03  0.17257745614E+03 0.  0.
         24    2    3    3    0    0 -0.25471083178E+03  0.13070874759E+03  0.29354251301E+03  0.41733821042E+03  0.77727668223E+02 0.  0.
         -6    2    1    2    0  502  0.24197685571E+03 -0.15321513611E+03  0.14051356071E+03  0.36185597276E+03  0.17078643871E+03 0.  0.
        -24    2    5    5    0    0  0.14897037685E+03 -0.21570869952E+02  0.89467419913E+02  0.19271633692E+03  0.80484108247E+02 0.  0.
          5    1    3    3  501    0  0.12733976067E+02  0.22506388513E+02  0.79013136528E+02  0.83269786924E+02  0.47000000000E+01 0. -1.
        -11    1    4    4    0    0 -0.18584263897E+03  0.11656928019E+03  0.17990314851E+03  0.28370940483E+03  0.00000000000E+00 0.  1.
         12    1    4    4    0    0 -0.68868192806E+02  0.14139467399E+02  0.11363936450E+03  0.13362880559E+03  0.00000000000E+00 0. -1.
         -5    1    5    5    0  502  0.93006478859E+02 -0.13164426615E+03  0.51046140799E+02  0.16913963584E+03  0.47000000000E+01 0.  1.
         11    1    6    6    0    0 -0.57612707484E+01  0.21217283557E+01  0.20970470374E+02  0.21850734531E+02  0.00000000000E+00 0. -1.
        -12    1    6    6    0    0  0.15473164760E+03 -0.23692598307E+02  0.68496949539E+02  0.17086560239E+03  0.00000000000E+00 0.  1.
</event>
<event>
12    1  0.1030140E-001  0.2163403E+03  0.7818608E-02  0.1136721E+00
         21   -1    0    0  501  502  0.00000000000E+00  0.00000000000E+00  0.40197749874E+03  0.40197749874E+03  0.00000000000E+00 0.  1.
         21   -1    0    0  502  503 -0.00000000000E+00 -0.00000000000E+00 -0.15501418966E+03  0.15501418966E+03  0.00000000000E+00 0.  1.
         -6    2    1    2    0  503 -0.12138281959E+03  0.49974563521E+02 -0.15770698307E+02  0.21691434678E+03  0.17196474355E+03 0.  0.
        -24    2    3    3    0    0 -0.48909435975E+02  0.86509253194E+02  0.19137396365E+02  0.12843926579E+03  0.79084898952E+02 0.  0.
          6    2    1    2  501    0  0.12138281959E+03 -0.49974563521E+02  0.26273400739E+03  0.34007734163E+03  0.17144151702E+03 0.  0.
         24    2    5    5    0    0  0.13352028643E+03 -0.45425922379E+02  0.27653615341E+03  0.32056843412E+03  0.80004346738E+02 0.  0.
          5    1    5    5  501    0 -0.12137466836E+02 -0.45486411421E+01 -0.13802146022E+02  0.19508907510E+02  0.47000000000E+01 0. -1.
        -13    1    6    6    0    0  0.69807932976E+02 -0.36611160523E+02  0.74199357844E+02  0.10825465018E+03  0.00000000000E+00 0.  1.
         14    1    6    6    0    0  0.63712353449E+02 -0.88147618562E+01  0.20233679557E+03  0.21231378393E+03  0.00000000000E+00 0. -1.
         -5    1    3    3    0  503 -0.72473383614E+02 -0.36534689673E+02 -0.34908094672E+02  0.88475080987E+02  0.47000000000E+01 0.  1.
         13    1    4    4    0    0 -0.46290783015E+02  0.70313465126E+02  0.46770264641E+02  0.96303050963E+02  0.00000000000E+00 0. -1.
        -14    1    4    4    0    0 -0.26186529598E+01  0.16195788068E+02 -0.27632868276E+02  0.32136214830E+02  0.00000000000E+00 0.  1.
</event>
<event>
12    1  0.1030140E-001  0.1809387E+03  0.7818608E-02  0.1167340E+00
         21   -1    0    0  503  502  0.00000000000E+00  0.00000000000E+00  0.24504734732E+03  0.24504734732E+03  0.00000000000E+00 0. -1.
         21   -1    0    0  501  503 -0.00000000000E+00 -0.00000000000E+00 -0.14238383000E+03  0.14238383000E+03  0.00000000000E+00 0. -1.
          6    2    1    2  501    0  0.16532253687E+02 -0.53678720857E+02  0.10276251461E+03  0.20649242652E+03  0.17007135948E+03 0.  0.
         24    2    3    3    0    0 -0.50627272448E+02 -0.26740445964E+02  0.23724307704E+02  0.99230127665E+02  0.77495827594E+02 0.  0.
         -6    2    1    2    0  502 -0.16532253687E+02  0.53678720857E+02 -0.98997290710E-01  0.18093875081E+03  0.17200029436E+03 0.  0.
        -24    2    5    5    0    0  0.39395268852E+02  0.62098503994E+02 -0.35324683243E+02  0.11414264706E+03  0.79827935116E+02 0.  0.
          5    1    3    3  501    0  0.67159526135E+02 -0.26938274893E+02  0.79038206906E+02  0.10726229886E+03  0.47000000000E+01 0. -1.
        -13    1    4    4    0    0 -0.63788408224E+02 -0.40472230696E+02  0.26395501582E+02  0.80023027842E+02  0.00000000000E+00 0.  1.
         14    1    4    4    0    0  0.13161135776E+02  0.13731784732E+02 -0.26711938780E+01  0.19207099822E+02  0.00000000000E+00 0. -1.
         -5    1    5    5    0  502 -0.55927522539E+02 -0.84197831364E+01  0.35225685952E+02  0.66796103750E+02  0.47000000000E+01 0.  1.
         13    1    6    6    0    0  0.36152799586E+02  0.26974516892E+02 -0.57040603324E+02  0.72720560415E+02  0.00000000000E+00 0. -1.
        -14    1    6    6    0    0  0.32424692654E+01  0.35123987101E+02  0.21715920081E+02  0.41422086642E+02  0.00000000000E+00 0.  1.
</event>
<event>
12    1  0.1030140E-001  0.1919410E+03  0.7818608E-02  0.1157140E+00
         21   -1    0    0  501  502  0.00000000000E+00  0.00000000000E+00  0.90320835804E+02  0.90320835804E+02  0.00000000000E+00 0. -1.
         21   -1    0    0  502  503 -0.00000000000E+00 -0.00000000000E+00 -0.50606842107E+03  0.50606842107E+03  0.00000000000E+00 0. -1.
         -6    2    1    2    0  503  0.36478964824E+02  0.70585016309E+02 -0.34102185172E+03  0.39041528802E+03  0.17267088454E+03 0.  0.
        -24    2    3    3    0    0  0.85162709517E+02  0.45414540387E+02 -0.28416111358E+03  0.31130211973E+03  0.82742393631E+02 0.  0.
          6    2    1    2  501    0 -0.36478964824E+02 -0.70585016309E+02 -0.74725733551E+02  0.20597396886E+03  0.17472372818E+03 0.  0.
         24    2    5    5    0    0  0.24710399464E+02  0.10679679308E+02 -0.55194777756E+02  0.10228386668E+03  0.81797716958E+02 0.  0.
          5    1    5    5  501    0 -0.61189364288E+02 -0.81264695617E+02 -0.19530955795E+02  0.10369010218E+03  0.47000000000E+01 0. -1.
        -11    1    6    6    0    0  0.51822995849E+02  0.20304853278E+02 -0.26484211391E+02  0.61638651984E+02  0.00000000000E+00 0.  1.
         12    1    6    6    0    0 -0.27112596384E+02 -0.96251739697E+01 -0.28710566364E+02  0.40645214695E+02  0.00000000000E+00 0. -1.
         -5    1    3    3    0  503 -0.48683744694E+02  0.25170475923E+02 -0.56860738132E+02  0.79113168288E+02  0.47000000000E+01 0.  1.
         11    1    4    4    0    0 -0.11443322615E+01  0.33422850585E+01 -0.12756566799E+03  0.12761457604E+03  0.00000000000E+00 0. -1.
        -12    1    4    4    0    0  0.86307041779E+02  0.42072255328E+02 -0.15659544559E+03  0.18368754369E+03  0.00000000000E+00 0.  1.
</event>
<event>
12    1  0.1030140E-001  0.1796607E+03  0.7818608E-02  0.1168164E+00
         21   -1    0    0  503  502  0.00000000000E+00  0.00000000000E+00  0.13916133546E+03  0.13916133546E+03  0.00000000000E+00 0.  1.
         21   -1    0    0  501  503 -0.00000000000E+00 -0.00000000000E+00 -0.28228555247E+03  0.28228555247E+03  0.00000000000E+00 0.  1.
          6    2    1    2  501    0 -0.24452046443E+02  0.43922079371E+02 -0.16067626776E+03  0.24093086626E+03  0.17234781015E+03 0.  0.
         24    2    3    3    0    0 -0.45294420401E+02  0.84269421605E+02 -0.16098339947E+03  0.19527457526E+03  0.55349660366E+02 0.  0.
         -6    2    1    2    0  502  0.24452046443E+02 -0.43922079371E+02  0.17552050751E+02  0.18051602167E+03  0.17248451514E+03 0.  0.
        -24    2    5    5    0    0 -0.32747645992E+02  0.14184120287E+02  0.41832436003E+02  0.95311782563E+02  0.77851047565E+02 0.  0.
          5    1    3    3  501    0  0.20842373959E+02 -0.40347342235E+02  0.30713170924E+00  0.45656290996E+02  0.47000000000E+01 0. -1.
        -11    1    4    4    0    0 -0.26028993766E+01  0.53574492263E+02 -0.54233680959E+02  0.76277738933E+02  0.00000000000E+00 0.  1.
         12    1    4    4    0    0 -0.42691521025E+02  0.30694929342E+02 -0.10674971851E+03  0.11899683633E+03  0.00000000000E+00 0. -1.
         -5    1    5    5    0  502  0.57199692435E+02 -0.58106199658E+02 -0.24280385252E+02  0.85204239104E+02  0.47000000000E+01 0.  1.
         13    1    6    6    0    0  0.18878117679E+02  0.20097515421E+02 -0.15538867735E+01  0.27617168887E+02  0.00000000000E+00 0. -1.
        -14    1    6    6    0    0 -0.51625763671E+02 -0.59133951340E+01  0.43386322777E+02  0.67694613676E+02  0.00000000000E+00 0.  1.
</event>
<event>
12    1  0.1030140E-001  0.2015663E+03  0.7818608E-02  0.1149939E+00
         21   -1    0    0  501  502  0.00000000000E+00  0.00000000000E+00  0.29428088959E+03  0.29428088959E+03  0.00000000000E+00 0.  1.
         21   -1    0    0  502  503 -0.00000000000E+00 -0.00000000000E+00 -0.27762651120E+03  0.27762651120E+03  0.00000000000E+00 0.  1.
         -6    2    1    2    0  503  0.86814948054E+02 -0.30766652800E+01 -0.19781175378E+03  0.28241542472E+03  0.18188645115E+03 0.  0.
        -24    2    3    3    0    0 -0.24834411058E+02 -0.32017683937E+02 -0.10771155244E+03  0.13598012080E+03  0.72435727839E+02 0.  0.
          6    2    1    2  501    0 -0.86814948054E+02  0.30766652800E+01  0.21446613218E+03  0.28949197607E+03  0.17396431037E+03 0.  0.
         24    2    5    5    0    0 -0.76006598019E+02 -0.23814852712E+02  0.22981007894E+03  0.25636342535E+03  0.81027053038E+02 0.  0.
          5    1    5    5  501    0 -0.10808350035E+02  0.26891517992E+02 -0.15343946762E+02  0.33128550717E+02  0.47000000000E+01 0. -1.
        -13    1    6    6    0    0 -0.64696423124E+01  0.40280029745E+01 -0.55134848359E+01  0.94063592665E+01  0.00000000000E+00 0.  1.
         14    1    6    6    0    0 -0.69536955707E+02 -0.27842855687E+02  0.23532356378E+03  0.24695706609E+03  0.00000000000E+00 0. -1.
         -5    1    3    3    0  503  0.11164935911E+03  0.28941018657E+02 -0.90100201343E+02  0.14643530392E+03  0.47000000000E+01 0.  1.
         11    1    4    4    0    0 -0.39406509643E+02  0.63788233809E+01 -0.68001657083E+02  0.78852950205E+02  0.00000000000E+00 0. -1.
        -12    1    4    4    0    0  0.14572098585E+02 -0.38396507318E+02 -0.39709895356E+02  0.57127170599E+02  0.00000000000E+00 0.  1.
</event>
<event>
12    1  0.1030140E-001  0.2014398E+03  0.7818608E-02  0.1149241E+00
         21   -1    0    0  503  502  0.00000000000E+00  0.00000000000E+00  0.11470788039E+03  0.11470788039E+03  0.00000000000E+00 0.  1.
         21   -1    0    0  501  503 -0.00000000000E+00 -0.00000000000E+00 -0.58813489761E+03  0.58813489761E+03  0.00000000000E+00 0.  1.
          6    2    1    2  501    0 -0.64439725678E+02  0.65883737923E+02 -0.46251100974E+03  0.50447440950E+03  0.17912244567E+03 0.  0.
         24    2    3    3    0    0 -0.10515010595E+02  0.88729395793E+02 -0.19023792397E+03  0.22593442635E+03  0.82900097510E+02 0.  0.
         -6    2    1    2    0  502  0.64439725678E+02 -0.65883737923E+02 -0.10916007474E+02  0.19836836849E+03  0.17532171922E+03 0.  0.
        -24    2    5    5    0    0  0.39937008219E+02  0.31702918293E+02 -0.24249870152E+02  0.96764133698E+02  0.78582451693E+02 0.  0.
          5    1    3    3  501    0 -0.53924715083E+02 -0.22845657870E+02 -0.27227308577E+03  0.27853998316E+03  0.47000000000E+01 0. -1.
        -11    1    4    4    0    0  0.12635441545E+02  0.52591437579E+02 -0.17016615380E+03  0.17855540762E+03  0.00000000000E+00 0.  1.
         12    1    4    4    0    0 -0.23150452140E+02  0.36137958214E+02 -0.20071770167E+02  0.47379018730E+02  0.00000000000E+00 0. -1.
         -5    1    5    5    0  502  0.24502717459E+02 -0.97586656217E+02  0.13333862678E+02  0.10160423480E+03  0.47000000000E+01 0.  1.
         13    1    6    6    0    0  0.17322640393E+02  0.17354476402E+02 -0.52434155327E+02  0.57884301553E+02  0.00000000000E+00 0. -1.
        -14    1    6    6    0    0  0.22614367825E+02  0.14348441891E+02  0.28184285175E+02  0.38879832145E+02  0.00000000000E+00 0.  1.
</event>
<event>
12    1  0.1030140E-001  0.1778429E+03  0.7818608E-02  0.1170628E+00
         21   -1    0    0  503  502  0.00000000000E+00  0.00000000000E+00  0.32774941467E+03  0.32774941467E+03  0.00000000000E+00 0.  1.
         21   -1    0    0  501  503 -0.00000000000E+00 -0.00000000000E+00 -0.26515374967E+03  0.26515374967E+03  0.00000000000E+00 0.  1.
          6    2    1    2  501    0  0.19011620465E+02  0.14407117986E+02 -0.20613565979E+03  0.27224992611E+03  0.17623593637E+03 0.  0.
         24    2    3    3    0    0 -0.21491731837E+02  0.66101472157E+02 -0.16284301519E+03  0.19345163376E+03  0.77938359297E+02 0.  0.
         -6    2    1    2    0  502 -0.19011620465E+02 -0.14407117986E+02  0.26873132479E+03  0.32065323823E+03  0.17330022360E+03 0.  0.
        -24    2    5    5    0    0  0.18152270291E+02 -0.68742345133E+02  0.14129634430E+03  0.17714283464E+03  0.79749056547E+02 0.  0.
          5    1    3    3  501    0  0.40503352303E+02 -0.51694354171E+02 -0.43292644600E+02  0.78798292351E+02  0.47000000000E+01 0. -1.
        -11    1    4    4    0    0  0.15561046072E+02  0.22067147996E+02 -0.78508092624E+01  0.28120106358E+02  0.00000000000E+00 0.  1.
         12    1    4    4    0    0 -0.37052777909E+02  0.44034324162E+02 -0.15499220593E+03  0.16533152740E+03  0.00000000000E+00 0. -1.
         -5    1    5    5    0  502 -0.37163890756E+02  0.54335227147E+02  0.12743498049E+03  0.14351040359E+03  0.47000000000E+01 0.  1.
         11    1    6    6    0    0  0.44548098491E+02 -0.32220241498E+02  0.45829727651E+02  0.71575421605E+02  0.00000000000E+00 0. -1.
        -12    1    6    6    0    0 -0.26395828200E+02 -0.36522103636E+02  0.95466616649E+02  0.10556741303E+03  0.00000000000E+00 0.  1.
</event>
<event>
12    1  0.1030140E-001  0.1903916E+03  0.7818608E-02  0.1159981E+00
         21   -1    0    0  501  502  0.00000000000E+00  0.00000000000E+00  0.42616345864E+03  0.42616345864E+03  0.00000000000E+00 0. -1.
         21   -1    0    0  502  503 -0.00000000000E+00 -0.00000000000E+00 -0.55659892014E+03  0.55659892014E+03  0.00000000000E+00 0. -1.
         -6    2    1    2    0  503 -0.59465640203E+01  0.60074120889E+02 -0.51940998273E+03  0.55320491934E+03  0.18056769091E+03 0.  0.
        -24    2    3    3    0    0  0.67043524454E+01 -0.39195135400E+02 -0.24151143651E+03  0.25779990428E+03  0.80943249883E+02 0.  0.
          6    2    1    2  501    0  0.59465640203E+01 -0.60074120889E+02  0.38897452122E+03  0.42955745944E+03  0.17197142545E+03 0.  0.
         24    2    5    5    0    0  0.54778622373E+02 -0.41454745724E+02  0.13991098354E+03  0.17502654410E+03  0.79624207467E+02 0.  0.
          5    1    5    5  501    0 -0.48832058352E+02 -0.18619375165E+02  0.24906353769E+03  0.25453091533E+03  0.47000000000E+01 0. -1.
        -11    1    6    6    0    0  0.63179688337E+02 -0.56613847185E+02  0.12948648107E+03  0.15480164563E+03  0.00000000000E+00 0.  1.
         12    1    6    6    0    0 -0.84010659638E+01  0.15159101462E+02  0.10424502471E+02  0.20224898472E+02  0.00000000000E+00 0. -1.
         -5    1    3    3    0  503 -0.12650916466E+02  0.99269256289E+02 -0.27789854622E+03  0.29540501506E+03  0.47000000000E+01 0.  1.
         11    1    4    4    0    0  0.35173574393E+02 -0.23336806932E+02 -0.20303977027E+03  0.20738113513E+03  0.00000000000E+00 0. -1.
        -12    1    4    4    0    0 -0.28469221948E+02 -0.15858328468E+02 -0.38471666234E+02  0.50418769153E+02  0.00000000000E+00 0.  1.
</event>
<event>
12    1  0.1030140E-001  0.2067753E+03  0.7818608E-02  0.1144254E+00
         21   -1    0    0  503  502  0.00000000000E+00  0.00000000000E+00  0.15366089629E+03  0.15366089629E+03  0.00000000000E+00 0.  1.
         21   -1    0    0  501  503 -0.00000000000E+00 -0.00000000000E+00 -0.27802079556E+03  0.27802079556E+03  0.00000000000E+00 0.  1.
          6    2    1    2  501    0  0.48054652921E+02  0.10247106776E+03 -0.71362207725E+02  0.21874320913E+03  0.17305044772E+03 0.  0.
         24    2    3    3    0    0 -0.26428211638E+02  0.98733569630E+02 -0.31420699663E+02  0.13401375693E+03  0.80781548237E+02 0.  0.
         -6    2    1    2    0  502 -0.48054652921E+02 -0.10247106776E+03 -0.52997691543E+02  0.21293848271E+03  0.17240786733E+03 0.  0.
        -24    2    5    5    0    0 -0.50756448968E+02 -0.55947543077E+02 -0.97989861401E+02  0.14799140118E+03  0.81197889125E+02 0.  0.
          5    1    3    3  501    0  0.74482864559E+02  0.37374981329E+01 -0.39941508061E+02  0.84729452208E+02  0.47000000000E+01 0. -1.
        -11    1    4    4    0    0  0.17750087847E+02  0.36522644381E+02  0.16588345852E+02  0.43865047467E+02  0.00000000000E+00 0.  1.
         12    1    4    4    0    0 -0.44178299485E+02  0.62210925249E+02 -0.48009045516E+02  0.90148709459E+02  0.00000000000E+00 0. -1.
         -5    1    5    5    0  502  0.27017960474E+01 -0.46523524686E+02  0.44992169857E+02  0.64947081532E+02  0.47000000000E+01 0.  1.
         13    1    6    6    0    0  0.68171160429E+01  0.14838122159E+02 -0.30163932945E+02  0.34300230189E+02  0.00000000000E+00 0. -1.
        -14    1    6    6    0    0 -0.57573565011E+02 -0.70785665236E+02 -0.67825928456E+02  0.11369117099E+03  0.00000000000E+00 0.  1.
</event>
<event>
12    1  0.1030140E-001  0.2042038E+03  0.7818608E-02  0.1146292E+00
         21   -1    0    0  501  502  0.00000000000E+00  0.00000000000E+00  0.67964227657E+03  0.67964227657E+03  0.00000000000E+00 0. -1.
         21   -1    0    0  502  503 -0.00000000000E+00 -0.00000000000E+00 -0.10161008537E+03  0.10161008537E+03  0.00000000000E+00 0. -1.
         -6    2    1    2    0  503 -0.10837712419E+03  0.21989862487E+02  0.42805072693E+02  0.20839352573E+03  0.17136636840E+03 0.  0.
        -24    2    3    3    0    0 -0.46598006021E+02  0.70928205903E+02  0.10275202645E+00  0.11863162352E+03  0.82893105768E+02 0.  0.
          6    2    1    2  501    0  0.10837712419E+03 -0.21989862487E+02  0.53522711850E+03  0.57285883621E+03  0.17166835102E+03 0.  0.
         24    2    5    5    0    0  0.30139247054E+02 -0.66632508552E+02  0.22670682196E+03  0.25142300335E+03  0.80431822567E+02 0.  0.
          5    1    5    5  501    0  0.78237877137E+02  0.44642646066E+02  0.30852029654E+03  0.32143583286E+03  0.47000000000E+01 0. -1.
        -13    1    6    6    0    0  0.38024943150E+02 -0.24282507391E+02  0.41595908524E+02  0.61365756515E+02  0.00000000000E+00 0.  1.
         14    1    6    6    0    0 -0.78856960952E+01 -0.42350001161E+02  0.18511091344E+03  0.19005724684E+03  0.00000000000E+00 0. -1.
         -5    1    3    3    0  503 -0.61779118171E+02 -0.48938343416E+02  0.42702320666E+02  0.89761902211E+02  0.47000000000E+01 0.  1.
         11    1    4    4    0    0 -0.12918007259E+02 -0.20316335355E+01 -0.30073893802E+02  0.32793925272E+02  0.00000000000E+00 0. -1.
        -12    1    4    4    0    0 -0.33679998763E+02  0.72959839439E+02  0.30176645828E+02  0.85837698251E+02  0.00000000000E+00 0.  1.
</event>
<event>
12    1  0.1030140E-001  0.1900165E+03  0.7818608E-02  0.1158703E+00
         21   -1    0    0  503  502  0.00000000000E+00  0.00000000000E+00  0.53020159724E+03  0.53020159724E+03  0.00000000000E+00 0.  1.
         21   -1    0    0  501  503 -0.00000000000E+00 -0.00000000000E+00 -0.67709475827E+02  0.67709475827E+02  0.00000000000E+00 0.  1.
          6    2    1    2  501    0 -0.59139005900E+02 -0.51585021878E+02  0.22588757871E+03  0.29445105876E+03  0.17180742502E+03 0.  0.
         24    2    3    3    0    0 -0.68171028429E+02 -0.40179180149E+02  0.58650833780E+02  0.12651687668E+03  0.79403678431E+02 0.  0.
         -6    2    1    2    0  502  0.59139005900E+02  0.51585021878E+02  0.23660454270E+03  0.30346001430E+03  0.17305442540E+03 0.  0.
        -24    2    5    5    0    0  0.42208884885E+02 -0.32386752187E+02  0.86362943976E+02  0.13044985325E+03  0.82025084221E+02 0.  0.
          5    1    3    3  501    0  0.90320225291E+01 -0.11405841729E+02  0.16723674493E+03  0.16793418208E+03  0.47000000000E+01 0. -1.
        -13    1    4    4    0    0  0.54596805108E+01  0.10121118049E+02  0.31143516199E+02  0.33198851532E+02  0.00000000000E+00 0.  1.
         14    1    4    4    0    0 -0.73630708940E+02 -0.50300298198E+02  0.27507317581E+02  0.93318025152E+02  0.00000000000E+00 0. -1.
         -5    1    5    5    0  502  0.16930121015E+02  0.83971774065E+02  0.15024159873E+03  0.17301016105E+03  0.47000000000E+01 0.  1.
         13    1    6    6    0    0 -0.13649539289E+02  0.17956870026E+02  0.18969708711E+02  0.29472172511E+02  0.00000000000E+00 0. -1.
        -14    1    6    6    0    0  0.55858424174E+02 -0.50343622214E+02  0.67393235265E+02  0.10097768074E+03  0.00000000000E+00 0.  1.
</event>
<event>
12    1  0.1030140E-001  0.1847774E+03  0.7818608E-02  0.1163566E+00
         21   -1    0    0  501  502  0.00000000000E+00  0.00000000000E+00  0.47124859257E+03  0.47124859257E+03  0.00000000000E+00 0. -1.
         21   -1    0    0  502  503 -0.00000000000E+00 -0.00000000000E+00 -0.16321213387E+03  0.16321213387E+03  0.00000000000E+00 0. -1.
         -6    2    1    2    0  503 -0.43842384189E+02  0.48759815181E+02 -0.82970530080E+02  0.20255076105E+03  0.17275134649E+03 0.  0.
        -24    2    3    3    0    0 -0.21731776657E+02  0.99890356252E+02 -0.59175288334E+02  0.14179292431E+03  0.78442113983E+02 0.  0.
          6    2    1    2  501    0  0.43842384189E+02 -0.48759815181E+02  0.39100698878E+03  0.43190996539E+03  0.17134782957E+03 0.  0.
         24    2    5    5    0    0  0.55645726928E+02 -0.45747793111E+02  0.12813465297E+03  0.16871356322E+03  0.82803801994E+02 0.  0.
          5    1    5    5  501    0 -0.11803342739E+02 -0.30120220708E+01  0.26287233581E+03  0.26319640217E+03  0.47000000000E+01 0. -1.
        -11    1    6    6    0    0  0.70290171555E+02 -0.26580784147E+02  0.12286332081E+03  0.14402306032E+03  0.00000000000E+00 0.  1.
         12    1    6    6    0    0 -0.14644444627E+02 -0.19167008964E+02  0.52713321591E+01  0.24690502907E+02  0.00000000000E+00 0. -1.
         -5    1    3    3    0  503 -0.22110607533E+02 -0.51130541071E+02 -0.23795241746E+02  0.60757836741E+02  0.47000000000E+01 0.  1.
         11    1    4    4    0    0  0.26982617215E+02  0.43833815214E+02 -0.39732480078E+02  0.65024110614E+02  0.00000000000E+00 0. -1.
        -12    1    4    4    0    0 -0.48714393871E+02  0.56056541039E+02 -0.19442808256E+02  0.76768813697E+02  0.00000000000E+00 0.  1.
</event>
<event>
12    1  0.1030140E-001  0.1972837E+03  0.7818608E-02  0.1152185E+00
         21   -1    0    0  501  502  0.00000000000E+00  0.00000000000E+00  0.13989731176E+04  0.13989731176E+04  0.00000000000E+00 0.  1.
         21   -1    0    0  502  503 -0.00000000000E+00 -0.00000000000E+00 -0.39192619581E+02  0.39192619581E+02  0.00000000000E+00 0.  1.
         -6    2    1    2    0  503  0.13207626240E+02 -0.94943088818E+02  0.29182598815E+03  0.35225452029E+03  0.17243029955E+03 0.  0.
        -24    2    3    3    0    0  0.56163804651E+02 -0.81354005772E+02  0.27638967753E+03  0.30439779530E+03  0.80584841802E+02 0.  0.
          6    2    1    2  501    0 -0.13207626240E+02  0.94943088818E+02  0.10679545099E+04  0.10859112169E+04  0.17171984248E+03 0.  0.
         24    2    5    5    0    0 -0.31803575486E+02  0.79501608474E+02  0.10517831276E+04  0.10564518848E+04  0.50108524580E+02 0.  0.
          5    1    5    5  501    0  0.18595949246E+02  0.15441480344E+02  0.16171382320E+02  0.29459332133E+02  0.47000000000E+01 0. -1.
        -11    1    6    6    0    0 -0.39386643623E+01  0.10967132996E+02  0.44821251611E+03  0.44836397122E+03  0.00000000000E+00 0.  1.
         12    1    6    6    0    0 -0.27864911124E+02  0.68534475477E+02  0.60357061146E+03  0.60808791356E+03  0.00000000000E+00 0. -1.
         -5    1    3    3    0  503 -0.42956178411E+02 -0.13589083046E+02  0.15436310614E+02  0.47856724993E+02  0.47000000000E+01 0.  1.
         11    1    4    4    0    0  0.31581583376E+02 -0.79391195098E+02  0.26258524375E+03  0.27613650338E+03  0.00000000000E+00 0. -1.
        -12    1    4    4    0    0  0.24582221275E+02 -0.19628106743E+01  0.13804433786E+02  0.28261291915E+02  0.00000000000E+00 0.  1.
</event>
<event>
12    1  0.1030140E-001  0.1828774E+03  0.7818608E-02  0.1166071E+00
         21   -1    0    0  503  502  0.00000000000E+00  0.00000000000E+00  0.11755325694E+04  0.11755325694E+04  0.00000000000E+00 0.  1.
         21   -1    0    0  501  503 -0.00000000000E+00 -0.00000000000E+00 -0.74355735897E+02  0.74355735897E+02  0.00000000000E+00 0.  1.
          6    2    1    2  501    0  0.40095100414E+02 -0.46498914199E+02  0.53617882190E+02  0.18648626553E+03  0.16772740934E+03 0.  0.
         24    2    3    3    0    0  0.67811501967E+02 -0.81509412991E+02  0.32788807995E+02  0.13699006090E+03  0.80305582941E+02 0.  0.
         -6    2    1    2    0  502 -0.40095100414E+02  0.46498914199E+02  0.10475589513E+04  0.10634020398E+04  0.17226251944E+03 0.  0.
        -24    2    5    5    0    0  0.40734820427E+02  0.22474660584E+01  0.57313730954E+03  0.58009090711E+03  0.79716423824E+02 0.  0.
          5    1    3    3  501    0 -0.27716401554E+02  0.35010498792E+02  0.20829074195E+02  0.49496204628E+02  0.47000000000E+01 0. -1.
        -11    1    4    4    0    0  0.32725491875E+02 -0.13879909095E+02 -0.23193678390E+02  0.42444745402E+02  0.00000000000E+00 0.  1.
         12    1    4    4    0    0  0.35086010092E+02 -0.67629503896E+02  0.55982486386E+02  0.94545315502E+02  0.00000000000E+00 0. -1.
         -5    1    5    5    0  502 -0.80829920840E+02  0.44251448141E+02  0.47442164180E+03  0.48331113268E+03  0.47000000000E+01 0.  1.
         13    1    6    6    0    0  0.35215808306E+02  0.20122566371E+02  0.12199113305E+03  0.12855701994E+03  0.00000000000E+00 0. -1.
        -14    1    6    6    0    0  0.55190121210E+01 -0.17875100312E+02  0.45114617649E+03  0.45153388718E+03  0.00000000000E+00 0.  1.
</event>
<event>
12    1  0.1030140E-001  0.2299300E+03  0.7818608E-02  0.1126757E+00
         21   -1    0    0  501  502  0.00000000000E+00  0.00000000000E+00  0.20399136581E+02  0.20399136581E+02  0.00000000000E+00 0. -1.
         21   -1    0    0  502  503 -0.00000000000E+00 -0.00000000000E+00 -0.29490980597E+04  0.29490980597E+04  0.00000000000E+00 0. -1.
         -6    2    1    2    0  503  0.23503293773E+01 -0.15147086022E+03 -0.94321485377E+03  0.97074388271E+03  0.17245428348E+03 0.  0.
        -24    2    3    3    0    0  0.95334037706E+01 -0.11078198350E+03 -0.34775668870E+03  0.37383543277E+03  0.80341039368E+02 0.  0.
          6    2    1    2  501    0 -0.23503293773E+01  0.15147086022E+03 -0.19854840694E+04  0.19987533136E+04  0.17297072975E+03 0.  0.
         24    2    5    5    0    0 -0.59879028154E+02  0.11864652025E+03 -0.16102052065E+04  0.16176453192E+04  0.79706191130E+02 0.  0.
          5    1    5    5  501    0  0.57528698777E+02  0.32824339972E+02 -0.37527886286E+03  0.38110799439E+03  0.47000000000E+01 0. -1.
        -13    1    6    6    0    0 -0.47001518333E+02  0.28754700724E+02 -0.89560060212E+03  0.89729393961E+03  0.00000000000E+00 0.  1.
         14    1    6    6    0    0 -0.12877509821E+02  0.89891819526E+02 -0.71460460439E+03  0.72035137961E+03  0.00000000000E+00 0. -1.
         -5    1    3    3    0  503 -0.71830743932E+01 -0.40688876717E+02 -0.59545816508E+03  0.59690844994E+03  0.47000000000E+01 0.  1.
         13    1    4    4    0    0 -0.41910769682E+01 -0.10661594517E+03 -0.34220887124E+03  0.35845702175E+03  0.00000000000E+00 0. -1.
        -14    1    4    4    0    0  0.13724480739E+02 -0.41660383368E+01 -0.55478174603E+01  0.15378411021E+02  0.00000000000E+00 0.  1.
</event>
<event>
12    1  0.1030140E-001  0.2752136E+03  0.7818608E-02  0.1098537E+00
         21   -1    0    0  503  502  0.00000000000E+00  0.00000000000E+00  0.79262646598E+03  0.79262646598E+03  0.00000000000E+00 0. -1.
         21   -1    0    0  501  503 -0.00000000000E+00 -0.00000000000E+00 -0.14256881603E+03  0.14256881603E+03  0.00000000000E+00 0.  1.
          6    2    1    2  501    0  0.18624739282E+03  0.10515943225E+03  0.54499317423E+02  0.27912193279E+03  0.17085748519E+03 0.  0.
         24    2    3    3    0    0  0.14703777503E+03  0.13693364699E+03  0.68309852934E+02  0.22658798434E+03  0.79403700649E+02 0.  0.
         -6    2    1    2    0  502 -0.18624739282E+03 -0.10515943225E+03  0.59555833252E+03  0.65607334921E+03  0.17319328677E+03 0.  0.
        -24    2    5    5    0    0 -0.74182138622E+02  0.16803313334E+02  0.22019597330E+03  0.24576550962E+03  0.78288428460E+02 0.  0.
          5    1    3    3  501    0  0.39209617782E+02 -0.31774214737E+02 -0.13810535511E+02  0.52533948451E+02  0.47000000000E+01 0. -1.
        -11    1    4    4    0    0  0.12264622216E+03  0.65095106467E+02  0.32048850635E+02  0.14250121937E+03  0.00000000000E+00 0.  1.
         12    1    4    4    0    0  0.24391552878E+02  0.71838540520E+02  0.36261002299E+02  0.84086764973E+02  0.00000000000E+00 0. -1.
         -5    1    5    5    0  502 -0.11206525419E+03 -0.12196274558E+03  0.37536235923E+03  0.41030783959E+03  0.47000000000E+01 0.  1.
         13    1    6    6    0    0 -0.86223860714E+02  0.18315920323E+02  0.21535947770E+03  0.23270094914E+03  0.00000000000E+00 0. -1.
        -14    1    6    6    0    0  0.12041722092E+02 -0.15126069890E+01  0.48364955959E+01  0.13064560478E+02  0.00000000000E+00 0.  1.
</event>
<event>
12    1  0.1030140E-001  0.2052981E+03  0.7818608E-02  0.1145454E+00
         21   -1    0    0  503  502  0.00000000000E+00  0.00000000000E+00  0.32791566582E+04  0.32791566582E+04  0.00000000000E+00 0.  1.
         21   -1    0    0  501  503 -0.00000000000E+00 -0.00000000000E+00 -0.13481964699E+02  0.13481964699E+02  0.00000000000E+00 0.  1.
          6    2    1    2  501    0  0.10131386310E+03  0.45569017098E+02  0.12699639057E+04  0.12864507907E+04  0.17264495656E+03 0.  0.
         24    2    3    3    0    0  0.11283695744E+03  0.71432759899E+02  0.12104641649E+04  0.12203900304E+04  0.79331669349E+02 0.  0.
         -6    2    1    2    0  502 -0.10131386310E+03 -0.45569017098E+02  0.19957107878E+04  0.20061878322E+04  0.17200882304E+03 0.  0.
        -24    2    5    5    0    0 -0.73873518895E+02 -0.29708419670E+02  0.61712143604E+03  0.62722618592E+03  0.78955268873E+02 0.  0.
          5    1    3    3  501    0 -0.11523094336E+02 -0.25863742801E+02  0.59499740837E+02  0.66060760323E+02  0.47000000000E+01 0. -1.
        -13    1    4    4    0    0  0.59941973475E+02  0.21571840683E+02  0.86597444120E+03  0.86831452672E+03  0.00000000000E+00 0.  1.
         14    1    4    4    0    0  0.52894983963E+02  0.49860919216E+02  0.34448972366E+03  0.35207550369E+03  0.00000000000E+00 0. -1.
         -5    1    5    5    0  502 -0.27440344207E+02 -0.15860597428E+02  0.13785893518E+04  0.13789616463E+04  0.47000000000E+01 0.  1.
         13    1    6    6    0    0 -0.41048569040E+02 -0.56351348223E+02  0.36882236643E+03  0.37535369646E+03  0.00000000000E+00 0. -1.
        -14    1    6    6    0    0 -0.32824949855E+02  0.26642928552E+02  0.24829906961E+03  0.25187248946E+03  0.00000000000E+00 0.  1.
</event>
<event>
12    1  0.1030140E-001  0.2894695E+03  0.7818608E-02  0.1090634E+00
         21   -1    0    0  501  502  0.00000000000E+00  0.00000000000E+00  0.26398898421E+03  0.26398898421E+03  0.00000000000E+00 0. -1.
         21   -1    0    0  502  503 -0.00000000000E+00 -0.00000000000E+00 -0.22453834194E+04  0.22453834194E+04  0.00000000000E+00 0.  1.
         -6    2    1    2    0  503  0.50842131303E+01 -0.23316575039E+03 -0.21533572853E+04  0.21727264356E+04  0.17146559203E+03 0.  0.
        -24    2    3    3    0    0  0.41092393587E+02 -0.52871038095E+02 -0.84631240030E+03  0.85280553121E+03  0.80923814030E+02 0.  0.
          6    2    1    2  501    0 -0.50842131303E+01  0.23316575039E+03  0.17196285014E+03  0.33664596802E+03  0.17136851980E+03 0.  0.
         24    2    5    5    0    0  0.33585749613E+02  0.73850953581E+02  0.24706360855E+02  0.11623014704E+03  0.79480040847E+02 0.  0.
          5    1    5    5  501    0 -0.38669962743E+02  0.15931479681E+03  0.14725648929E+03  0.22041582098E+03  0.47000000000E+01 0. -1.
        -13    1    6    6    0    0  0.77596369859E+01  0.83103268038E+02  0.73958520577E+01  0.83791788097E+02  0.00000000000E+00 0.  1.
         14    1    6    6    0    0  0.25826112627E+02 -0.92523144578E+01  0.17310508797E+02  0.32438358945E+02  0.00000000000E+00 0. -1.
         -5    1    3    3    0  503 -0.36008180457E+02 -0.18029471229E+03 -0.13070448850E+04  0.13199209044E+04  0.47000000000E+01 0.  1.
         11    1    4    4    0    0  0.52424930826E+02 -0.19118101876E+02 -0.70010451210E+03  0.70232485578E+03  0.00000000000E+00 0. -1.
        -12    1    4    4    0    0 -0.11332537239E+02 -0.33752936219E+02 -0.14620788821E+03  0.15048067543E+03  0.00000000000E+00 0.  1.
</event>
<event>
12    1  0.1030140E-001  0.2500623E+03  0.7818608E-02  0.1114059E+00
         21   -1    0    0  501  502  0.00000000000E+00  0.00000000000E+00  0.36821398032E+03  0.36821398032E+03  0.00000000000E+00 0. -1.
         21   -1    0    0  502  503 -0.00000000000E+00 -0.00000000000E+00 -0.26338680700E+03  0.26338680700E+03  0.00000000000E+00 0. -1.
         -6    2    1    2    0  503 -0.17586500167E+03 -0.60506669310E+01 -0.13881824213E+03  0.28600986249E+03  0.17766830812E+03 0.  0.
        -24    2    3    3    0    0 -0.13041833919E+03 -0.69961348887E+02 -0.11509893495E+03  0.20394482772E+03  0.80263281705E+02 0.  0.
          6    2    1    2  501    0  0.17586500167E+03  0.60506669310E+01  0.24364541546E+03  0.34559092483E+03  0.17060155177E+03 0.  0.
         24    2    5    5    0    0  0.93234213806E+02  0.31815803722E+00  0.23061068241E+03  0.26161055196E+03  0.81031316209E+02 0.  0.
          5    1    5    5  501    0  0.82630787865E+02  0.57325088938E+01  0.13034733044E+02  0.83980372867E+02  0.47000000000E+01 0. -1.
        -13    1    6    6    0    0  0.79960824285E+01  0.13618493909E+02  0.43427570913E+00  0.15798395676E+02  0.00000000000E+00 0.  1.
         14    1    6    6    0    0  0.85238131377E+02 -0.13300335872E+02  0.23017640670E+03  0.24581215628E+03  0.00000000000E+00 0. -1.
         -5    1    3    3    0  503 -0.45446662478E+02  0.63910681956E+02 -0.23719307176E+02  0.82065034768E+02  0.47000000000E+01 0.  1.
         11    1    4    4    0    0 -0.49068750960E+02 -0.18423770087E+02 -0.90450752544E+02  0.10453954401E+03  0.00000000000E+00 0. -1.
        -12    1    4    4    0    0 -0.81349588232E+02 -0.51537578800E+02 -0.24648182410E+02  0.99405283714E+02  0.00000000000E+00 0.  1.
</event>
<event>
12    1  0.1030140E-001  0.1988645E+03  0.7818608E-02  0.1151066E+00
         21   -1    0    0  503  502  0.00000000000E+00  0.00000000000E+00  0.65016292224E+02  0.65016292224E+02  0.00000000000E+00 0. -1.
         21   -1    0    0  501  503 -0.00000000000E+00 -0.00000000000E+00 -0.93948185975E+03  0.93948185975E+03  0.00000000000E+00 0. -1.
          6    2    1    2  501    0  0.20580587854E+02  0.99426291562E+02 -0.73900795674E+03  0.76529724106E+03  0.17099110795E+03 0.  0.
         24    2    3    3    0    0  0.26790798105E+02  0.11680164406E+03 -0.73005551631E+03  0.74425666655E+03  0.81095979507E+02 0.  0.
         -6    2    1    2    0  502 -0.20580587854E+02 -0.99426291562E+02 -0.13545761079E+03  0.23920091092E+03  0.16899456622E+03 0.  0.
        -24    2    5    5    0    0  0.82825458877E+01 -0.11684525908E+03 -0.14615017370E+03  0.20352288098E+03  0.79625841734E+02 0.  0.
          5    1    3    3  501    0 -0.62102102513E+01 -0.17375352501E+02 -0.89524404264E+01  0.21040574505E+02  0.47000000000E+01 0. -1.
        -11    1    4    4    0    0  0.31681747717E+01  0.87151700058E+02 -0.29683923934E+03  0.30938485769E+03  0.00000000000E+00 0.  1.
         12    1    4    4    0    0  0.23622623333E+02  0.29649944005E+02 -0.43321627697E+03  0.43487180886E+03  0.00000000000E+00 0. -1.
         -5    1    5    5    0  502 -0.28863133741E+02  0.17418967517E+02  0.10692562914E+02  0.35678029940E+02  0.47000000000E+01 0.  1.
         11    1    6    6    0    0  0.12432490463E+02 -0.15759552857E+02  0.58709826369E+01  0.20914080484E+02  0.00000000000E+00 0. -1.
        -12    1    6    6    0    0 -0.41499445750E+01 -0.10108570622E+03 -0.15202115634E+03  0.18260880049E+03  0.00000000000E+00 0.  1.
</event>
<event>
12    1  0.1030140E-001  0.2074871E+03  0.7818608E-02  0.1144675E+00
         21   -1    0    0  503  502  0.00000000000E+00  0.00000000000E+00  0.28889657660E+02  0.28889657660E+02  0.00000000000E+00 0. -1.
         21   -1    0    0  501  503 -0.00000000000E+00 -0.00000000000E+00 -0.15851132635E+04  0.15851132635E+04  0.00000000000E+00 0.  1.
          6    2    1    2  501    0 -0.26932652674E+02  0.11176322545E+03 -0.10217397534E+04  0.10425943740E+04  0.17272671666E+03 0.  0.
         24    2    3    3    0    0  0.23422461383E+02  0.12008470888E+03 -0.87305156274E+03  0.88532024185E+03  0.81264693581E+02 0.  0.
         -6    2    1    2    0  502  0.26932652674E+02 -0.11176322545E+03 -0.53448385235E+03  0.57140854709E+03  0.16618770386E+03 0.  0.
        -24    2    5    5    0    0  0.84122141097E+02 -0.47550383302E+02 -0.27141356616E+03  0.29460176943E+03  0.61541084464E+02 0.  0.
          5    1    3    3  501    0 -0.50355114057E+02 -0.83214834278E+01 -0.14868819070E+03  0.15727413218E+03  0.47000000000E+01 0. -1.
        -13    1    4    4    0    0  0.47073299860E+02  0.81532960435E+02 -0.70617952063E+03  0.71242756443E+03  0.00000000000E+00 0.  1.
         14    1    4    4    0    0 -0.23650838478E+02  0.38551748446E+02 -0.16687204211E+03  0.17289267743E+03  0.00000000000E+00 0. -1.
         -5    1    5    5    0  502 -0.57189488423E+02 -0.64212842151E+02 -0.26307028619E+03  0.27680677766E+03  0.47000000000E+01 0.  1.
         11    1    6    6    0    0  0.20727078328E+02  0.10055889220E+02 -0.26359057771E+02  0.35007607896E+02  0.00000000000E+00 0. -1.
        -12    1    6    6    0    0  0.63395062769E+02 -0.57606272522E+02 -0.24505450839E+03  0.25959416153E+03  0.00000000000E+00 0.  1.
</event>
<event>
12    1  0.1030140E-001  0.1825253E+03  0.7818608E-02  0.1165483E+00
         21   -1    0    0  503  502  0.00000000000E+00  0.00000000000E+00  0.72330540400E+02  0.72330540400E+02  0.00000000000E+00 0.  1.
         21   -1    0    0  501  503 -0.00000000000E+00 -0.00000000000E+00 -0.57241304342E+03  0.57241304342E+03  0.00000000000E+00 0.  1.
          6    2    1    2  501    0 -0.80512438483E+01  0.58295453567E+02 -0.39296782026E+03  0.43310938538E+03  0.17232773864E+03 0.  0.
         24    2    3    3    0    0  0.50037026862E+02  0.28154349304E+02 -0.32183789226E+03  0.33634012364E+03  0.79048582729E+02 0.  0.
         -6    2    1    2    0  502  0.80512438483E+01 -0.58295453567E+02 -0.10711468275E+03  0.21163419844E+03  0.17277817065E+03 0.  0.
        -24    2    5    5    0    0  0.55315390009E+02 -0.44991804632E+02 -0.24501912336E+02  0.11541649516E+03  0.87387463585E+02 0.  0.
          5    1    3    3  501    0 -0.58088270710E+02  0.30141104263E+02 -0.71129928001E+02  0.96769261740E+02  0.47000000000E+01 0. -1.
        -13    1    4    4    0    0  0.14745649778E+02  0.30576531519E+02 -0.27774166943E+03  0.27980849416E+03  0.00000000000E+00 0.  1.
         14    1    4    4    0    0  0.35291377084E+02 -0.24221822151E+01 -0.44096222829E+02  0.56531629474E+02  0.00000000000E+00 0. -1.
         -5    1    5    5    0  502 -0.47264146161E+02 -0.13303648935E+02 -0.82612770418E+02  0.96217703275E+02  0.47000000000E+01 0.  1.
         11    1    6    6    0    0 -0.16812871044E+02  0.11915540580E+02 -0.12483876819E+01  0.20644883431E+02  0.00000000000E+00 0. -1.
        -12    1    6    6    0    0  0.72128261053E+02 -0.56907345211E+02 -0.23253524655E+02  0.94771611733E+02  0.00000000000E+00 0.  1.
</event>
<event>
12    1  0.1030140E-001  0.2910121E+03  0.7818608E-02  0.1089897E+00
         21   -1    0    0  501  502  0.00000000000E+00  0.00000000000E+00  0.13013156416E+03  0.13013156416E+03  0.00000000000E+00 0.  1.
         21   -1    0    0  502  503 -0.00000000000E+00 -0.00000000000E+00 -0.65954907356E+03  0.65954907356E+03  0.00000000000E+00 0. -1.
         -6    2    1    2    0  503 -0.21504333017E+03 -0.92683305687E+02 -0.31317620472E+03  0.42712257229E+03  0.17181538799E+03 0.  0.
        -24    2    3    3    0    0 -0.17617970340E+03 -0.34287304775E+02 -0.29554203239E+03  0.35464134408E+03  0.78806616895E+02 0.  0.
          6    2    1    2  501    0  0.21504333017E+03  0.92683305687E+02 -0.21624130468E+03  0.36255806542E+03  0.17278373752E+03 0.  0.
         24    2    5    5    0    0  0.20664780086E+03  0.50094952813E+02 -0.12101598661E+03  0.25780023081E+03  0.81260519873E+02 0.  0.
          5    1    5    5  501    0  0.83955293096E+01  0.42588352874E+02 -0.95225318064E+02  0.10475783462E+03  0.47000000000E+01 0. -1.
        -11    1    6    6    0    0  0.10175699139E+03  0.18955409573E+01 -0.18556453528E+02  0.10345250282E+03  0.00000000000E+00 0.  1.
         12    1    6    6    0    0  0.10489080947E+03  0.48199411855E+02 -0.10245953309E+03  0.15434772799E+03  0.00000000000E+00 0. -1.
         -5    1    3    3    0  503 -0.38863626774E+02 -0.58396000912E+02 -0.17634172336E+02  0.72481228208E+02  0.47000000000E+01 0.  1.
         13    1    4    4    0    0 -0.14843764610E+03 -0.53610864170E+01 -0.18620955145E+03  0.23819419195E+03  0.00000000000E+00 0. -1.
        -14    1    4    4    0    0 -0.27742057296E+02 -0.28926218358E+02 -0.10933248094E+03  0.11644715213E+03  0.00000000000E+00 0.  1.
</event>
<event>
12    1  0.1030140E-001  0.2908978E+03  0.7818608E-02  0.1090752E+00
         21   -1    0    0  503  502  0.00000000000E+00  0.00000000000E+00  0.34313333081E+03  0.34313333081E+03  0.00000000000E+00 0.  1.
         21   -1    0    0  501  503 -0.00000000000E+00 -0.00000000000E+00 -0.44714011224E+03  0.44714011224E+03  0.00000000000E+00 0. -1.
          6    2    1    2  501    0  0.64331520980E+02 -0.21853553390E+03 -0.32058277675E+03  0.43289124127E+03  0.18090103884E+03 0.  0.
         24    2    3    3    0    0  0.54624404193E+02 -0.33584062411E+02 -0.82784824811E+02  0.13144268701E+03  0.79448964547E+02 0.  0.
         -6    2    1    2    0  502 -0.64331520980E+02  0.21853553390E+03  0.21657599532E+03  0.35738220177E+03  0.17006043698E+03 0.  0.
        -24    2    5    5    0    0  0.17990050184E+02  0.12912745991E+03  0.16550976014E+03  0.22547126534E+03  0.80288654158E+02 0.  0.
          5    1    3    3  501    0  0.97071167863E+01 -0.18495147149E+03 -0.23779795194E+03  0.30144855427E+03  0.47000000000E+01 0. -1.
        -11    1    4    4    0    0  0.56357353800E+02 -0.32956991056E+02 -0.97101099261E+02  0.11700828203E+03  0.00000000000E+00 0.  1.
         12    1    4    4    0    0 -0.17329496070E+01 -0.62707135463E+00  0.14316274450E+02  0.14434404974E+02  0.00000000000E+00 0. -1.
         -5    1    5    5    0  502 -0.82321571164E+02  0.89408073986E+02  0.51066235184E+02  0.13191093643E+03  0.47000000000E+01 0.  1.
         11    1    6    6    0    0  0.23267411871E+02 -0.51217212630E+00  0.28076425996E+02  0.36468074698E+02  0.00000000000E+00 0. -1.
        -12    1    6    6    0    0 -0.52773616867E+01  0.12963963204E+03  0.13743333414E+03  0.18900319065E+03  0.00000000000E+00 0.  1.
</event>
<event>
12    1  0.1030140E-001  0.1897844E+03  0.7818608E-02  0.1159487E+00
         21   -1    0    0  501  502  0.00000000000E+00  0.00000000000E+00  0.78630472801E+02  0.78630472801E+02  0.00000000000E+00 0. -1.
         21   -1    0    0  502  503 -0.00000000000E+00 -0.00000000000E+00 -0.60332596980E+03  0.60332596980E+03  0.00000000000E+00 0. -1.
         -6    2    1    2    0  503  0.37200751340E+02 -0.64868619872E+02 -0.43272362035E+03  0.47106084176E+03  0.17046040973E+03 0.  0.
        -24    2    3    3    0    0  0.63602406759E+02  0.47689178973E+01 -0.30832271980E+03  0.32599496661E+03  0.84509230183E+02 0.  0.
          6    2    1    2  501    0 -0.37200751340E+02  0.64868619872E+02 -0.91971876658E+02  0.21089560085E+03  0.17443134643E+03 0.  0.
         24    2    5    5    0    0 -0.59827887813E+02  0.10416735530E+03 -0.79696019262E+02  0.16368157131E+03  0.77524107414E+02 0.  0.
          5    1    5    5  501    0  0.22627136472E+02 -0.39298735423E+02 -0.12275857396E+02  0.47214029542E+02  0.47000000000E+01 0. -1.
        -13    1    6    6    0    0 -0.32761172913E+02  0.20049885851E+01 -0.37622784999E+02  0.49927831727E+02  0.00000000000E+00 0.  1.
         14    1    6    6    0    0 -0.27066714899E+02  0.10216236671E+03 -0.42073234263E+02  0.11375373958E+03  0.00000000000E+00 0. -1.
         -5    1    3    3    0  503 -0.26401655418E+02 -0.69637537769E+02 -0.12440090055E+03  0.14506587515E+03  0.47000000000E+01 0.  1.
         13    1    4    4    0    0  0.47545892783E+02  0.16467663183E+02 -0.30043598548E+03  0.30462038216E+03  0.00000000000E+00 0. -1.
        -14    1    4    4    0    0  0.16056513975E+02 -0.11698745285E+02 -0.78867343131E+01  0.21374584450E+02  0.00000000000E+00 0.  1.
</event>
<event>
12    1  0.1030140E-001  0.2003161E+03  0.7818608E-02  0.1149821E+00
         21   -1    0    0  501  502  0.00000000000E+00  0.00000000000E+00  0.42741875587E+03  0.42741875587E+03  0.00000000000E+00 0. -1.
         21   -1    0    0  502  503 -0.00000000000E+00 -0.00000000000E+00 -0.13481243329E+03  0.13481243329E+03  0.00000000000E+00 0.  1.
         -6    2    1    2    0  503 -0.15041683347E+02  0.99160213356E+02 -0.96286869588E+01  0.20054735898E+03  0.17339991762E+03 0.  0.
        -24    2    3    3    0    0 -0.70229440698E+02  0.30621032401E+02 -0.12573679628E+01  0.11202912996E+03  0.81725901768E+02 0.  0.
          6    2    1    2  501    0  0.15041683347E+02 -0.99160213356E+02  0.30223500954E+03  0.36168383017E+03  0.17149399950E+03 0.  0.
         24    2    5    5    0    0 -0.37751314727E+02 -0.10560628978E+03  0.16858215927E+03  0.21776084058E+03  0.80137313792E+02 0.  0.
          5    1    5    5  501    0  0.52792998074E+02  0.64460764280E+01  0.13365285027E+03  0.14392298959E+03  0.47000000000E+01 0. -1.
        -13    1    6    6    0    0 -0.19571934230E+02 -0.98527464191E+02  0.17077574638E+03  0.19812894125E+03  0.00000000000E+00 0.  1.
         14    1    6    6    0    0 -0.18179380496E+02 -0.70788255930E+01 -0.21935871098E+01  0.19631899333E+02  0.00000000000E+00 0. -1.
         -5    1    3    3    0  503  0.55187757351E+02  0.68539180954E+02 -0.83713189960E+01  0.88518229021E+02  0.47000000000E+01 0.  1.
         13    1    4    4    0    0 -0.69491216383E+02 -0.10563996431E+02 -0.61000728814E+01  0.70553795533E+02  0.00000000000E+00 0. -1.
        -14    1    4    4    0    0 -0.73822431496E+00  0.41185028832E+02  0.48427049186E+01  0.41475334429E+02  0.00000000000E+00 0.  1.
</event>
<event>
12    1  0.1030140E-001  0.1809016E+03  0.7818608E-02  0.1167392E+00
         21   -1    0    0  501  502  0.00000000000E+00  0.00000000000E+00  0.14240568482E+03  0.14240568482E+03  0.00000000000E+00 0.  1.
         21   -1    0    0  502  503 -0.00000000000E+00 -0.00000000000E+00 -0.22807362211E+03  0.22807362211E+03  0.00000000000E+00 0.  1.
         -6    2    1    2    0  503  0.54832112263E+02  0.30215308798E+01 -0.53136577335E+02  0.18854410845E+03  0.17236500455E+03 0.  0.
        -24    2    3    3    0    0  0.45487626870E+02 -0.64143406590E+02 -0.88603633035E+01  0.10742123028E+03  0.72645122827E+02 0.  0.
          6    2    1    2  501    0 -0.54832112263E+02 -0.30215308798E+01 -0.32531359946E+02  0.18193519848E+03  0.17037146734E+03 0.  0.
         24    2    5    5    0    0 -0.60259802022E+02  0.59202164551E+01  0.41255752395E+02  0.10726229437E+03  0.78338177055E+02 0.  0.
          5    1    5    5  501    0  0.54276897597E+01 -0.89417473349E+01 -0.73787112341E+02  0.74672904116E+02  0.47000000000E+01 0. -1.
        -13    1    6    6    0    0 -0.78881187873E+02  0.10483138093E+02  0.36279178943E+02  0.87454655733E+02  0.00000000000E+00 0.  1.
         14    1    6    6    0    0  0.18621385851E+02 -0.45629216383E+01  0.49765734517E+01  0.19807638633E+02  0.00000000000E+00 0. -1.
         -5    1    3    3    0  503  0.93444853929E+01  0.67164937469E+02 -0.44276214031E+02  0.81122878163E+02  0.47000000000E+01 0.  1.
         11    1    4    4    0    0 -0.55429909544E+00 -0.51167664518E+02  0.15864878240E+02  0.53573608253E+02  0.00000000000E+00 0. -1.
        -12    1    4    4    0    0  0.46041925965E+02 -0.12975742071E+02 -0.24725241543E+02  0.53847622030E+02  0.00000000000E+00 0.  1.
</event>
<event>
12    1  0.1030140E-001  0.2423149E+03  0.7818608E-02  0.1118447E+00
         21   -1    0    0  503  502  0.00000000000E+00  0.00000000000E+00  0.25959610045E+03  0.25959610045E+03  0.00000000000E+00 0.  1.
         21   -1    0    0  501  503 -0.00000000000E+00 -0.00000000000E+00 -0.24150425362E+03  0.24150425362E+03  0.00000000000E+00 0.  1.
          6    2    1    2  501    0 -0.44581920307E+01  0.16872406496E+03 -0.56213007764E+02  0.24764870676E+03  0.17228550184E+03 0.  0.
         24    2    3    3    0    0  0.36930277732E+02  0.97156447857E+02 -0.88961302313E+02  0.15860113496E+03  0.80230829038E+02 0.  0.
         -6    2    1    2    0  502  0.44581920307E+01 -0.16872406496E+03  0.74304854595E+02  0.25345164732E+03  0.17386443150E+03 0.  0.
        -24    2    5    5    0    0  0.27455009837E+02 -0.17471246662E+03  0.21302240628E+02  0.19517573745E+03  0.79759384893E+02 0.  0.
          5    1    3    3  501    0 -0.41388469762E+02  0.71567617101E+02  0.32748294549E+02  0.89047571796E+02  0.47000000000E+01 0. -1.
        -13    1    4    4    0    0 -0.22528143341E+02  0.35139086249E+02 -0.47407358870E+02  0.63164311916E+02  0.00000000000E+00 0.  1.
         14    1    4    4    0    0  0.59458421072E+02  0.62017361608E+02 -0.41553943443E+02  0.95436823045E+02  0.00000000000E+00 0. -1.
         -5    1    5    5    0  502 -0.22996817806E+02  0.59884016571E+01  0.53002613967E+02  0.58275909868E+02  0.47000000000E+01 0.  1.
         13    1    6    6    0    0  0.43411135126E+02 -0.88153100897E+02 -0.16042311766E+02  0.99563304573E+02  0.00000000000E+00 0. -1.
        -14    1    6    6    0    0 -0.15956125289E+02 -0.86559365718E+02  0.37344552393E+02  0.95612432880E+02  0.00000000000E+00 0.  1.
</event>
<event>
12    1  0.1030140E-001  0.2262642E+03  0.7818608E-02  0.1129391E+00
         21   -1    0    0  501  502  0.00000000000E+00  0.00000000000E+00  0.14517082480E+03  0.14517082480E+03  0.00000000000E+00 0. -1.
         21   -1    0    0  502  503 -0.00000000000E+00 -0.00000000000E+00 -0.12130201560E+04  0.12130201560E+04  0.00000000000E+00 0.  1.
         -6    2    1    2    0  503  0.13625371823E+03  0.56031717744E+02 -0.11062968019E+04  0.11291979927E+04  0.17172904153E+03 0.  0.
        -24    2    3    3    0    0  0.56858525160E+01  0.13404173143E+02 -0.24852993373E+03  0.26049138789E+03  0.76659209680E+02 0.  0.
          6    2    1    2  501    0 -0.13625371823E+03 -0.56031717744E+02  0.38447470655E+02  0.22899298814E+03  0.17104078897E+03 0.  0.
         24    2    5    5    0    0 -0.60809770641E+02 -0.83911451311E+02 -0.16250559490E+02  0.13161212106E+03  0.79490312990E+02 0.  0.
          5    1    5    5  501    0 -0.75443947589E+02  0.27879733567E+02  0.54698030145E+02  0.97380867080E+02  0.47000000000E+01 0. -1.
        -11    1    6    6    0    0 -0.57075188432E+02 -0.76373284776E+02 -0.42249843943E+02  0.10428568970E+03  0.00000000000E+00 0.  1.
         12    1    6    6    0    0 -0.37345822088E+01 -0.75381665352E+01  0.25999284453E+02  0.27326431363E+02  0.00000000000E+00 0. -1.
         -5    1    3    3    0  503  0.13056786571E+03  0.42627544601E+02 -0.85776686815E+03  0.86870660479E+03  0.47000000000E+01 0.  1.
         13    1    4    4    0    0  0.79629577083E+01 -0.26338222656E+02 -0.17240085471E+03  0.17458283242E+03  0.00000000000E+00 0. -1.
        -14    1    4    4    0    0 -0.22771051923E+01  0.39742395800E+02 -0.76129079017E+02  0.85908555476E+02  0.00000000000E+00 0.  1.
</event>
<event>
12    1  0.1030140E-001  0.1867313E+03  0.7818608E-02  0.1161529E+00
         21   -1    0    0  501  502  0.00000000000E+00  0.00000000000E+00  0.12275314075E+04  0.12275314075E+04  0.00000000000E+00 0.  1.
         21   -1    0    0  502  503 -0.00000000000E+00 -0.00000000000E+00 -0.86844264780E+02  0.86844264780E+02  0.00000000000E+00 0.  1.
         -6    2    1    2    0  503  0.37434233167E+02 -0.63113478732E+02  0.31167655744E+02  0.18931458562E+03  0.17170892974E+03 0.  0.
        -24    2    3    3    0    0 -0.13523760977E+02  0.13486741881E+02 -0.17402782334E+02  0.85172910866E+02  0.81159001933E+02 0.  0.
          6    2    1    2  501    0 -0.37434233167E+02  0.63113478732E+02  0.11095194870E+04  0.11250610867E+04  0.17130184977E+03 0.  0.
         24    2    5    5    0    0 -0.84597436149E+02  0.13157527869E+02  0.71130225953E+03  0.72093361299E+03  0.80402258580E+02 0.  0.
          5    1    5    5  501    0  0.47163202982E+02  0.49955950863E+02  0.39821722748E+03  0.40412747371E+03  0.47000000000E+01 0. -1.
        -11    1    6    6    0    0 -0.47443132995E+02  0.33827013189E+02  0.57999570368E+03  0.58291520308E+03  0.00000000000E+00 0.  1.
         12    1    6    6    0    0 -0.37154303154E+02 -0.20669485321E+02  0.13130655585E+03  0.13801840992E+03  0.00000000000E+00 0. -1.
         -5    1    3    3    0  503  0.50957994144E+02 -0.76600220613E+02  0.48570438078E+02  0.10414167475E+03  0.47000000000E+01 0.  1.
         11    1    4    4    0    0 -0.27709081478E+02 -0.18602953337E+02 -0.32857583303E+02  0.46834643692E+02  0.00000000000E+00 0. -1.
        -12    1    4    4    0    0  0.14185320501E+02  0.32089695218E+02  0.15454800969E+02  0.38338267174E+02  0.00000000000E+00 0.  1.
</event>
<event>
12    1  0.1030140E-001  0.1830409E+03  0.7818608E-02  0.1165007E+00
         21   -1    0    0  501  502  0.00000000000E+00  0.00000000000E+00  0.22367760521E+04  0.22367760521E+04  0.00000000000E+00 0.  1.
         21   -1    0    0  502  503 -0.00000000000E+00 -0.00000000000E+00 -0.25512406256E+02  0.25512406256E+02  0.00000000000E+00 0.  1.
         -6    2    1    2    0  503 -0.48342868224E+02 -0.34375460249E+02  0.37658562754E+03  0.41850229987E+03  0.17265206328E+03 0.  0.
        -24    2    3    3    0    0 -0.66974047729E+02 -0.80449920356E+02  0.26623276500E+03  0.29738326341E+03  0.81235506042E+02 0.  0.
          6    2    1    2  501    0  0.48342868224E+02  0.34375460249E+02  0.18346780183E+04  0.18437861585E+04  0.17316253110E+03 0.  0.
         24    2    5    5    0    0  0.57317383654E+02  0.65540376980E+02  0.17320557699E+04  0.17360586790E+04  0.79383395623E+02 0.  0.
          5    1    5    5  501    0 -0.89745154304E+01 -0.31164916730E+02  0.10262224846E+03  0.10772747951E+03  0.47000000000E+01 0. -1.
        -11    1    6    6    0    0  0.66625712124E+02  0.17517463842E+02  0.99811447657E+03  0.10004890581E+04  0.00000000000E+00 0.  1.
         12    1    6    6    0    0 -0.93083284697E+01  0.48022913138E+02  0.73394129329E+03  0.73556962088E+03  0.00000000000E+00 0. -1.
         -5    1    3    3    0  503  0.18631179505E+02  0.46074460106E+02  0.11035286254E+03  0.12111903647E+03  0.47000000000E+01 0.  1.
         11    1    4    4    0    0 -0.35652587667E+02  0.95584769300E+01  0.65780148461E+02  0.75428770507E+02  0.00000000000E+00 0. -1.
        -12    1    4    4    0    0 -0.31321460062E+02 -0.90008397286E+02  0.20045261654E+03  0.22195449290E+03  0.00000000000E+00 0.  1.
</event>
<event>
12    1  0.1030140E-001  0.2142178E+03  0.7818608E-02  0.1138568E+00
         21   -1    0    0  501  502  0.00000000000E+00  0.00000000000E+00  0.15830690217E+03  0.15830690217E+03  0.00000000000E+00 0. -1.
         21   -1    0    0  502  503 -0.00000000000E+00 -0.00000000000E+00 -0.29877048604E+03  0.29877048604E+03  0.00000000000E+00 0. -1.
         -6    2    1    2    0  503  0.87055659588E+02 -0.95171444744E+02 -0.26661702537E+02  0.21587055898E+03  0.17103496745E+03 0.  0.
        -24    2    3    3    0    0  0.91362434270E+02 -0.10244443711E+03  0.27083469354E+02  0.16126215095E+03  0.80187342675E+02 0.  0.
          6    2    1    2  501    0 -0.87055659588E+02  0.95171444744E+02 -0.11380188133E+03  0.24120682924E+03  0.16909634684E+03 0.  0.
         24    2    5    5    0    0 -0.11617104967E+03  0.93129547360E+02 -0.60067505267E+02  0.17987699591E+03  0.81109821216E+02 0.  0.
          5    1    5    5  501    0  0.29115390078E+02  0.20418973834E+01 -0.53734376064E+02  0.61329833322E+02  0.47000000000E+01 0. -1.
        -13    1    6    6    0    0 -0.39445337032E+02 -0.73395141164E+01 -0.48846253299E+00  0.40125324630E+02  0.00000000000E+00 0.  1.
         14    1    6    6    0    0 -0.76725712634E+02  0.10046906148E+03 -0.59579042734E+02  0.13975167128E+03  0.00000000000E+00 0. -1.
         -5    1    3    3    0  503 -0.43067746818E+01  0.72729923686E+01 -0.53745171891E+02  0.54608408031E+02  0.47000000000E+01 0.  1.
         11    1    4    4    0    0 -0.46666659785E+01 -0.39262853321E+02  0.24035955879E+02  0.46271768902E+02  0.00000000000E+00 0. -1.
        -12    1    4    4    0    0  0.96029100248E+02 -0.63181583791E+02  0.30475134748E+01  0.11499038205E+03  0.00000000000E+00 0.  1.
</event>
<event>
12    1  0.1030140E-001  0.2226495E+03  0.7818608E-02  0.1132127E+00
         21   -1    0    0  501  502  0.00000000000E+00  0.00000000000E+00  0.30175384900E+03  0.30175384900E+03  0.00000000000E+00 0. -1.
         21   -1    0    0  502  503 -0.00000000000E+00 -0.00000000000E+00 -0.73212193931E+03  0.73212193931E+03  0.00000000000E+00 0. -1.
         -6    2    1    2    0  503  0.13914362487E+03  0.21378443487E+02 -0.67065129725E+03  0.70629556843E+03  0.17106221467E+03 0.  0.
        -24    2    3    3    0    0  0.76758912580E+02  0.66711593792E+02 -0.54047144244E+03  0.55491580940E+03  0.74025725433E+02 0.  0.
          6    2    1    2  501    0 -0.13914362487E+03 -0.21378443487E+02  0.24028320694E+03  0.32758021988E+03  0.17249578178E+03 0.  0.
         24    2    5    5    0    0 -0.39063955222E+02  0.37295732220E+02  0.65643359458E+02  0.11786668789E+03  0.81648889969E+02 0.  0.
          5    1    5    5  501    0 -0.10007966964E+03 -0.58674175707E+02  0.17463984748E+03  0.20971353199E+03  0.47000000000E+01 0. -1.
        -13    1    6    6    0    0 -0.41863807009E+02  0.39676402322E+02  0.58653783381E+01  0.57975838946E+02  0.00000000000E+00 0.  1.
         14    1    6    6    0    0  0.27998517862E+01 -0.23806701021E+01  0.59777981120E+02  0.59890848941E+02  0.00000000000E+00 0. -1.
         -5    1    3    3    0  503  0.62384712288E+02 -0.45333150305E+02 -0.13017985482E+03  0.15137975903E+03  0.47000000000E+01 0.  1.
         13    1    4    4    0    0  0.39038757278E+02 -0.20283157884E+01 -0.97258189289E+02  0.10482029392E+03  0.00000000000E+00 0. -1.
        -14    1    4    4    0    0  0.37720155302E+02  0.68739909581E+02 -0.44321325315E+03  0.45009551547E+03  0.00000000000E+00 0.  1.
</event>
<event>
12    1  0.1030140E-001  0.1726109E+03  0.7818608E-02  0.1176268E+00
         21   -1    0    0  503  502  0.00000000000E+00  0.00000000000E+00  0.10725138303E+04  0.10725138303E+04  0.00000000000E+00 0. -1.
         21   -1    0    0  501  503 -0.00000000000E+00 -0.00000000000E+00 -0.55179036818E+02  0.55179036818E+02  0.00000000000E+00 0. -1.
          6    2    1    2  501    0 -0.12539028383E+02 -0.50212682330E+00  0.10955435754E+03  0.20444237696E+03  0.17215414278E+03 0.  0.
         24    2    3    3    0    0  0.88986822524E+01  0.64720867162E+02  0.74469970939E+02  0.12719848681E+03  0.79785345041E+02 0.  0.
         -6    2    1    2    0  502  0.12539028383E+02  0.50212682330E+00  0.90778043594E+03  0.92325049016E+03  0.16783524166E+03 0.  0.
        -24    2    5    5    0    0  0.17337483911E+02  0.45785329849E+02  0.80806583354E+03  0.81352954602E+03  0.80393072663E+02 0.  0.
          5    1    3    3  501    0 -0.21437710636E+02 -0.65222993985E+02  0.35084386603E+02  0.77243890147E+02  0.47000000000E+01 0. -1.
        -11    1    4    4    0    0 -0.94086492290E+01  0.78095651656E+02  0.67000483060E+02  0.10332723851E+03  0.00000000000E+00 0.  1.
         12    1    4    4    0    0  0.18307331481E+02 -0.13374784495E+02  0.74694878797E+01  0.23871248301E+02  0.00000000000E+00 0. -1.
         -5    1    5    5    0  502 -0.47984555275E+01 -0.45283203025E+02  0.99714602396E+02  0.10972094414E+03  0.47000000000E+01 0.  1.
         13    1    6    6    0    0 -0.18175043406E+02  0.54578415561E+02  0.50147621540E+03  0.50476482669E+03  0.00000000000E+00 0. -1.
        -14    1    6    6    0    0  0.35512527317E+02 -0.87930857123E+01  0.30658961814E+03  0.30876471933E+03  0.00000000000E+00 0.  1.
</event>
<event>
12    1  0.1030140E-001  0.2194109E+03  0.7818608E-02  0.1134929E+00
         21   -1    0    0  503  502  0.00000000000E+00  0.00000000000E+00  0.12066708312E+03  0.12066708312E+03  0.00000000000E+00 0. -1.
         21   -1    0    0  501  503 -0.00000000000E+00 -0.00000000000E+00 -0.46243690716E+03  0.46243690716E+03  0.00000000000E+00 0. -1.
          6    2    1    2  501    0  0.25655550016E+02  0.13508075496E+03 -0.28481718599E+03  0.35953020959E+03  0.17098574375E+03 0.  0.
         24    2    3    3    0    0  0.40642140354E+02  0.13675701333E+03 -0.29666219561E+03  0.33978680601E+03  0.84216096838E+02 0.  0.
         -6    2    1    2    0  502 -0.25655550016E+02 -0.13508075496E+03 -0.56952638056E+02  0.22357378069E+03  0.16684308443E+03 0.  0.
        -24    2    5    5    0    0 -0.54826109759E+02 -0.13727120488E+03 -0.80060824312E+02  0.18599988152E+03  0.79604863780E+02 0.  0.
          5    1    3    3  501    0 -0.14986590339E+02 -0.16762583734E+01  0.11845009616E+02  0.19743403580E+02  0.47000000000E+01 0. -1.
        -13    1    4    4    0    0  0.79107613183E+01  0.50742314806E+01 -0.10238617411E+03  0.10281661645E+03  0.00000000000E+00 0.  1.
         14    1    4    4    0    0  0.32731379036E+02  0.13168278185E+03 -0.19427602150E+03  0.23697018956E+03  0.00000000000E+00 0. -1.
         -5    1    5    5    0  502  0.29170559744E+02  0.21904499162E+01  0.23108186257E+02  0.37573899168E+02  0.47000000000E+01 0.  1.
         11    1    6    6    0    0 -0.71267118882E+02 -0.76477396303E+02 -0.43908656505E+02  0.11338326374E+03  0.00000000000E+00 0. -1.
        -12    1    6    6    0    0  0.16441009123E+02 -0.60793808573E+02 -0.36152167807E+02  0.72616617788E+02  0.00000000000E+00 0.  1.
</event>
<event>
12    1  0.1030140E-001  0.1819070E+03  0.7818608E-02  0.1166417E+00
         21   -1    0    0  503  502  0.00000000000E+00  0.00000000000E+00  0.37396888936E+03  0.37396888936E+03  0.00000000000E+00 0.  1.
         21   -1    0    0  501  503 -0.00000000000E+00 -0.00000000000E+00 -0.90604281128E+02  0.90604281128E+02  0.00000000000E+00 0.  1.
          6    2    1    2  501    0 -0.10768230563E+02 -0.59261588415E+02  0.98533176585E+02  0.20524170442E+03  0.16966873517E+03 0.  0.
         24    2    3    3    0    0 -0.63379325752E+02 -0.69417018280E+02  0.43290940748E+02  0.12813882047E+03  0.75563155057E+02 0.  0.
         -6    2    1    2    0  502  0.10768230563E+02  0.59261588415E+02  0.18483143164E+03  0.25933146606E+03  0.17164574133E+03 0.  0.
        -24    2    5    5    0    0 -0.63451466682E+02  0.21981817152E+02  0.11707349932E+03  0.15203947103E+03  0.70003625618E+02 0.  0.
          5    1    3    3  501    0  0.52611095189E+02  0.10155429865E+02  0.55242235837E+02  0.77102883947E+02  0.47000000000E+01 0. -1.
        -13    1    4    4    0    0 -0.78523782323E+02 -0.42566118958E+02  0.27223269251E+02  0.93375399662E+02  0.00000000000E+00 0.  1.
         14    1    4    4    0    0  0.15144456571E+02 -0.26850899322E+02  0.16067671497E+02  0.34763420812E+02  0.00000000000E+00 0. -1.
         -5    1    5    5    0  502  0.74219697245E+02  0.37279771263E+02  0.67757932324E+02  0.10729199503E+03  0.47000000000E+01 0.  1.
         13    1    6    6    0    0 -0.45083608010E+02 -0.14960598860E+02  0.31376033054E+02  0.56928083400E+02  0.00000000000E+00 0. -1.
        -14    1    6    6    0    0 -0.18367858672E+02  0.36942416012E+02  0.85697466266E+02  0.95111387633E+02  0.00000000000E+00 0.  1.
</event>
<event>
12    1  0.1030140E-001  0.4708202E+03  0.7818608E-02  0.1021781E+00
         21   -1    0    0  503  502  0.00000000000E+00  0.00000000000E+00  0.73292731734E+03  0.73292731734E+03  0.00000000000E+00 0.  1.
         21   -1    0    0  501  503 -0.00000000000E+00 -0.00000000000E+00 -0.92768373601E+03  0.92768373601E+03  0.00000000000E+00 0.  1.
          6    2    1    2  501    0 -0.32332331121E+03 -0.29568850797E+03 -0.77943677973E+03  0.90992950735E+03  0.16876124389E+03 0.  0.
         24    2    3    3    0    0 -0.33831943927E+03 -0.27391783551E+03 -0.73617599173E+03  0.85901357846E+03  0.80363011325E+02 0.  0.
         -6    2    1    2    0  502  0.32332331121E+03  0.29568850797E+03  0.58468036106E+03  0.75068154599E+03  0.17234268641E+03 0.  0.
        -24    2    5    5    0    0  0.91565473975E+02  0.16420477968E+03  0.23675073776E+03  0.31241589745E+03  0.78773951604E+02 0.  0.
          5    1    3    3  501    0  0.14996128062E+02 -0.21770672463E+02 -0.43260788003E+02  0.50915928892E+02  0.47000000000E+01 0. -1.
        -13    1    4    4    0    0 -0.22375196312E+03 -0.22726837847E+03 -0.53501712213E+03  0.62286369121E+03  0.00000000000E+00 0.  1.
         14    1    4    4    0    0 -0.11456747614E+03 -0.46649457042E+02 -0.20115886959E+03  0.23614988725E+03  0.00000000000E+00 0. -1.
         -5    1    5    5    0  502  0.23175783723E+03  0.13148372829E+03  0.34792962330E+03  0.43826564854E+03  0.47000000000E+01 0.  1.
         11    1    6    6    0    0  0.72006143821E+02  0.50054284026E+02  0.93187390889E+02  0.12796173615E+03  0.00000000000E+00 0. -1.
        -12    1    6    6    0    0  0.19559330154E+02  0.11415049566E+03  0.14356334688E+03  0.18445416130E+03  0.00000000000E+00 0.  1.
</event>
<event>
12    1  0.1030140E-001  0.2145680E+03  0.7818608E-02  0.1138024E+00
         21   -1    0    0  503  502  0.00000000000E+00  0.00000000000E+00  0.58718716337E+03  0.58718716337E+03  0.00000000000E+00 0. -1.
         21   -1    0    0  501  503 -0.00000000000E+00 -0.00000000000E+00 -0.81970401154E+02  0.81970401154E+02  0.00000000000E+00 0. -1.
          6    2    1    2  501    0  0.51698269617E+02  0.11794736487E+03  0.18245387108E+03  0.28165373595E+03  0.17162493974E+03 0.  0.
         24    2    3    3    0    0  0.25497137407E+02  0.36543287549E+02  0.17253720954E+03  0.19543567919E+03  0.80252726724E+02 0.  0.
         -6    2    1    2    0  502 -0.51698269617E+02 -0.11794736487E+03  0.32276289114E+03  0.38750382858E+03  0.17146148636E+03 0.  0.
        -24    2    5    5    0    0 -0.35945956813E+02 -0.13792738914E+03  0.18348657986E+03  0.24584466857E+03  0.80350479722E+02 0.  0.
          5    1    3    3  501    0  0.26201132210E+02  0.81404077325E+02  0.99166615424E+01  0.86218056754E+02  0.47000000000E+01 0. -1.
        -13    1    4    4    0    0  0.35287209170E+02 -0.15273697481E+02  0.84032322745E+02  0.92411602257E+02  0.00000000000E+00 0.  1.
         14    1    4    4    0    0 -0.97900717637E+01  0.51816985030E+02  0.88504886790E+02  0.10302407694E+03  0.00000000000E+00 0. -1.
         -5    1    5    5    0  502 -0.15752312803E+02  0.19980024271E+02  0.13927631129E+03  0.14165916001E+03  0.47000000000E+01 0.  1.
         11    1    6    6    0    0 -0.31850159993E+02 -0.73166985665E+02  0.15629530598E+03  0.17548807126E+03  0.00000000000E+00 0. -1.
        -12    1    6    6    0    0 -0.40957968206E+01 -0.64760403479E+02  0.27191273871E+02  0.70356597310E+02  0.00000000000E+00 0.  1.
</event>
<event>
12    1  0.1030140E-001  0.1889407E+03  0.7818608E-02  0.1159602E+00
         21   -1    0    0  503  502  0.00000000000E+00  0.00000000000E+00  0.48166782803E+02  0.48166782803E+02  0.00000000000E+00 0.  1.
         21   -1    0    0  501  503 -0.00000000000E+00 -0.00000000000E+00 -0.76815508897E+03  0.76815508897E+03  0.00000000000E+00 0.  1.
          6    2    1    2  501    0 -0.51110578221E+02 -0.58457181031E+02 -0.27840841176E+03  0.33601845234E+03  0.17136984378E+03 0.  0.
         24    2    3    3    0    0 -0.84691370908E+01 -0.24678378601E+01 -0.44672078407E+02  0.91871237368E+02  0.79792939284E+02 0.  0.
         -6    2    1    2    0  502  0.51110578221E+02  0.58457181031E+02 -0.44157989441E+03  0.48030341943E+03  0.17224702712E+03 0.  0.
        -24    2    5    5    0    0  0.82494434545E+02  0.83582501452E+00 -0.20876852419E+03  0.23837700250E+03  0.80207657324E+02 0.  0.
          5    1    3    3  501    0 -0.42641441130E+02 -0.55989343171E+02 -0.23373633335E+03  0.24414721498E+03  0.47000000000E+01 0. -1.
        -11    1    4    4    0    0 -0.60605197801E+01 -0.36184545767E+02 -0.10742134609E+01  0.36704293849E+02  0.00000000000E+00 0.  1.
         12    1    4    4    0    0 -0.24086173107E+01  0.33716707907E+02 -0.43597864946E+02  0.55166943519E+02  0.00000000000E+00 0. -1.
         -5    1    5    5    0  502 -0.31383856324E+02  0.57621356017E+02 -0.23281137022E+03  0.24192641693E+03  0.47000000000E+01 0.  1.
         11    1    6    6    0    0  0.14075101167E+02 -0.34942813206E+02 -0.62286589827E+02  0.72792361824E+02  0.00000000000E+00 0. -1.
        -12    1    6    6    0    0  0.68419333377E+02  0.35778638220E+02 -0.14648193436E+03  0.16558464067E+03  0.00000000000E+00 0.  1.
</event>
<event>
12    1  0.1030140E-001  0.3048614E+03  0.7818608E-02  0.1082911E+00
         21   -1    0    0  501  502  0.00000000000E+00  0.00000000000E+00  0.66066035240E+02  0.66066035240E+02  0.00000000000E+00 0. -1.
         21   -1    0    0  502  503 -0.00000000000E+00 -0.00000000000E+00 -0.14162926846E+04  0.14162926846E+04  0.00000000000E+00 0. -1.
         -6    2    1    2    0  503 -0.20445626521E+03 -0.14701428993E+03 -0.60657675056E+03  0.67887833862E+03  0.17182804923E+03 0.  0.
        -24    2    3    3    0    0 -0.18870255139E+03 -0.16097984702E+03 -0.60028061200E+03  0.65640729849E+03  0.94923992284E+02 0.  0.
          6    2    1    2  501    0  0.20445626521E+03  0.14701428993E+03 -0.74364989877E+03  0.80348038118E+03  0.17073366740E+03 0.  0.
         24    2    5    5    0    0  0.53003972288E+02  0.67882867349E+02 -0.43003927686E+03  0.44630634623E+03  0.82692625342E+02 0.  0.
          5    1    5    5  501    0  0.15145229292E+03  0.79131422584E+02 -0.31361062191E+03  0.35717403495E+03  0.47000000000E+01 0. -1.
        -13    1    6    6    0    0  0.44866740642E+02  0.25093509502E+02 -0.36123356089E+03  0.36487312062E+03  0.00000000000E+00 0.  1.
         14    1    6    6    0    0  0.81372316469E+01  0.42789357848E+02 -0.68805715970E+02  0.81433225615E+02  0.00000000000E+00 0. -1.
         -5    1    3    3    0  503 -0.15753713824E+02  0.13965557085E+02 -0.62961385504E+01  0.22471040132E+02  0.47000000000E+01 0.  1.
         13    1    4    4    0    0 -0.94887721532E+02 -0.13133033226E+03 -0.30808421307E+03  0.34809081891E+03  0.00000000000E+00 0. -1.
        -14    1    4    4    0    0 -0.93814829855E+02 -0.29649514762E+02 -0.29219639894E+03  0.30831647957E+03  0.00000000000E+00 0.  1.
</event>
<event>
12    1  0.1030140E-001  0.3435242E+03  0.7818608E-02  0.1065474E+00
         21   -1    0    0  501  502  0.00000000000E+00  0.00000000000E+00  0.19416133811E+03  0.19416133811E+03  0.00000000000E+00 0. -1.
         21   -1    0    0  502  503 -0.00000000000E+00 -0.00000000000E+00 -0.75884587926E+03  0.75884587926E+03  0.00000000000E+00 0. -1.
         -6    2    1    2    0  503  0.29345028155E+03 -0.25627831378E+02 -0.49745044795E+03  0.60453770699E+03  0.17674568601E+03 0.  0.
        -24    2    3    3    0    0  0.17523312434E+03 -0.17114966693E+02 -0.18309661087E+03  0.26854932920E+03  0.87148168939E+02 0.  0.
          6    2    1    2  501    0 -0.29345028155E+03  0.25627831378E+02 -0.67234093202E+02  0.34846951038E+03  0.17361083748E+03 0.  0.
         24    2    5    5    0    0 -0.83971512546E+02 -0.33943627112E+02 -0.44171459621E+02  0.12941680348E+03  0.81204719310E+02 0.  0.
          5    1    5    5  501    0 -0.20947876900E+03  0.59571458491E+02 -0.23062633581E+02  0.21905270689E+03  0.47000000000E+01 0. -1.
        -11    1    6    6    0    0 -0.86758012699E+02 -0.52777620076E+02 -0.43188283838E+02  0.11035242548E+03  0.00000000000E+00 0.  1.
         12    1    6    6    0    0  0.27865001530E+01  0.18833992964E+02 -0.98317578232E+00  0.19064378004E+02  0.00000000000E+00 0. -1.
         -5    1    3    3    0  503  0.11821715721E+03 -0.85128646849E+01 -0.31435383708E+03  0.33598837779E+03  0.47000000000E+01 0.  1.
         13    1    4    4    0    0  0.80313226300E+02 -0.31469579577E+01 -0.14406967780E+03  0.16497330004E+03  0.00000000000E+00 0. -1.
        -14    1    4    4    0    0  0.94919898041E+02 -0.13968008735E+02 -0.39026933069E+02  0.10357602916E+03  0.00000000000E+00 0.  1.
</event>
<event>
12    1  0.1030140E-001  0.2446906E+03  0.7818608E-02  0.1116782E+00
         21   -1    0    0  501  502  0.00000000000E+00  0.00000000000E+00  0.29182784312E+03  0.29182784312E+03  0.00000000000E+00 0. -1.
         21   -1    0    0  502  503 -0.00000000000E+00 -0.00000000000E+00 -0.46455312661E+03  0.46455312661E+03  0.00000000000E+00 0. -1.
         -6    2    1    2    0  503  0.33389582749E+02  0.17041681471E+03 -0.36920590189E+03  0.44292943024E+03  0.17238540311E+03 0.  0.
        -24    2    3    3    0    0 -0.22255750865E+02  0.16112853141E+03 -0.32407433419E+03  0.37053037111E+03  0.76228995481E+02 0.  0.
          6    2    1    2  501    0 -0.33389582749E+02 -0.17041681471E+03  0.19648061840E+03  0.31345153949E+03  0.17172792209E+03 0.  0.
         24    2    5    5    0    0 -0.68494349531E+02 -0.17994656422E+03  0.14881408076E+03  0.25330713337E+03  0.70332291951E+02 0.  0.
          5    1    5    5  501    0  0.35104766781E+02  0.95297495108E+01  0.47666537637E+02  0.60144406114E+02  0.47000000000E+01 0. -1.
        -11    1    6    6    0    0 -0.56102857896E+02 -0.54247146503E+02  0.66629998598E+02  0.10261501002E+03  0.00000000000E+00 0.  1.
         12    1    6    6    0    0 -0.12391491635E+02 -0.12569941772E+03  0.82184082167E+02  0.15069212336E+03  0.00000000000E+00 0. -1.
         -5    1    3    3    0  503  0.55645333614E+02  0.92882833008E+01 -0.45131567706E+02  0.72399059133E+02  0.47000000000E+01 0.  1.
         11    1    4    4    0    0 -0.39023998378E+02  0.35106463822E+02 -0.92886811611E+02  0.10669253030E+03  0.00000000000E+00 0. -1.
        -12    1    4    4    0    0  0.16768247513E+02  0.12602206759E+03 -0.23118752258E+03  0.26383784080E+03  0.00000000000E+00 0.  1.
</event>
<event>
12    1  0.1030140E-001  0.1832770E+03  0.7818608E-02  0.1164697E+00
         21   -1    0    0  501  502  0.00000000000E+00  0.00000000000E+00  0.43255951295E+02  0.43255951295E+02  0.00000000000E+00 0. -1.
         21   -1    0    0  502  503 -0.00000000000E+00 -0.00000000000E+00 -0.10272516210E+04  0.10272516210E+04  0.00000000000E+00 0. -1.
         -6    2    1    2    0  503  0.60783326051E+02 -0.75850877855E+01 -0.75681018847E+03  0.77868614258E+03  0.17273766525E+03 0.  0.
        -24    2    3    3    0    0  0.97739035215E+02 -0.35525094595E+02 -0.62901179623E+03  0.64266817509E+03  0.80941905920E+02 0.  0.
          6    2    1    2  501    0 -0.60783326051E+02  0.75850877855E+01 -0.22718548128E+03  0.29182142975E+03  0.17261042170E+03 0.  0.
         24    2    5    5    0    0 -0.79350472036E+01  0.63594144299E+02 -0.10136707205E+03  0.14423309320E+03  0.80129406042E+02 0.  0.
          5    1    5    5  501    0 -0.52848278848E+02 -0.56009056514E+02 -0.12581840922E+03  0.14758833656E+03  0.47000000000E+01 0. -1.
        -13    1    6    6    0    0  0.75383668036E+01 -0.17705041403E+02 -0.13357756736E+02  0.23424882714E+02  0.00000000000E+00 0.  1.
         14    1    6    6    0    0 -0.15473414007E+02  0.81299185702E+02 -0.88009315319E+02  0.12080821048E+03  0.00000000000E+00 0. -1.
         -5    1    3    3    0  503 -0.36955709164E+02  0.27940006809E+02 -0.12779839224E+03  0.13601796749E+03  0.47000000000E+01 0.  1.
         13    1    4    4    0    0  0.45534537858E+02  0.17575508525E+02 -0.36864949927E+03  0.37186657008E+03  0.00000000000E+00 0. -1.
        -14    1    4    4    0    0  0.52204497357E+02 -0.53100603120E+02 -0.26036229696E+03  0.27080160501E+03  0.00000000000E+00 0.  1.
</event>
<event>
12    1  0.1030140E-001  0.2401897E+03  0.7818608E-02  0.1119713E+00
         21   -1    0    0  501  502  0.00000000000E+00  0.00000000000E+00  0.73115899766E+03  0.73115899766E+03  0.00000000000E+00 0.  1.
         21   -1    0    0  502  503 -0.00000000000E+00 -0.00000000000E+00 -0.13108217508E+03  0.13108217508E+03  0.00000000000E+00 0.  1.
         -6    2    1    2    0  503  0.32370469828E+02  0.16401863972E+03  0.27903184639E+02  0.24180507996E+03  0.17245621905E+03 0.  0.
        -24    2    3    3    0    0  0.52918811214E+02  0.85853805465E+02  0.74099489351E+02  0.14859475748E+03  0.80114862132E+02 0.  0.
          6    2    1    2  501    0 -0.32370469828E+02 -0.16401863972E+03  0.57217363794E+03  0.62043609278E+03  0.17207065926E+03 0.  0.
         24    2    5    5    0    0 -0.26882541308E+02 -0.16747570982E+03  0.57981866303E+03  0.60936337398E+03  0.79770014038E+02 0.  0.
          5    1    5    5  501    0 -0.54879285194E+01  0.34570700937E+01 -0.76450250905E+01  0.11072718804E+02  0.47000000000E+01 0. -1.
        -13    1    6    6    0    0 -0.43660878627E+02 -0.94361946378E+02  0.24329925306E+03  0.26458453429E+03  0.00000000000E+00 0.  1.
         14    1    6    6    0    0  0.16778337319E+02 -0.73113763438E+02  0.33651940997E+03  0.34477883969E+03  0.00000000000E+00 0. -1.
         -5    1    3    3    0  503 -0.20548341386E+02  0.78164834257E+02 -0.46196304712E+02  0.93210322482E+02  0.47000000000E+01 0.  1.
         11    1    4    4    0    0  0.41354108957E+02  0.29916453948E+01  0.86112173003E+01  0.42346963683E+02  0.00000000000E+00 0. -1.
        -12    1    4    4    0    0  0.11564702257E+02  0.82862160070E+02  0.65488272051E+02  0.10624779379E+03  0.00000000000E+00 0.  1.
</event>
<event>
12    1  0.1030140E-001  0.2548507E+03  0.7818608E-02  0.1110329E+00
         21   -1    0    0  503  502  0.00000000000E+00  0.00000000000E+00  0.54639230308E+03  0.54639230308E+03  0.00000000000E+00 0.  1.
         21   -1    0    0  501  503 -0.00000000000E+00 -0.00000000000E+00 -0.14502566728E+03  0.14502566728E+03  0.00000000000E+00 0. -1.
          6    2    1    2  501    0  0.17811133346E+03 -0.60096916570E+02  0.53318944948E+02  0.26004099034E+03  0.17158997720E+03 0.  0.
         24    2    3    3    0    0  0.13477699049E+03 -0.10167710685E+03  0.56358436739E+02  0.19972427611E+03  0.90611488518E+02 0.  0.
         -6    2    1    2    0  502 -0.17811133346E+03  0.60096916570E+02  0.34804769085E+03  0.43137698002E+03  0.17208607526E+03 0.  0.
        -24    2    5    5    0    0 -0.40866391018E+02  0.52645267449E+02  0.22115111807E+03  0.24424993365E+03  0.79426865508E+02 0.  0.
          5    1    3    3  501    0  0.43334342970E+02  0.41580190285E+02 -0.30394917904E+01  0.60316714227E+02  0.47000000000E+01 0. -1.
        -13    1    4    4    0    0 -0.12295841598E+02 -0.19708147372E+02  0.63244919224E+01  0.24074841464E+02  0.00000000000E+00 0.  1.
         14    1    4    4    0    0  0.14707283209E+03 -0.81968959483E+02  0.50033944816E+02  0.17564943465E+03  0.00000000000E+00 0. -1.
         -5    1    5    5    0  502 -0.13724494244E+03  0.74516491206E+01  0.12689657278E+03  0.18712704637E+03  0.47000000000E+01 0.  1.
         13    1    6    6    0    0 -0.67385525341E+01  0.58309079085E+02  0.81874709577E+02  0.10074137612E+03  0.00000000000E+00 0. -1.
        -14    1    6    6    0    0 -0.34127838484E+02 -0.56638116358E+01  0.13927640849E+03  0.14350855753E+03  0.00000000000E+00 0.  1.
</event>
<event>
12    1  0.1030140E-001  0.1923283E+03  0.7818608E-02  0.1157625E+00
         21   -1    0    0  503  502  0.00000000000E+00  0.00000000000E+00  0.96119198813E+03  0.96119198813E+03  0.00000000000E+00 0.  1.
         21   -1    0    0  501  503 -0.00000000000E+00 -0.00000000000E+00 -0.10801027622E+03  0.10801027622E+03  0.00000000000E+00 0.  1.
          6    2    1    2  501    0 -0.54867924291E+02  0.61954518464E+02 -0.35319961748E+01  0.19236070338E+03  0.17361253910E+03 0.  0.
         24    2    3    3    0    0 -0.91391773239E+02  0.86142384901E+02 -0.10281772641E+02  0.14778835873E+03  0.77218633993E+02 0.  0.
         -6    2    1    2    0  502  0.54867924291E+02 -0.61954518464E+02  0.85671370809E+03  0.87684156098E+03  0.16746311224E+03 0.  0.
        -24    2    5    5    0    0 -0.17114247773E+02  0.12225615195E+02  0.38011994575E+03  0.38914510864E+03  0.80624929636E+02 0.  0.
          5    1    3    3  501    0  0.36523848948E+02 -0.24187866436E+02  0.67497764657E+01  0.44572344644E+02  0.47000000000E+01 0. -1.
        -13    1    4    4    0    0 -0.59068948687E+02  0.19555137394E+02 -0.32909970903E+02  0.70388992622E+02  0.00000000000E+00 0.  1.
         14    1    4    4    0    0 -0.32322824552E+02  0.66587247507E+02  0.22628198262E+02  0.77399366109E+02  0.00000000000E+00 0. -1.
         -5    1    5    5    0  502  0.71982172064E+02 -0.74180133659E+02  0.47659376234E+03  0.48769645234E+03  0.47000000000E+01 0.  1.
         11    1    6    6    0    0  0.30285293546E+02  0.10232180327E+02  0.98508835614E+02  0.10356585930E+03  0.00000000000E+00 0. -1.
        -12    1    6    6    0    0 -0.47399541319E+02  0.19934348672E+01  0.28161111013E+03  0.28557924933E+03  0.00000000000E+00 0.  1.
</event>
<event>
12    1  0.1030140E-001  0.1848404E+03  0.7818608E-02  0.1165086E+00
         21   -1    0    0  501  502  0.00000000000E+00  0.00000000000E+00  0.24007158225E+03  0.24007158225E+03  0.00000000000E+00 0. -1.
         21   -1    0    0  502  503 -0.00000000000E+00 -0.00000000000E+00 -0.22912889568E+03  0.22912889568E+03  0.00000000000E+00 0. -1.
         -6    2    1    2    0  503  0.42074196942E+02 -0.94508161100E+01 -0.14375486029E+03  0.23416110364E+03  0.17973983039E+03 0.  0.
        -24    2    3    3    0    0 -0.87919671513E+01  0.37558811040E+02 -0.13830252383E+03  0.16452569837E+03  0.80331527764E+02 0.  0.
          6    2    1    2  501    0 -0.42074196942E+02  0.94508161100E+01  0.15469754687E+03  0.23503937428E+03  0.17161765784E+03 0.  0.
         24    2    5    5    0    0  0.95431668104E+01 -0.29549899942E+02  0.14747874143E+03  0.16977369230E+03  0.78159188862E+02 0.  0.
          5    1    5    5  501    0 -0.51617363752E+02  0.39000716052E+02  0.72188054390E+01  0.65265681987E+02  0.47000000000E+01 0. -1.
        -13    1    6    6    0    0  0.10786170395E+00  0.24816604004E+02  0.72850080106E+02  0.76961091727E+02  0.00000000000E+00 0.  1.
         14    1    6    6    0    0  0.94353051065E+01 -0.54366503946E+02  0.74628661321E+02  0.92812600569E+02  0.00000000000E+00 0. -1.
         -5    1    3    3    0  503  0.50866164093E+02 -0.47009627150E+02 -0.54523364567E+01  0.69635405270E+02  0.47000000000E+01 0.  1.
         13    1    4    4    0    0 -0.36298485620E+02  0.24012484895E+02 -0.12256210557E+03  0.13006017535E+03  0.00000000000E+00 0. -1.
        -14    1    4    4    0    0  0.27506518469E+02  0.13546326145E+02 -0.15740418261E+02  0.34465523024E+02  0.00000000000E+00 0.  1.
</event>
<event>
12    1  0.1030140E-001  0.2287767E+03  0.7818608E-02  0.1127616E+00
         21   -1    0    0  501  502  0.00000000000E+00  0.00000000000E+00  0.21285677886E+03  0.21285677886E+03  0.00000000000E+00 0.  1.
         21   -1    0    0  502  503 -0.00000000000E+00 -0.00000000000E+00 -0.51116905228E+03  0.51116905228E+03  0.00000000000E+00 0.  1.
         -6    2    1    2    0  503 -0.14730945824E+03 -0.27241945105E+02 -0.41018291632E+03  0.46936167962E+03  0.17207022230E+03 0.  0.
        -24    2    3    3    0    0 -0.15377791158E+01 -0.10185131761E+01 -0.13447077319E+03  0.15634997587E+03  0.79746623626E+02 0.  0.
          6    2    1    2  501    0  0.14730945824E+03  0.27241945105E+02  0.11187064290E+03  0.25466415152E+03  0.17290630198E+03 0.  0.
         24    2    5    5    0    0  0.10929429696E+03  0.70203230738E+02  0.12276453993E+03  0.19608436368E+03  0.80648673035E+02 0.  0.
          5    1    5    5  501    0  0.38015161285E+02 -0.42961285634E+02 -0.10893897030E+02  0.58579787840E+02  0.47000000000E+01 0. -1.
        -13    1    6    6    0    0  0.33483870687E+02 -0.10072312259E+00  0.75116408727E+02  0.82241440901E+02  0.00000000000E+00 0.  1.
         14    1    6    6    0    0  0.75810426269E+02  0.70303953861E+02  0.47648131198E+02  0.11384292278E+03  0.00000000000E+00 0. -1.
         -5    1    3    3    0  503 -0.14577167913E+03 -0.26223431928E+02 -0.27571214313E+03  0.31301170375E+03  0.47000000000E+01 0.  1.
         13    1    4    4    0    0  0.29408868782E+02  0.10376862881E+02 -0.11245331353E+03  0.11669750885E+03  0.00000000000E+00 0. -1.
        -14    1    4    4    0    0 -0.30946647898E+02 -0.11395376057E+02 -0.22017459654E+02  0.39652467026E+02  0.00000000000E+00 0.  1.
</event>
<event>
12    1  0.1030140E-001  0.1763114E+03  0.7818608E-02  0.1172199E+00
         21   -1    0    0  501  502  0.00000000000E+00  0.00000000000E+00  0.77359699053E+03  0.77359699053E+03  0.00000000000E+00 0. -1.
         21   -1    0    0  502  503 -0.00000000000E+00 -0.00000000000E+00 -0.73356237310E+02  0.73356237310E+02  0.00000000000E+00 0. -1.
         -6    2    1    2    0  503  0.11130872276E+02  0.37177915817E+02  0.60679876118E+02  0.18353492913E+03  0.16881033471E+03 0.  0.
        -24    2    3    3    0    0  0.33726883031E+02  0.22234176955E+02 -0.24757371250E+02  0.93782445761E+02  0.80934284688E+02 0.  0.
          6    2    1    2  501    0 -0.11130872276E+02 -0.37177915817E+02  0.63956087711E+03  0.66341829871E+03  0.17198729546E+03 0.  0.
         24    2    5    5    0    0  0.41924100026E+01  0.45576717170E+02  0.28688162301E+03  0.30080572511E+03  0.78026951701E+02 0.  0.
          5    1    5    5  501    0 -0.15323282278E+02 -0.82754632987E+02  0.35267925410E+03  0.36261257360E+03  0.47000000000E+01 0. -1.
        -13    1    6    6    0    0  0.21421633720E+02 -0.10190494704E+00  0.19385400993E+02  0.28891011535E+02  0.00000000000E+00 0.  1.
         14    1    6    6    0    0 -0.17229223717E+02  0.45678622117E+02  0.26749622201E+03  0.27191471358E+03  0.00000000000E+00 0. -1.
         -5    1    3    3    0  503 -0.22596010755E+02  0.14943738862E+02  0.85437247369E+02  0.89752483371E+02  0.47000000000E+01 0.  1.
         11    1    4    4    0    0 -0.12785218028E+02  0.37629059942E+02 -0.20190244343E+02  0.44576382971E+02  0.00000000000E+00 0. -1.
        -12    1    4    4    0    0  0.46512101059E+02 -0.15394882987E+02 -0.45671269074E+01  0.49206062790E+02  0.00000000000E+00 0.  1.
</event>
<event>
12    1  0.1030140E-001  0.1765316E+03  0.7818608E-02  0.1173709E+00
         21   -1    0    0  501  502  0.00000000000E+00  0.00000000000E+00  0.22173086069E+03  0.22173086069E+03  0.00000000000E+00 0.  1.
         21   -1    0    0  502  503 -0.00000000000E+00 -0.00000000000E+00 -0.15220598110E+03  0.15220598110E+03  0.00000000000E+00 0.  1.
         -6    2    1    2    0  503 -0.15895282324E+02  0.36179230867E+02 -0.31011954972E+02  0.17923488205E+03  0.17205175048E+03 0.  0.
        -24    2    3    3    0    0  0.19833115894E+02 -0.96149293976E+01  0.34280437015E+02  0.91720254669E+02  0.82168469630E+02 0.  0.
          6    2    1    2  501    0  0.15895282324E+02 -0.36179230867E+02  0.10053683456E+03  0.19470195974E+03  0.16198642312E+03 0.  0.
         24    2    5    5    0    0  0.25441699804E+02 -0.30303400418E+02  0.13303127396E+03  0.16000847243E+03  0.79622956685E+02 0.  0.
          5    1    5    5  501    0 -0.95464174802E+01 -0.58758304487E+01 -0.32494439396E+02  0.34693487312E+02  0.47000000000E+01 0. -1.
        -13    1    6    6    0    0  0.38725070943E+02  0.54964415914E+01  0.10665185889E+03  0.11359780365E+03  0.00000000000E+00 0.  1.
         14    1    6    6    0    0 -0.13283371139E+02 -0.35799842009E+02  0.26379415067E+02  0.46410668773E+02  0.00000000000E+00 0. -1.
         -5    1    3    3    0  503 -0.35728398218E+02  0.45794160264E+02 -0.65292391987E+02  0.87514627377E+02  0.47000000000E+01 0.  1.
         11    1    4    4    0    0 -0.14854244929E+02  0.22460965465E+02  0.35380489361E+02  0.44462597646E+02  0.00000000000E+00 0. -1.
        -12    1    4    4    0    0  0.34687360824E+02 -0.32075894863E+02 -0.11000523455E+01  0.47257657023E+02  0.00000000000E+00 0.  1.
</event>
<event>
12    1  0.1030140E-001  0.1908756E+03  0.7818608E-02  0.1158102E+00
         21   -1    0    0  503  502  0.00000000000E+00  0.00000000000E+00  0.44715428668E+03  0.44715428668E+03  0.00000000000E+00 0. -1.
         21   -1    0    0  501  503 -0.00000000000E+00 -0.00000000000E+00 -0.80724079051E+02  0.80724079051E+02  0.00000000000E+00 0. -1.
          6    2    1    2  501    0  0.30176028425E+02 -0.72158624257E+02  0.19102866793E+03  0.27004709107E+03  0.17411496110E+03 0.  0.
         24    2    3    3    0    0 -0.16680105279E+01 -0.10803688787E+03  0.17193994651E+03  0.21820346174E+03  0.79841431043E+02 0.  0.
         -6    2    1    2    0  502 -0.30176028425E+02  0.72158624257E+02  0.17540153970E+03  0.25783127466E+03  0.17202850438E+03 0.  0.
        -24    2    5    5    0    0  0.22265121814E+02  0.73339425838E+02  0.50923289271E+02  0.12267065406E+03  0.81120286896E+02 0.  0.
          5    1    3    3  501    0  0.31844038953E+02  0.35878263613E+02  0.19088721426E+02  0.51843629333E+02  0.47000000000E+01 0. -1.
        -11    1    4    4    0    0 -0.23038528217E+02 -0.29513709721E+02  0.12986789674E+02  0.39629402594E+02  0.00000000000E+00 0.  1.
         12    1    4    4    0    0  0.21370517690E+02 -0.78523178149E+02  0.15895315683E+03  0.17857405914E+03  0.00000000000E+00 0. -1.
         -5    1    5    5    0  502 -0.52441150240E+02 -0.11808015811E+01  0.12447825043E+03  0.13516062060E+03  0.47000000000E+01 0.  1.
         11    1    6    6    0    0  0.38909864764E+01  0.92878644599E+01  0.54997028561E+02  0.55911334741E+02  0.00000000000E+00 0. -1.
        -12    1    6    6    0    0  0.18374135338E+02  0.64051561378E+02 -0.40737392901E+01  0.66759319321E+02  0.00000000000E+00 0.  1.
</event>
<event>
12    1  0.1030140E-001  0.3566262E+03  0.7818608E-02  0.1059955E+00
         21   -1    0    0  503  502  0.00000000000E+00  0.00000000000E+00  0.18383447516E+04  0.18383447516E+04  0.00000000000E+00 0. -1.
         21   -1    0    0  501  503 -0.00000000000E+00 -0.00000000000E+00 -0.72519644222E+02  0.72519644222E+02  0.00000000000E+00 0.  1.
          6    2    1    2  501    0  0.24416435498E+03 -0.19470157637E+03  0.67670477291E+03  0.76492588406E+03  0.17221301444E+03 0.  0.
         24    2    3    3    0    0  0.26399373165E+03 -0.16929394882E+03  0.63055196547E+03  0.70843762553E+03  0.77038669855E+02 0.  0.
         -6    2    1    2    0  502 -0.24416435498E+03  0.19470157637E+03  0.10891203345E+04  0.11459385118E+04  0.17165964494E+03 0.  0.
        -24    2    5    5    0    0 -0.24231045885E+03  0.19547457645E+03  0.10933039589E+04  0.11393334249E+04  0.76435842266E+02 0.  0.
          5    1    3    3  501    0 -0.19829376671E+02 -0.25407627556E+02  0.46152807433E+02  0.56488258524E+02  0.47000000000E+01 0. -1.
        -13    1    4    4    0    0  0.14147998877E+03 -0.10256639756E+03  0.26765501334E+03  0.31964927545E+03  0.00000000000E+00 0.  1.
         14    1    4    4    0    0  0.12251374287E+03 -0.66727551256E+02  0.36289695213E+03  0.38878835008E+03  0.00000000000E+00 0. -1.
         -5    1    5    5    0  502 -0.18538961286E+01 -0.77300007698E+00 -0.41836244047E+01  0.66050869134E+01  0.47000000000E+01 0.  1.
         11    1    6    6    0    0 -0.96387336336E+02  0.33139419060E+02  0.37388331648E+03  0.38752738489E+03  0.00000000000E+00 0. -1.
        -12    1    6    6    0    0 -0.14592312251E+03  0.16233515739E+03  0.71942064240E+03  0.75180603996E+03  0.00000000000E+00 0.  1.
</event>
<event>
12    1  0.1030140E-001  0.1905958E+03  0.7818608E-02  0.1159995E+00
         21   -1    0    0  501  502  0.00000000000E+00  0.00000000000E+00  0.16123027366E+03  0.16123027366E+03  0.00000000000E+00 0.  1.
         21   -1    0    0  502  503 -0.00000000000E+00 -0.00000000000E+00 -0.26599396289E+03  0.26599396289E+03  0.00000000000E+00 0.  1.
         -6    2    1    2    0  503 -0.44999351392E+00  0.56324988301E+02 -0.14707989300E+03  0.24074729649E+03  0.18208256106E+03 0.  0.
        -24    2    3    3    0    0 -0.12572175506E+02  0.10744977110E+03 -0.85338172131E+02  0.15953879442E+03  0.80414615567E+02 0.  0.
          6    2    1    2  501    0  0.44999351392E+00 -0.56324988301E+02  0.42316203765E+02  0.18647694006E+03  0.17265654135E+03 0.  0.
         24    2    5    5    0    0 -0.63635729735E+02 -0.50496533148E+02  0.48919685847E+02  0.12161827225E+03  0.76147636360E+02 0.  0.
          5    1    5    5  501    0  0.64085723248E+02 -0.58284551525E+01 -0.66034820823E+01  0.64858667804E+02  0.47000000000E+01 0. -1.
        -11    1    6    6    0    0 -0.57760034144E+02 -0.19211320330E+02  0.62288441900E+02  0.87092745780E+02  0.00000000000E+00 0.  1.
         12    1    6    6    0    0 -0.58756955909E+01 -0.31285212818E+02 -0.13368756053E+02  0.34525526471E+02  0.00000000000E+00 0. -1.
         -5    1    3    3    0  503  0.12122181993E+02 -0.51124782800E+02 -0.61741720871E+02  0.81208502071E+02  0.47000000000E+01 0.  1.
         13    1    4    4    0    0 -0.38708623093E+02  0.25531966186E+02 -0.15916321926E+02  0.49026198126E+02  0.00000000000E+00 0. -1.
        -14    1    4    4    0    0  0.26136447586E+02  0.81917804915E+02 -0.69421850205E+02  0.11051259630E+03  0.00000000000E+00 0.  1.
</event>
<event>
12    1  0.1030140E-001  0.2051433E+03  0.7818608E-02  0.1146771E+00
         21   -1    0    0  503  502  0.00000000000E+00  0.00000000000E+00  0.86395620893E+02  0.86395620893E+02  0.00000000000E+00 0.  1.
         21   -1    0    0  501  503 -0.00000000000E+00 -0.00000000000E+00 -0.48382132326E+03  0.48382132326E+03  0.00000000000E+00 0.  1.
          6    2    1    2  501    0 -0.10632173693E+03 -0.20190904609E+01 -0.15179660385E+03  0.25018972865E+03  0.16806041446E+03 0.  0.
         24    2    3    3    0    0 -0.91994217083E+02 -0.54609113088E+02 -0.14152444077E+03  0.19452469798E+03  0.79784707671E+02 0.  0.
         -6    2    1    2    0  502  0.10632173693E+03  0.20190904609E+01 -0.24562909852E+03  0.32002721551E+03  0.17542912003E+03 0.  0.
        -24    2    5    5    0    0  0.62051203055E+02  0.48828141610E+02 -0.22658872194E+03  0.25268040133E+03  0.79185838984E+02 0.  0.
          5    1    3    3  501    0 -0.14327519850E+02  0.52590022627E+02 -0.10272163074E+02  0.55665030667E+02  0.47000000000E+01 0. -1.
        -13    1    4    4    0    0 -0.10528599621E+03 -0.55269152896E+02 -0.11815618641E+03  0.16763264791E+03  0.00000000000E+00 0.  1.
         14    1    4    4    0    0  0.13291779122E+02  0.66003980829E+00 -0.23368254365E+02  0.26892050068E+02  0.00000000000E+00 0. -1.
         -5    1    5    5    0  502  0.44270533878E+02 -0.46809051149E+02 -0.19040376586E+02  0.67346814177E+02  0.47000000000E+01 0.  1.
         11    1    6    6    0    0 -0.38421450712E+01  0.54309327939E+01 -0.11939343841E+03  0.11957863624E+03  0.00000000000E+00 0. -1.
        -12    1    6    6    0    0  0.65893348126E+02  0.43397208816E+02 -0.10719528352E+03  0.13310176509E+03  0.00000000000E+00 0.  1.
</event>
<event>
12    1  0.1030140E-001  0.2545078E+03  0.7818608E-02  0.1110548E+00
         21   -1    0    0  501  502  0.00000000000E+00  0.00000000000E+00  0.37627554834E+03  0.37627554834E+03  0.00000000000E+00 0.  1.
         21   -1    0    0  502  503 -0.00000000000E+00 -0.00000000000E+00 -0.24823678361E+03  0.24823678361E+03  0.00000000000E+00 0.  1.
         -6    2    1    2    0  503 -0.12070911777E+03 -0.14261075360E+03 -0.10912082214E+03  0.27691439628E+03  0.17281698668E+03 0.  0.
        -24    2    3    3    0    0 -0.15330627910E+02 -0.89698905271E+02 -0.10324492769E+03  0.15875811860E+03  0.79143561756E+02 0.  0.
          6    2    1    2  501    0  0.12070911777E+03  0.14261075360E+03  0.23715958688E+03  0.34759793568E+03  0.17225311923E+03 0.  0.
         24    2    5    5    0    0  0.10397389261E+03  0.24815106028E+02  0.14184729835E+03  0.19507775769E+03  0.80674132572E+02 0.  0.
          5    1    5    5  501    0  0.16735225165E+02  0.11779564757E+03  0.95312288526E+02  0.15252017798E+03  0.47000000000E+01 0. -1.
        -11    1    6    6    0    0  0.84752546683E+02  0.51121374940E+02  0.12130973538E+03  0.15656449484E+03  0.00000000000E+00 0.  1.
         12    1    6    6    0    0  0.19221345923E+02 -0.26306268912E+02  0.20537562969E+02  0.38513262857E+02  0.00000000000E+00 0. -1.
         -5    1    3    3    0  503 -0.10537848986E+03 -0.52911848330E+02 -0.58758944500E+01  0.11815627768E+03  0.47000000000E+01 0.  1.
         11    1    4    4    0    0  0.19336411366E+02  0.35998593123E+01 -0.87942771281E+01  0.21545187439E+02  0.00000000000E+00 0. -1.
        -12    1    4    4    0    0 -0.34667039276E+02 -0.93298764583E+02 -0.94450650567E+02  0.13721293116E+03  0.00000000000E+00 0.  1.
</event>
<event>
12    1  0.1030140E-001  0.2002266E+03  0.7818608E-02  0.1149740E+00
         21   -1    0    0  501  502  0.00000000000E+00  0.00000000000E+00  0.13352982096E+03  0.13352982096E+03  0.00000000000E+00 0.  1.
         21   -1    0    0  502  503 -0.00000000000E+00 -0.00000000000E+00 -0.14285700405E+04  0.14285700405E+04  0.00000000000E+00 0.  1.
         -6    2    1    2    0  503 -0.95082968155E+02  0.42410658278E+00 -0.13417696180E+04  0.13564926285E+04  0.17517303689E+03 0.  0.
        -24    2    3    3    0    0 -0.94231196509E+02 -0.55562147000E+02 -0.10945873258E+04  0.11030042428E+04  0.80810119432E+02 0.  0.
          6    2    1    2  501    0  0.95082968155E+02 -0.42410658278E+00  0.46729398442E+02  0.20560723292E+03  0.17620938355E+03 0.  0.
         24    2    5    5    0    0  0.10833463592E+03  0.53313726467E+02  0.33939309689E+02  0.14860690161E+03  0.79708140701E+02 0.  0.
          5    1    5    5  501    0 -0.13251667762E+02 -0.53737833049E+02  0.12790088752E+02  0.57000331312E+02  0.47000000000E+01 0. -1.
        -11    1    6    6    0    0  0.56782068758E+02  0.44080471229E+01  0.49964058058E+02  0.75763060323E+02  0.00000000000E+00 0.  1.
         12    1    6    6    0    0  0.51552567159E+02  0.48905679344E+02 -0.16024748368E+02  0.72843841284E+02  0.00000000000E+00 0. -1.
         -5    1    3    3    0  503 -0.85177164572E+00  0.55986253583E+02 -0.24718229221E+03  0.25348838571E+03  0.47000000000E+01 0.  1.
         11    1    4    4    0    0  0.14592459830E+02 -0.23885852515E+01 -0.10671891193E+03  0.10773843969E+03  0.00000000000E+00 0. -1.
        -12    1    4    4    0    0 -0.10882365634E+03 -0.53173561749E+02 -0.98786841383E+03  0.99526580314E+03  0.00000000000E+00 0.  1.
</event>
<event>
12    1  0.1030140E-001  0.2004652E+03  0.7818608E-02  0.1149998E+00
         21   -1    0    0  501  502  0.00000000000E+00  0.00000000000E+00  0.15403068032E+03  0.15403068032E+03  0.00000000000E+00 0. -1.
         21   -1    0    0  502  503 -0.00000000000E+00 -0.00000000000E+00 -0.37397301675E+03  0.37397301675E+03  0.00000000000E+00 0. -1.
         -6    2    1    2    0  503  0.77364431269E+02 -0.65718444999E+02 -0.25825163219E+03  0.32692535822E+03  0.17286444135E+03 0.  0.
        -24    2    3    3    0    0  0.25536344763E+02 -0.21827694850E+02 -0.24051054098E+03  0.25657349388E+03  0.82801475061E+02 0.  0.
          6    2    1    2  501    0 -0.77364431269E+02  0.65718444999E+02  0.38309295755E+02  0.20107833885E+03  0.16929479311E+03 0.  0.
         24    2    5    5    0    0 -0.70604210786E+02  0.73250861584E+02 -0.28733721111E+02  0.13311295067E+03  0.80887499668E+02 0.  0.
          5    1    5    5  501    0 -0.67602204827E+01 -0.75324165850E+01  0.67043016867E+02  0.67965388185E+02  0.47000000000E+01 0. -1.
        -11    1    6    6    0    0 -0.52676545294E+02  0.83192394786E+02 -0.80771165483E+00  0.98470530477E+02  0.00000000000E+00 0.  1.
         12    1    6    6    0    0 -0.17927665492E+02 -0.99415332016E+01 -0.27926009457E+02  0.34642420189E+02  0.00000000000E+00 0. -1.
         -5    1    3    3    0  503  0.51828086505E+02 -0.43890750149E+02 -0.17741091207E+02  0.70351864344E+02  0.47000000000E+01 0.  1.
         11    1    4    4    0    0  0.53283611538E+02 -0.18262657617E+02 -0.19659022985E+03  0.20450033349E+03  0.00000000000E+00 0. -1.
        -12    1    4    4    0    0 -0.27747266774E+02 -0.35650372331E+01 -0.43920311128E+02  0.52073160395E+02  0.00000000000E+00 0.  1.
</event>
<event>
12    1  0.1030140E-001  0.1935374E+03  0.7818608E-02  0.1155801E+00
         21   -1    0    0  501  502  0.00000000000E+00  0.00000000000E+00  0.42928941471E+02  0.42928941471E+02  0.00000000000E+00 0. -1.
         21   -1    0    0  502  503 -0.00000000000E+00 -0.00000000000E+00 -0.87145321932E+03  0.87145321932E+03  0.00000000000E+00 0. -1.
         -6    2    1    2    0  503 -0.65066666398E+02 -0.53652188691E+02 -0.45811360097E+03  0.49645777621E+03  0.17172659589E+03 0.  0.
        -24    2    3    3    0    0 -0.69289930465E+02 -0.18143895304E+02 -0.44539028843E+03  0.45821320090E+03  0.80352554732E+02 0.  0.
          6    2    1    2  501    0  0.65066666398E+02  0.53652188691E+02 -0.37041067687E+03  0.41792438458E+03  0.17419670851E+03 0.  0.
         24    2    5    5    0    0  0.33620470593E+02  0.76034776021E+02 -0.12737604318E+03  0.17179887468E+03  0.79865973726E+02 0.  0.
          5    1    5    5  501    0  0.31446195804E+02 -0.22382587330E+02 -0.24303463369E+03  0.24612550989E+03  0.47000000000E+01 0. -1.
        -13    1    6    6    0    0 -0.12692569553E+02  0.65857952805E+02 -0.84394465890E+02  0.10779980122E+03  0.00000000000E+00 0.  1.
         14    1    6    6    0    0  0.46313040147E+02  0.10176823216E+02 -0.42981577290E+02  0.63999073468E+02  0.00000000000E+00 0. -1.
         -5    1    3    3    0  503  0.42232640670E+01 -0.35508293387E+02 -0.12723312546E+02  0.38244575312E+02  0.47000000000E+01 0.  1.
         13    1    4    4    0    0 -0.60914346440E+02  0.20981166432E+02 -0.21766495003E+03  0.22699955379E+03  0.00000000000E+00 0. -1.
        -14    1    4    4    0    0 -0.83755840250E+01 -0.39125061735E+02 -0.22772533839E+03  0.23121364711E+03  0.00000000000E+00 0.  1.
</event>
<event>
12    1  0.1030140E-001  0.1814200E+03  0.7818608E-02  0.1166826E+00
         21   -1    0    0  501  502  0.00000000000E+00  0.00000000000E+00  0.21389938870E+02  0.21389938870E+02  0.00000000000E+00 0. -1.
         21   -1    0    0  502  503 -0.00000000000E+00 -0.00000000000E+00 -0.21589233511E+04  0.21589233511E+04  0.00000000000E+00 0. -1.
         -6    2    1    2    0  503 -0.57227996426E+02  0.16565883974E+02 -0.16560992150E+04  0.16658309095E+04  0.16964237964E+03 0.  0.
        -24    2    3    3    0    0 -0.10261112952E+03  0.36157290991E+00 -0.10751456301E+04  0.10828631863E+04  0.78264804822E+02 0.  0.
          6    2    1    2  501    0  0.57227996426E+02 -0.16565883974E+02 -0.48143419726E+03  0.51448238052E+03  0.17135857576E+03 0.  0.
         24    2    5    5    0    0 -0.31295958081E+02 -0.79165937242E+01 -0.16906425520E+03  0.18966185862E+03  0.79666735728E+02 0.  0.
          5    1    5    5  501    0  0.88523954506E+02 -0.86492902498E+01 -0.31236994206E+03  0.32482052190E+03  0.47000000000E+01 0. -1.
        -11    1    6    6    0    0  0.12399366945E+02  0.26000588881E+02 -0.77579852110E+02  0.82755110876E+02  0.00000000000E+00 0.  1.
         12    1    6    6    0    0 -0.43695325026E+02 -0.33917182605E+02 -0.91484403092E+02  0.10690674775E+03  0.00000000000E+00 0. -1.
         -5    1    3    3    0  503  0.45383133099E+02  0.16204311064E+02 -0.58095358489E+03  0.58296772317E+03  0.47000000000E+01 0.  1.
         13    1    4    4    0    0 -0.22247445746E+02 -0.11010818466E+02 -0.62273878904E+03  0.62323333218E+03  0.00000000000E+00 0. -1.
        -14    1    4    4    0    0 -0.80363683779E+02  0.11372391376E+02 -0.45240684105E+03  0.45962985410E+03  0.00000000000E+00 0.  1.
</event>
<event>
12    1  0.1030140E-001  0.1978095E+03  0.7818608E-02  0.1155733E+00
         21   -1    0    0  501  502  0.00000000000E+00  0.00000000000E+00  0.44044493720E+02  0.44044493720E+02  0.00000000000E+00 0. -1.
         21   -1    0    0  502  503 -0.00000000000E+00 -0.00000000000E+00 -0.93420829044E+03  0.93420829044E+03  0.00000000000E+00 0. -1.
         -6    2    1    2    0  503 -0.46692885560E+02 -0.26814202746E+02 -0.28415377501E+03  0.34622531518E+03  0.19034015338E+03 0.  0.
        -24    2    3    3    0    0 -0.85567098308E+02  0.29664429231E+02 -0.23042360914E+03  0.25898965153E+03  0.76019032348E+02 0.  0.
          6    2    1    2  501    0  0.46692885560E+02  0.26814202746E+02 -0.60601002171E+03  0.63202746898E+03  0.17120557264E+03 0.  0.
         24    2    5    5    0    0  0.70175539287E+02  0.42282198794E+02 -0.25363971696E+03  0.27850573613E+03  0.80746197366E+02 0.  0.
          5    1    5    5  501    0 -0.23482653727E+02 -0.15467996049E+02 -0.35237030475E+03  0.35352173285E+03  0.47000000000E+01 0. -1.
        -11    1    6    6    0    0  0.49034247854E+02  0.56159160425E+02 -0.11146479353E+03  0.13409925040E+03  0.00000000000E+00 0.  1.
         12    1    6    6    0    0  0.21141291433E+02 -0.13876961631E+02 -0.14217492343E+03  0.14440648573E+03  0.00000000000E+00 0. -1.
         -5    1    3    3    0  503  0.38874212748E+02 -0.56478631976E+02 -0.53730165867E+02  0.87235663640E+02  0.47000000000E+01 0.  1.
         13    1    4    4    0    0 -0.14048144459E+02  0.24804684260E+01  0.19001984707E+01  0.14391450260E+02  0.00000000000E+00 0. -1.
        -14    1    4    4    0    0 -0.71518953849E+02  0.27183960805E+02 -0.23232380761E+03  0.24459820127E+03  0.00000000000E+00 0.  1.
</event>
<event>
12    1  0.1030140E-001  0.2905841E+03  0.7818608E-02  0.1090103E+00
         21   -1    0    0  501  502  0.00000000000E+00  0.00000000000E+00  0.14084818442E+03  0.14084818442E+03  0.00000000000E+00 0. -1.
         21   -1    0    0  502  503 -0.00000000000E+00 -0.00000000000E+00 -0.19338348999E+04  0.19338348999E+04  0.00000000000E+00 0.  1.
         -6    2    1    2    0  503  0.23340784837E+03  0.10229935952E+02 -0.17582530796E+04  0.17820304922E+04  0.17203170548E+03 0.  0.
        -24    2    3    3    0    0  0.23256794736E+03 -0.24176157471E+02 -0.13535324496E+04  0.13758219705E+04  0.78509016384E+02 0.  0.
          6    2    1    2  501    0 -0.23340784837E+03 -0.10229935952E+02 -0.34733635855E+02  0.29265259216E+03  0.17278668632E+03 0.  0.
         24    2    5    5    0    0 -0.19837511708E+03 -0.41624547860E+02 -0.74491442965E+02  0.23088134364E+03  0.81681881115E+02 0.  0.
          5    1    5    5  501    0 -0.35032731282E+02  0.31394611907E+02  0.39757807109E+02  0.61771248522E+02  0.47000000000E+01 0. -1.
        -13    1    6    6    0    0 -0.20539938862E+02 -0.33565486166E+02 -0.45368378689E+01  0.39612041703E+02  0.00000000000E+00 0.  1.
         14    1    6    6    0    0 -0.17783517822E+03 -0.80590616936E+01 -0.69954605096E+02  0.19126930193E+03  0.00000000000E+00 0. -1.
         -5    1    3    3    0  503  0.83990100261E+00  0.34406093423E+02 -0.40472063007E+03  0.40620852170E+03  0.47000000000E+01 0.  1.
         13    1    4    4    0    0  0.44354141900E+02 -0.45967829579E+01 -0.12318136143E+03  0.13100407674E+03  0.00000000000E+00 0. -1.
        -14    1    4    4    0    0  0.18821380546E+03 -0.19579374513E+02 -0.12303510881E+04  0.12448178937E+04  0.00000000000E+00 0.  1.
</event>
<event>
12    1  0.1030140E-001  0.2013177E+03  0.7818608E-02  0.1148693E+00
         21   -1    0    0  501  502  0.00000000000E+00  0.00000000000E+00  0.49976368779E+02  0.49976368779E+02  0.00000000000E+00 0. -1.
         21   -1    0    0  502  503 -0.00000000000E+00 -0.00000000000E+00 -0.89767502579E+03  0.89767502579E+03  0.00000000000E+00 0. -1.
         -6    2    1    2    0  503  0.45798146434E+02 -0.93567023293E+02 -0.57183637469E+03  0.60614178277E+03  0.17192662195E+03 0.  0.
        -24    2    3    3    0    0  0.65056074005E+02 -0.17945534123E+01 -0.25438756836E+03  0.27509965759E+03  0.82044338518E+02 0.  0.
          6    2    1    2  501    0 -0.45798146434E+02  0.93567023293E+02 -0.27586228232E+03  0.34150961180E+03  0.17226885406E+03 0.  0.
         24    2    5    5    0    0 -0.91141931815E+02  0.95804701666E+02 -0.21472923145E+03  0.26521802651E+03  0.82137483228E+02 0.  0.
          5    1    5    5  501    0  0.45343785381E+02 -0.22376783730E+01 -0.61133050866E+02  0.76291585285E+02  0.47000000000E+01 0. -1.
        -13    1    6    6    0    0  0.11046030227E+02  0.43162081555E+01 -0.47385145166E+02  0.48846662312E+02  0.00000000000E+00 0.  1.
         14    1    6    6    0    0 -0.10218796204E+03  0.91488493510E+02 -0.16734408629E+03  0.21637136420E+03  0.00000000000E+00 0. -1.
         -5    1    3    3    0  503 -0.19257927571E+02 -0.91772469880E+02 -0.31744880633E+03  0.33104212518E+03  0.47000000000E+01 0.  1.
         13    1    4    4    0    0  0.61466675259E+01 -0.34742754141E+02 -0.11388451146E+03  0.11922467210E+03  0.00000000000E+00 0. -1.
        -14    1    4    4    0    0  0.58909406479E+02  0.32948200729E+02 -0.14050305691E+03  0.15587498550E+03  0.00000000000E+00 0.  1.
</event>
<event>
12    1  0.1030140E-001  0.2774203E+03  0.7818608E-02  0.1097141E+00
         21   -1    0    0  503  502  0.00000000000E+00  0.00000000000E+00  0.12369101633E+03  0.12369101633E+03  0.00000000000E+00 0.  1.
         21   -1    0    0  501  503 -0.00000000000E+00 -0.00000000000E+00 -0.82319269250E+03  0.82319269250E+03  0.00000000000E+00 0.  1.
          6    2    1    2  501    0  0.21444812341E+03  0.33945307576E+02 -0.58389501890E+03  0.64633932046E+03  0.17228128896E+03 0.  0.
         24    2    3    3    0    0  0.16839079013E+03  0.67856430815E+02 -0.53534296207E+03  0.57116861837E+03  0.81740749778E+02 0.  0.
         -6    2    1    2    0  502 -0.21444812341E+03 -0.33945307576E+02 -0.11560665727E+03  0.30054438838E+03  0.17268974677E+03 0.  0.
        -24    2    5    5    0    0 -0.19305432244E+03 -0.58327453527E+02 -0.43191611128E+02  0.22105720282E+03  0.79553179691E+02 0.  0.
          5    1    3    3  501    0  0.46057333288E+02 -0.33911123239E+02 -0.48552056832E+02  0.75170702083E+02  0.47000000000E+01 0. -1.
        -11    1    4    4    0    0  0.13398077515E+03  0.55369961664E+02 -0.30225106092E+03  0.33521990483E+03  0.00000000000E+00 0.  1.
         12    1    4    4    0    0  0.34410014974E+02  0.12486469151E+02 -0.23309190115E+03  0.23594871355E+03  0.00000000000E+00 0. -1.
         -5    1    5    5    0  502 -0.21393800978E+02  0.24382145951E+02 -0.72415046139E+02  0.79487185564E+02  0.47000000000E+01 0.  1.
         13    1    6    6    0    0 -0.66861578311E+02 -0.11913710333E+02  0.22320958434E+02  0.71488686752E+02  0.00000000000E+00 0. -1.
        -14    1    6    6    0    0 -0.12619274412E+03 -0.46413743194E+02 -0.65512569562E+02  0.14956851606E+03  0.00000000000E+00 0.  1.
</event>
<event>
12    1  0.1030140E-001  0.2001561E+03  0.7818608E-02  0.1149865E+00
         21   -1    0    0  501  502  0.00000000000E+00  0.00000000000E+00  0.98074455470E+02  0.98074455470E+02  0.00000000000E+00 0. -1.
         21   -1    0    0  502  503 -0.00000000000E+00 -0.00000000000E+00 -0.40602112386E+03  0.40602112386E+03  0.00000000000E+00 0. -1.
         -6    2    1    2    0  503  0.18317155475E+02  0.10034914217E+03 -0.15189064811E+03  0.25029259492E+03  0.17079269764E+03 0.  0.
        -24    2    3    3    0    0  0.46466193382E+02  0.11508661411E+03 -0.74878087724E+02  0.16685048401E+03  0.82633650043E+02 0.  0.
          6    2    1    2  501    0 -0.18317155475E+02 -0.10034914217E+03 -0.15605602027E+03  0.25380298441E+03  0.17221209281E+03 0.  0.
         24    2    5    5    0    0  0.31387034097E+02 -0.22726746889E+02 -0.21926330502E+02  0.90988346280E+02  0.79350263112E+02 0.  0.
          5    1    5    5  501    0 -0.49704189572E+02 -0.77622395281E+02 -0.13412968977E+03  0.16281463813E+03  0.47000000000E+01 0. -1.
        -11    1    6    6    0    0 -0.20912605319E+02 -0.85159315171E+01 -0.28538004341E+02  0.36390601020E+02  0.00000000000E+00 0.  1.
         12    1    6    6    0    0  0.52299639416E+02 -0.14210815372E+02  0.66116738393E+01  0.54597745260E+02  0.00000000000E+00 0. -1.
         -5    1    3    3    0  503 -0.28149037907E+02 -0.14737471943E+02 -0.77012560391E+02  0.83442110905E+02  0.47000000000E+01 0.  1.
         11    1    4    4    0    0  0.55650832141E+01  0.35261974747E+02  0.16039693135E+02  0.39136284572E+02  0.00000000000E+00 0. -1.
        -12    1    4    4    0    0  0.40901110168E+02  0.79824639366E+02 -0.90917780859E+02  0.12771419944E+03  0.00000000000E+00 0.  1.
</event>
<event>
12    1  0.1030140E-001  0.1744421E+03  0.7818608E-02  0.1173365E+00
         21   -1    0    0  501  502  0.00000000000E+00  0.00000000000E+00  0.15800740756E+03  0.15800740756E+03  0.00000000000E+00 0.  1.
         21   -1    0    0  502  503 -0.00000000000E+00 -0.00000000000E+00 -0.19232880164E+03  0.19232880164E+03  0.00000000000E+00 0.  1.
         -6    2    1    2    0  503 -0.24506032030E+02  0.61091134385E+01 -0.14108022219E+02  0.17472689327E+03  0.17231536226E+03 0.  0.
        -24    2    3    3    0    0 -0.31880079901E+02  0.43363225691E+02  0.44270820966E+02  0.10492413693E+03  0.78437619064E+02 0.  0.
          6    2    1    2  501    0  0.24506032030E+02 -0.61091134385E+01 -0.20213371855E+02  0.17560931593E+03  0.17260412674E+03 0.  0.
         24    2    5    5    0    0  0.18505454606E+02  0.62890496092E+02 -0.24222833061E+02  0.10607429724E+03  0.79795642394E+02 0.  0.
          5    1    5    5  501    0  0.60005774247E+01 -0.68999609530E+02  0.40094612054E+01  0.69535018688E+02  0.47000000000E+01 0. -1.
        -11    1    6    6    0    0  0.15862301727E+02  0.18230604016E+02  0.28212460170E+02  0.37147145889E+02  0.00000000000E+00 0.  1.
         12    1    6    6    0    0  0.26431528785E+01  0.44659892076E+02 -0.52435293231E+02  0.68927151352E+02  0.00000000000E+00 0. -1.
         -5    1    3    3    0  503  0.73740478708E+01 -0.37254112253E+02 -0.58378843185E+02  0.69802756345E+02  0.47000000000E+01 0.  1.
         13    1    4    4    0    0  0.13320652811E+02 -0.77731949326E+01 -0.94328405287E+01  0.18078739757E+02  0.00000000000E+00 0. -1.
        -14    1    4    4    0    0 -0.45200732713E+02  0.51136420624E+02  0.53703661495E+02  0.86845397172E+02  0.00000000000E+00 0.  1.
</event>
<event>
12    1  0.1030140E-001  0.1790191E+03  0.7818608E-02  0.1168886E+00
         21   -1    0    0  503  502  0.00000000000E+00  0.00000000000E+00  0.61669236896E+03  0.61669236896E+03  0.00000000000E+00 0.  1.
         21   -1    0    0  501  503 -0.00000000000E+00 -0.00000000000E+00 -0.98327360250E+02  0.98327360250E+02  0.00000000000E+00 0.  1.
          6    2    1    2  501    0 -0.42635129803E+01 -0.49339411864E+02  0.13493763771E+02  0.17952698026E+03  0.17203284533E+03 0.  0.
         24    2    3    3    0    0 -0.42350485370E+01 -0.66847426058E+02 -0.46274615164E+02  0.11706995109E+03  0.84127994354E+02 0.  0.
         -6    2    1    2    0  502  0.42635129803E+01  0.49339411864E+02  0.50487124494E+03  0.53549274895E+03  0.17147873078E+03 0.  0.
        -24    2    5    5    0    0  0.44493431209E+02 -0.14435332419E+02  0.36413249007E+03  0.37575812074E+03  0.80085271634E+02 0.  0.
          5    1    3    3  501    0 -0.28464443290E-01  0.17508014194E+02  0.59768378934E+02  0.62457029162E+02  0.47000000000E+01 0. -1.
        -13    1    4    4    0    0  0.38153583446E+02 -0.16335060119E+02 -0.15536301489E+02  0.44315987892E+02  0.00000000000E+00 0.  1.
         14    1    4    4    0    0 -0.42388631983E+02 -0.50512365939E+02 -0.30738313675E+02  0.72753963203E+02  0.00000000000E+00 0. -1.
         -5    1    5    5    0  502 -0.40229918229E+02  0.63774744282E+02  0.14073875487E+03  0.15973462821E+03  0.47000000000E+01 0.  1.
         13    1    6    6    0    0  0.36692271818E+02 -0.34850759279E+02  0.11466827095E+03  0.12533838437E+03  0.00000000000E+00 0. -1.
        -14    1    6    6    0    0  0.78011593917E+01  0.20415426861E+02  0.24946421912E+03  0.25041973637E+03  0.00000000000E+00 0.  1.
</event>
<event>
12    1  0.1030140E-001  0.1862953E+03  0.7818608E-02  0.1161931E+00
         21   -1    0    0  501  502  0.00000000000E+00  0.00000000000E+00  0.33847610847E+03  0.33847610847E+03  0.00000000000E+00 0. -1.
         21   -1    0    0  502  503 -0.00000000000E+00 -0.00000000000E+00 -0.47635345323E+03  0.47635345323E+03  0.00000000000E+00 0. -1.
         -6    2    1    2    0  503  0.60728670086E+02  0.36306078157E+02 -0.42993418133E+03  0.46841487756E+03  0.17193892685E+03 0.  0.
        -24    2    3    3    0    0 -0.17975876075E+02  0.55114014084E+02 -0.18379188640E+03  0.20926962217E+03  0.81569789673E+02 0.  0.
          6    2    1    2  501    0 -0.60728670086E+02 -0.36306078157E+02  0.29205683657E+03  0.34641468414E+03  0.17233640045E+03 0.  0.
         24    2    5    5    0    0 -0.18167619321E+02 -0.42201736895E+02  0.62055634493E+02  0.11238723962E+03  0.81663583486E+02 0.  0.
          5    1    5    5  501    0 -0.42561050766E+02  0.58956587378E+01  0.23000120208E+03  0.23402744453E+03  0.47000000000E+01 0. -1.
        -11    1    6    6    0    0 -0.16432780766E+02 -0.66882693937E+02  0.47773754336E+02  0.83819225929E+02  0.00000000000E+00 0.  1.
         12    1    6    6    0    0 -0.17348385547E+01  0.24680957042E+02  0.14281880156E+02  0.28568013689E+02  0.00000000000E+00 0. -1.
         -5    1    3    3    0  503  0.78704546162E+02 -0.18807935927E+02 -0.24614229492E+03  0.25914525539E+03  0.47000000000E+01 0.  1.
         11    1    4    4    0    0 -0.37598818220E+02 -0.33301664676E+01 -0.58310514293E+02  0.69461336133E+02  0.00000000000E+00 0. -1.
        -12    1    4    4    0    0  0.19622942144E+02  0.58444180551E+02 -0.12548137211E+03  0.13980828604E+03  0.00000000000E+00 0.  1.
</event>
<event>
12    1  0.1030140E-001  0.1877545E+03  0.7818608E-02  0.1160602E+00
         21   -1    0    0  503  502  0.00000000000E+00  0.00000000000E+00  0.39506955244E+03  0.39506955244E+03  0.00000000000E+00 0. -1.
         21   -1    0    0  501  503 -0.00000000000E+00 -0.00000000000E+00 -0.91416794924E+02  0.91416794924E+02  0.00000000000E+00 0. -1.
          6    2    1    2  501    0  0.23911177543E+02  0.71382200262E+02  0.19136401480E+03  0.26808942071E+03  0.17200171050E+03 0.  0.
         24    2    3    3    0    0  0.13837273346E+02 -0.46748156893E+01  0.45444482712E+02  0.10316291264E+03  0.91455243154E+02 0.  0.
         -6    2    1    2    0  502 -0.23911177543E+02 -0.71382200262E+02  0.11228874272E+03  0.21839692665E+03  0.17152636212E+03 0.  0.
        -24    2    5    5    0    0 -0.36225744709E+02 -0.69702721513E+02  0.56040350932E+01  0.11088792212E+03  0.78063769425E+02 0.  0.
          5    1    3    3  501    0  0.10073904197E+02  0.76057015952E+02  0.14591953208E+03  0.16492650807E+03  0.47000000000E+01 0. -1.
        -13    1    4    4    0    0  0.10079640095E+02 -0.96724207815E+01 -0.27026097351E+02  0.30423096592E+02  0.00000000000E+00 0.  1.
         14    1    4    4    0    0  0.37576332506E+01  0.49976050922E+01  0.72470580063E+02  0.72739816049E+02  0.00000000000E+00 0. -1.
         -5    1    5    5    0  502  0.12314567166E+02 -0.16794787494E+01  0.10668470763E+03  0.10750900453E+03  0.47000000000E+01 0.  1.
         11    1    6    6    0    0 -0.50684601478E+02 -0.57811055297E+02  0.27886979592E+02  0.81784659761E+02  0.00000000000E+00 0. -1.
        -12    1    6    6    0    0  0.14458856769E+02 -0.11891666216E+02 -0.22282944499E+02  0.29103262360E+02  0.00000000000E+00 0.  1.
</event>
<event>
12    1  0.1030140E-001  0.2918615E+03  0.7818608E-02  0.1089503E+00
         21   -1    0    0  501  502  0.00000000000E+00  0.00000000000E+00  0.96970409833E+03  0.96970409833E+03  0.00000000000E+00 0. -1.
         21   -1    0    0  502  503 -0.00000000000E+00 -0.00000000000E+00 -0.13067242986E+03  0.13067242986E+03  0.00000000000E+00 0.  1.
         -6    2    1    2    0  503 -0.49875958931E+02 -0.23045168745E+03  0.10395372833E+03  0.30982175832E+03  0.17201032752E+03 0.  0.
        -24    2    3    3    0    0  0.21670068951E+02 -0.61118986947E+02  0.62460202911E+01  0.10158803441E+03  0.77948659467E+02 0.  0.
          6    2    1    2  501    0  0.49875958931E+02  0.23045168745E+03  0.73507794014E+03  0.79055476987E+03  0.17041618044E+03 0.  0.
         24    2    5    5    0    0  0.51643316700E+02  0.24869076985E+03  0.63161749566E+03  0.68537900625E+03  0.79306936745E+02 0.  0.
          5    1    5    5  501    0 -0.17673577688E+01 -0.18239082409E+02  0.10346044448E+03  0.10517576362E+03  0.47000000000E+01 0. -1.
        -13    1    6    6    0    0  0.21067434635E+02  0.48537062064E+02  0.65864244355E+02  0.84485394480E+02  0.00000000000E+00 0.  1.
         14    1    6    6    0    0  0.30575882065E+02  0.20015370779E+03  0.56575325130E+03  0.60089361177E+03  0.00000000000E+00 0. -1.
         -5    1    3    3    0  503 -0.71546027882E+02 -0.16933270050E+03  0.97707708036E+02  0.20823372391E+03  0.47000000000E+01 0.  1.
         11    1    4    4    0    0 -0.88586631406E+00 -0.38283597757E+01  0.33874987977E+02  0.34102139348E+02  0.00000000000E+00 0. -1.
        -12    1    4    4    0    0  0.22555935265E+02 -0.57290627171E+02 -0.27628967686E+02  0.67485895065E+02  0.00000000000E+00 0.  1.
</event>
<event>
12    1  0.1030140E-001  0.2035958E+03  0.7818608E-02  0.1146918E+00
         21   -1    0    0  503  502  0.00000000000E+00  0.00000000000E+00  0.66565440544E+02  0.66565440544E+02  0.00000000000E+00 0. -1.
         21   -1    0    0  501  503 -0.00000000000E+00 -0.00000000000E+00 -0.14883081071E+04  0.14883081071E+04  0.00000000000E+00 0. -1.
          6    2    1    2  501    0 -0.38821595031E+02  0.97831862762E+02 -0.13052931937E+04  0.13210759108E+04  0.17427865877E+03 0.  0.
         24    2    3    3    0    0 -0.42236637469E+02  0.76421018689E+02 -0.42532008874E+03  0.44082319581E+03  0.76182717416E+02 0.  0.
         -6    2    1    2    0  502  0.38821595031E+02 -0.97831862762E+02 -0.11644947290E+03  0.23379763691E+03  0.17327049857E+03 0.  0.
        -24    2    5    5    0    0  0.59297141881E+02 -0.68593097301E+01 -0.92819257295E+02  0.13748704293E+03  0.82000434652E+02 0.  0.
          5    1    3    3  501    0  0.34150424379E+01  0.21410844073E+02 -0.87997310496E+03  0.88025271497E+03  0.47000000000E+01 0. -1.
        -13    1    4    4    0    0 -0.10325641124E+02  0.65643143185E+02 -0.15821891986E+03  0.17160672398E+03  0.00000000000E+00 0.  1.
         14    1    4    4    0    0 -0.31910996344E+02  0.10777875504E+02 -0.26710116888E+03  0.26921647183E+03  0.00000000000E+00 0. -1.
         -5    1    5    5    0  502 -0.20475546850E+02 -0.90972553032E+02 -0.23630215606E+02  0.96310593984E+02  0.47000000000E+01 0.  1.
         13    1    6    6    0    0  0.22848968772E+02 -0.92534885723E+00  0.12373539917E+02  0.26000694886E+02  0.00000000000E+00 0. -1.
        -14    1    6    6    0    0  0.36448173109E+02 -0.59339608729E+01 -0.10519279721E+03  0.11148634804E+03  0.00000000000E+00 0.  1.
</event>
<event>
12    1  0.1030140E-001  0.2336726E+03  0.7818608E-02  0.1124324E+00
         21   -1    0    0  501  502  0.00000000000E+00  0.00000000000E+00  0.74212731321E+03  0.74212731321E+03  0.00000000000E+00 0.  1.
         21   -1    0    0  502  503 -0.00000000000E+00 -0.00000000000E+00 -0.73488627089E+02  0.73488627089E+02  0.00000000000E+00 0.  1.
         -6    2    1    2    0  503 -0.15202165611E+03 -0.43862154687E+02  0.30704271970E+03  0.38584728866E+03  0.17195472051E+03 0.  0.
        -24    2    3    3    0    0 -0.87860746938E+02  0.85974881358E+01  0.76836706715E+02  0.14113207703E+03  0.78873037295E+02 0.  0.
          6    2    1    2  501    0  0.15202165611E+03  0.43862154687E+02  0.36159596642E+03  0.42976865163E+03  0.17004404859E+03 0.  0.
         24    2    5    5    0    0  0.17878771267E+03  0.29929422343E+02  0.30139219006E+03  0.36226215194E+03  0.86808974023E+02 0.  0.
          5    1    5    5  501    0 -0.26766056560E+02  0.13932732344E+02  0.60203776352E+02  0.67506499697E+02  0.47000000000E+01 0. -1.
        -13    1    6    6    0    0  0.14280765788E+03 -0.70699552300E+00  0.27026389855E+03  0.30567483026E+03  0.00000000000E+00 0.  1.
         14    1    6    6    0    0  0.35980054795E+02  0.30636417866E+02  0.31128291511E+02  0.56587321681E+02  0.00000000000E+00 0. -1.
         -5    1    3    3    0  503 -0.64160909172E+02 -0.52459642823E+02  0.23020601299E+03  0.24471521164E+03  0.47000000000E+01 0.  1.
         11    1    4    4    0    0 -0.17331149353E+01  0.29656013496E+02  0.20122339972E+02  0.35880236758E+02  0.00000000000E+00 0. -1.
        -12    1    4    4    0    0 -0.86127632002E+02 -0.21058525360E+02  0.56714366743E+02  0.10525184027E+03  0.00000000000E+00 0.  1.
</event>
<event>
12    1  0.1030140E-001  0.1805124E+03  0.7818608E-02  0.1167634E+00
         21   -1    0    0  503  502  0.00000000000E+00  0.00000000000E+00  0.17261752819E+03  0.17261752819E+03  0.00000000000E+00 0.  1.
         21   -1    0    0  501  503 -0.00000000000E+00 -0.00000000000E+00 -0.40238952370E+03  0.40238952370E+03  0.00000000000E+00 0.  1.
          6    2    1    2  501    0 -0.20792627256E+01  0.50710072860E+02 -0.32525277206E+03  0.37198668821E+03  0.17323075838E+03 0.  0.
         24    2    3    3    0    0 -0.49105307983E+02  0.42071107805E+02 -0.11011444649E+03  0.15154923727E+03  0.81612931610E+02 0.  0.
         -6    2    1    2    0  502  0.20792627256E+01 -0.50710072860E+02  0.95480776549E+02  0.20302036368E+03  0.17182797955E+03 0.  0.
        -24    2    5    5    0    0  0.26128164065E+02 -0.43469102251E+02  0.12998753662E+03  0.16008334234E+03  0.78470841776E+02 0.  0.
          5    1    3    3  501    0  0.47026045257E+02  0.86389650547E+01 -0.21513832557E+03  0.22043745094E+03  0.47000000000E+01 0. -1.
        -13    1    4    4    0    0 -0.49890279130E+02  0.62426815094E+02 -0.10210714917E+03  0.12966116267E+03  0.00000000000E+00 0.  1.
         14    1    4    4    0    0  0.78497114682E+00 -0.20355707289E+02 -0.80072973197E+01  0.21888074591E+02  0.00000000000E+00 0. -1.
         -5    1    5    5    0  502 -0.24048901340E+02 -0.72409706096E+01 -0.34506760073E+02  0.42937021342E+02  0.47000000000E+01 0.  1.
         11    1    6    6    0    0  0.33328585902E+02 -0.20215755317E+02  0.13765783857E+02  0.41339668679E+02  0.00000000000E+00 0. -1.
        -12    1    6    6    0    0 -0.72004218372E+01 -0.23253346934E+02  0.11622175276E+03  0.11874367366E+03  0.00000000000E+00 0.  1.
</event>
<event>
12    1  0.1030140E-001  0.2298744E+03  0.7818608E-02  0.1127666E+00
         21   -1    0    0  503  502  0.00000000000E+00  0.00000000000E+00  0.26026879708E+03  0.26026879708E+03  0.00000000000E+00 0.  1.
         21   -1    0    0  501  503 -0.00000000000E+00 -0.00000000000E+00 -0.20093131610E+03  0.20093131610E+03  0.00000000000E+00 0. -1.
          6    2    1    2  501    0  0.95637447974E+02  0.10788407182E+03  0.41776311117E+01  0.22991239236E+03  0.17904402015E+03 0.  0.
         24    2    3    3    0    0  0.12672556369E+03  0.11644203638E+03 -0.18433578104E+02  0.19025049026E+03  0.78976806181E+02 0.  0.
         -6    2    1    2    0  502 -0.95637447974E+02 -0.10788407182E+03  0.55159849873E+02  0.23128772082E+03  0.17223793529E+03 0.  0.
        -24    2    5    5    0    0 -0.23953311747E+02 -0.61700050079E+02 -0.32788776775E+02  0.10869640717E+03  0.79744264539E+02 0.  0.
          5    1    3    3  501    0 -0.31088115716E+02 -0.85579645574E+01  0.22611209215E+02  0.39661902102E+02  0.47000000000E+01 0. -1.
        -13    1    4    4    0    0  0.11031346996E+02  0.53644498651E+02 -0.20818641234E+02  0.58590431598E+02  0.00000000000E+00 0.  1.
         14    1    4    4    0    0  0.11569421669E+03  0.62797537728E+02  0.23850631299E+01  0.13166005866E+03  0.00000000000E+00 0. -1.
         -5    1    5    5    0  502 -0.71684136227E+02 -0.46184021742E+02  0.87948626648E+02  0.12259131364E+03  0.47000000000E+01 0.  1.
         13    1    6    6    0    0 -0.46153712712E+02 -0.11883252259E+02 -0.24312298270E+02  0.53502006771E+02  0.00000000000E+00 0. -1.
        -14    1    6    6    0    0  0.22200400965E+02 -0.49816797821E+02 -0.84764785058E+01  0.55194400404E+02  0.00000000000E+00 0.  1.
</event>
<event>
12    1  0.1030140E-001  0.2242479E+03  0.7818608E-02  0.1130837E+00
         21   -1    0    0  503  502  0.00000000000E+00  0.00000000000E+00  0.10023619384E+04  0.10023619384E+04  0.00000000000E+00 0. -1.
         21   -1    0    0  501  503 -0.00000000000E+00 -0.00000000000E+00 -0.25403423674E+03  0.25403423674E+03  0.00000000000E+00 0. -1.
          6    2    1    2  501    0 -0.89118014253E+02 -0.11651668222E+03 -0.18865970178E+03  0.29305225769E+03  0.16961422394E+03 0.  0.
         24    2    3    3    0    0 -0.11821519573E+03 -0.10942971123E+03 -0.19128530435E+03  0.26262439355E+03  0.80198567475E+02 0.  0.
         -6    2    1    2    0  502  0.89118014253E+02  0.11651668222E+03  0.93698740340E+03  0.96334391741E+03  0.16902056496E+03 0.  0.
        -24    2    5    5    0    0  0.88421772845E+02  0.13971464547E+03  0.90438573882E+03  0.92305013645E+03  0.82276349804E+02 0.  0.
          5    1    3    3  501    0  0.29097181475E+02 -0.70869709915E+01  0.26256025683E+01  0.30427864146E+02  0.47000000000E+01 0. -1.
        -11    1    4    4    0    0 -0.33368986299E+02  0.80425459591E+01 -0.27874366992E+02  0.44217102204E+02  0.00000000000E+00 0.  1.
         12    1    4    4    0    0 -0.84846209429E+02 -0.11747225719E+03 -0.16341093736E+03  0.21840729134E+03  0.00000000000E+00 0. -1.
         -5    1    5    5    0  502  0.69624140787E+00 -0.23197963248E+02  0.32601664574E+02  0.40293780959E+02  0.47000000000E+01 0.  1.
         13    1    6    6    0    0 -0.11582902173E+01  0.25597852231E+02  0.47507700637E+02  0.53977525831E+02  0.00000000000E+00 0. -1.
        -14    1    6    6    0    0  0.89580063062E+02  0.11411679324E+03  0.85687803819E+03  0.86907261062E+03  0.00000000000E+00 0.  1.
</event>
<event>
12    1  0.1030140E-001  0.1742092E+03  0.7818608E-02  0.1173534E+00
         21   -1    0    0  501  502  0.00000000000E+00  0.00000000000E+00  0.33326845311E+02  0.33326845311E+02  0.00000000000E+00 0. -1.
         21   -1    0    0  502  503 -0.00000000000E+00 -0.00000000000E+00 -0.96416454073E+03  0.96416454073E+03  0.00000000000E+00 0. -1.
         -6    2    1    2    0  503 -0.57995829444E+01  0.28615142538E+02 -0.58308193996E+03  0.60855023514E+03  0.17174509726E+03 0.  0.
        -24    2    3    3    0    0  0.55109382921E+01 -0.94235766207E+01 -0.55079372902E+03  0.55717426204E+03  0.83368172077E+02 0.  0.
          6    2    1    2  501    0  0.57995829444E+01 -0.28615142538E+02 -0.34775575546E+03  0.38894115090E+03  0.17172271797E+03 0.  0.
         24    2    5    5    0    0  0.40136515173E+02 -0.74561570564E+02 -0.22364252289E+03  0.25213368158E+03  0.79906493408E+02 0.  0.
          5    1    5    5  501    0 -0.34336932229E+02  0.45946428027E+02 -0.12411323257E+03  0.13680746932E+03  0.47000000000E+01 0. -1.
        -11    1    6    6    0    0  0.42087002928E+02 -0.12536079293E+02 -0.14754218940E+03  0.15393884095E+03  0.00000000000E+00 0.  1.
         12    1    6    6    0    0 -0.19504877554E+01 -0.62025491271E+02 -0.76100333489E+02  0.98194840634E+02  0.00000000000E+00 0. -1.
         -5    1    3    3    0  503 -0.11310521236E+02  0.38038719158E+02 -0.32288210936E+02  0.51375973093E+02  0.47000000000E+01 0.  1.
         13    1    4    4    0    0 -0.20768792760E+02  0.29483286597E+02 -0.28402326215E+03  0.28630372052E+03  0.00000000000E+00 0. -1.
        -14    1    4    4    0    0  0.26279731052E+02 -0.38906863217E+02 -0.26677046687E+03  0.27087054152E+03  0.00000000000E+00 0.  1.
</event>
<event>
12    1  0.1030140E-001  0.1875777E+03  0.7818608E-02  0.1161144E+00
         21   -1    0    0  501  502  0.00000000000E+00  0.00000000000E+00  0.66683308943E+03  0.66683308943E+03  0.00000000000E+00 0. -1.
         21   -1    0    0  502  503 -0.00000000000E+00 -0.00000000000E+00 -0.13314592705E+03  0.13314592705E+03  0.00000000000E+00 0. -1.
         -6    2    1    2    0  503 -0.46210590055E+02  0.43380042808E+02 -0.44483634828E+02  0.19278013034E+03  0.17654500316E+03 0.  0.
        -24    2    3    3    0    0 -0.67232276582E+02 -0.27287071857E+02 -0.90802170580E+00  0.10700906028E+03  0.78647003596E+02 0.  0.
          6    2    1    2  501    0  0.46210590055E+02 -0.43380042808E+02  0.57817079721E+03  0.60719888614E+03  0.17433235453E+03 0.  0.
         24    2    5    5    0    0 -0.18368318619E+02  0.29809711752E+02  0.26825508254E+03  0.28224194158E+03  0.80459370089E+02 0.  0.
          5    1    5    5  501    0  0.64578908674E+02 -0.73189754560E+02  0.30991571467E+03  0.32495694456E+03  0.47000000000E+01 0. -1.
        -13    1    6    6    0    0 -0.21715928653E+02 -0.83779535990E+01  0.18971552708E+02  0.30028178032E+02  0.00000000000E+00 0.  1.
         14    1    6    6    0    0  0.33476100340E+01  0.38187665351E+02  0.24928352983E+03  0.25221376355E+03  0.00000000000E+00 0. -1.
         -5    1    3    3    0  503  0.21021686527E+02  0.70667114665E+02 -0.43575613122E+02  0.85771070056E+02  0.47000000000E+01 0.  1.
         13    1    4    4    0    0 -0.82413111280E+02 -0.86680541490E+01  0.13594389846E+01  0.82878852236E+02  0.00000000000E+00 0. -1.
        -14    1    4    4    0    0  0.15180834698E+02 -0.18619017708E+02 -0.22674606904E+01  0.24130208049E+02  0.00000000000E+00 0.  1.
</event>
<event>
12    1  0.1030140E-001  0.1767938E+03  0.7818608E-02  0.1171167E+00
         21   -1    0    0  503  502  0.00000000000E+00  0.00000000000E+00  0.19371987845E+03  0.19371987845E+03  0.00000000000E+00 0.  1.
         21   -1    0    0  501  503 -0.00000000000E+00 -0.00000000000E+00 -0.24687265638E+03  0.24687265638E+03  0.00000000000E+00 0.  1.
          6    2    1    2  501    0  0.15088207827E+02 -0.24360973916E+02  0.10375460684E+03  0.20421155909E+03  0.17354028743E+03 0.  0.
         24    2    3    3    0    0 -0.40129150053E+02  0.23050587562E+02  0.92363894269E+02  0.13039658022E+03  0.79564444938E+02 0.  0.
         -6    2    1    2    0  502 -0.15088207827E+02  0.24360973916E+02 -0.15690738477E+03  0.23638097574E+03  0.17445608970E+03 0.  0.
        -24    2    5    5    0    0  0.14626081041E+02  0.55096983837E+02 -0.32213063879E+02  0.10447796239E+03  0.81414760743E+02 0.  0.
          5    1    3    3  501    0  0.55217357880E+02 -0.47411561478E+02  0.11390712567E+02  0.73814978871E+02  0.47000000000E+01 0. -1.
        -13    1    4    4    0    0 -0.71834958673E+01  0.33594443081E+02  0.89287360010E+02  0.95668290861E+02  0.00000000000E+00 0.  1.
         14    1    4    4    0    0 -0.32945654186E+02 -0.10543855519E+02  0.30765342592E+01  0.34728289362E+02  0.00000000000E+00 0. -1.
         -5    1    5    5    0  502 -0.29714288867E+02 -0.30736009921E+02 -0.12469432089E+03  0.13190301335E+03  0.47000000000E+01 0.  1.
         13    1    6    6    0    0 -0.20977550820E+02  0.20361529357E+02  0.17566572851E+02  0.34106216412E+02  0.00000000000E+00 0. -1.
        -14    1    6    6    0    0  0.35603631861E+02  0.34735454480E+02 -0.49779636730E+02  0.70371745982E+02  0.00000000000E+00 0.  1.
</event>
<event>
12    1  0.1030140E-001  0.1819743E+03  0.7818608E-02  0.1166073E+00
         21   -1    0    0  501  502  0.00000000000E+00  0.00000000000E+00  0.21279732370E+03  0.21279732370E+03  0.00000000000E+00 0. -1.
         21   -1    0    0  502  503 -0.00000000000E+00 -0.00000000000E+00 -0.23215312308E+03  0.23215312308E+03  0.00000000000E+00 0. -1.
         -6    2    1    2    0  503  0.58933424548E+02 -0.11035139286E+02 -0.13792861464E+03  0.22833953322E+03  0.17181302880E+03 0.  0.
        -24    2    3    3    0    0  0.29275639883E+02 -0.69237325647E+02 -0.53777564195E+02  0.12170666784E+03  0.79180908255E+02 0.  0.
          6    2    1    2  501    0 -0.58933424548E+02  0.11035139286E+02  0.11857281526E+03  0.21661091356E+03  0.17107265277E+03 0.  0.
         24    2    5    5    0    0  0.18631531513E+02 -0.37909654165E+02  0.64469012576E+02  0.11002185840E+03  0.78512928220E+02 0.  0.
          5    1    5    5  501    0 -0.77564956061E+02  0.48944793451E+02  0.54103802686E+02  0.10658905516E+03  0.47000000000E+01 0. -1.
        -11    1    6    6    0    0 -0.16245909928E+02 -0.45580698379E+02  0.18485167859E+02  0.51799913947E+02  0.00000000000E+00 0.  1.
         12    1    6    6    0    0  0.34877441441E+02  0.76710442144E+01  0.45983844716E+02  0.58221944451E+02  0.00000000000E+00 0. -1.
         -5    1    3    3    0  503  0.29657784666E+02  0.58202186361E+02 -0.84151050446E+02  0.10663286538E+03  0.47000000000E+01 0.  1.
         11    1    4    4    0    0  0.17690978150E+02 -0.20674795345E+02 -0.65061266723E+02  0.70522239741E+02  0.00000000000E+00 0. -1.
        -12    1    4    4    0    0  0.11584661733E+02 -0.48562530302E+02  0.11283702528E+02  0.51184428096E+02  0.00000000000E+00 0.  1.
</event>
<event>
12    1  0.1030140E-001  0.1963144E+03  0.7818608E-02  0.1152947E+00
         21   -1    0    0  503  502  0.00000000000E+00  0.00000000000E+00  0.34747534783E+03  0.34747534783E+03  0.00000000000E+00 0.  1.
         21   -1    0    0  501  503 -0.00000000000E+00 -0.00000000000E+00 -0.15254452317E+03  0.15254452317E+03  0.00000000000E+00 0.  1.
          6    2    1    2  501    0  0.51814577025E+02  0.79599187002E+02 -0.33341366325E+02  0.19912559099E+03  0.17180970088E+03 0.  0.
         24    2    3    3    0    0  0.50110349390E+02  0.11234875971E+03  0.68583350804E+01  0.14703389398E+03  0.80241125956E+02 0.  0.
         -6    2    1    2    0  502 -0.51814577025E+02 -0.79599187002E+02  0.22827219098E+03  0.30089428001E+03  0.17148875650E+03 0.  0.
        -24    2    5    5    0    0 -0.62817609779E+02 -0.69681446921E+02  0.68435197421E+02  0.14030354925E+03  0.78741053725E+02 0.  0.
          5    1    3    3  501    0  0.17042276343E+01 -0.32749572707E+02 -0.40199701406E+02  0.52091697010E+02  0.47000000000E+01 0. -1.
        -11    1    4    4    0    0  0.20820841923E+02  0.11461997037E+03  0.12346853897E+02  0.11714815349E+03  0.00000000000E+00 0.  1.
         12    1    4    4    0    0  0.29289507467E+02 -0.22712106614E+01 -0.54885188165E+01  0.29885740485E+02  0.00000000000E+00 0. -1.
         -5    1    5    5    0  502  0.11003032754E+02 -0.99177400807E+01  0.15983699356E+03  0.16059073077E+03  0.47000000000E+01 0.  1.
         13    1    6    6    0    0 -0.66836352130E+01  0.11834235487E+02 -0.75298871576E+01  0.15537673887E+02  0.00000000000E+00 0. -1.
        -14    1    6    6    0    0 -0.56133974566E+02 -0.81515682408E+02  0.75965084578E+02  0.12476587536E+03  0.00000000000E+00 0.  1.
</event>
<event>
12    1  0.1030140E-001  0.1934348E+03  0.7818608E-02  0.1155675E+00
         21   -1    0    0  503  502  0.00000000000E+00  0.00000000000E+00  0.85004033896E+03  0.85004033896E+03  0.00000000000E+00 0. -1.
         21   -1    0    0  501  503 -0.00000000000E+00 -0.00000000000E+00 -0.43779583573E+02  0.43779583573E+02  0.00000000000E+00 0. -1.
          6    2    1    2  501    0  0.88342270376E+02 -0.44037492324E+01  0.38754381292E+03  0.43258147072E+03  0.17062465278E+03 0.  0.
         24    2    3    3    0    0  0.81693045794E+02 -0.58944030026E+02  0.20304092987E+03  0.24001392862E+03  0.78948808237E+02 0.  0.
         -6    2    1    2    0  502 -0.88342270376E+02  0.44037492324E+01  0.41871694247E+03  0.46123845182E+03  0.17202697980E+03 0.  0.
        -24    2    5    5    0    0 -0.92802101559E+01  0.44211724636E+02  0.13352669389E+03  0.16258974153E+03  0.81026212877E+02 0.  0.
          5    1    3    3  501    0  0.66492245818E+01  0.54540280794E+02  0.18450288305E+03  0.19256754210E+03  0.47000000000E+01 0. -1.
        -13    1    4    4    0    0 -0.11926247462E+02 -0.12708874092E+02  0.88849181932E+01  0.19562531291E+02  0.00000000000E+00 0.  1.
         14    1    4    4    0    0  0.93619293256E+02 -0.46235155934E+02  0.19415601167E+03  0.22045139733E+03  0.00000000000E+00 0. -1.
         -5    1    5    5    0  502 -0.79062060220E+02 -0.39807975404E+02  0.28519024858E+03  0.29864871029E+03  0.47000000000E+01 0.  1.
         11    1    6    6    0    0  0.24817696617E+02  0.22792749183E+02  0.11193951341E+03  0.11690116400E+03  0.00000000000E+00 0. -1.
        -12    1    6    6    0    0 -0.34097906773E+02  0.21418975453E+02  0.21587180473E+02  0.45688577528E+02  0.00000000000E+00 0.  1.
</event>
<event>
12    1  0.1030140E-001  0.2336805E+03  0.7818608E-02  0.1124334E+00
         21   -1    0    0  501  502  0.00000000000E+00  0.00000000000E+00  0.95887965622E+02  0.95887965622E+02  0.00000000000E+00 0.  1.
         21   -1    0    0  502  503 -0.00000000000E+00 -0.00000000000E+00 -0.80230056158E+03  0.80230056158E+03  0.00000000000E+00 0. -1.
         -6    2    1    2    0  503  0.60396593585E+02  0.14740276087E+03 -0.59620894563E+03  0.63982559217E+03  0.16892708226E+03 0.  0.
        -24    2    3    3    0    0  0.37691729448E+01  0.48935428784E+02 -0.41505861397E+03  0.42595644312E+03  0.82197053159E+02 0.  0.
          6    2    1    2  501    0 -0.60396593585E+02 -0.14740276087E+03 -0.11020365033E+03  0.25836293503E+03  0.17097145733E+03 0.  0.
         24    2    5    5    0    0 -0.18294022946E+02 -0.16161317176E+03 -0.58400186169E+02  0.18995057408E+03  0.78848907960E+02 0.  0.
          5    1    5    5  501    0 -0.42102570639E+02  0.14210410889E+02 -0.51803464158E+02  0.68412360950E+02  0.47000000000E+01 0. -1.
        -11    1    6    6    0    0 -0.43210026684E+02 -0.51414848923E+02 -0.29360103232E+02  0.73298081541E+02  0.00000000000E+00 0.  1.
         12    1    6    6    0    0  0.24916003738E+02 -0.11019832284E+03 -0.29040082937E+02  0.11665249254E+03  0.00000000000E+00 0. -1.
         -5    1    3    3    0  503  0.56627420640E+02  0.98467332086E+02 -0.18115033166E+03  0.21386914906E+03  0.47000000000E+01 0.  1.
         11    1    4    4    0    0  0.34689420779E+02  0.49729776114E+02 -0.32822660381E+03  0.33378003234E+03  0.00000000000E+00 0. -1.
        -12    1    4    4    0    0 -0.30920247834E+02 -0.79434733014E+00 -0.86832010162E+02  0.92176410771E+02  0.00000000000E+00 0.  1.
</event>
<event>
12    1  0.1030140E-001  0.2541019E+03  0.7818608E-02  0.1111068E+00
         21   -1    0    0  503  502  0.00000000000E+00  0.00000000000E+00  0.72894361598E+03  0.72894361598E+03  0.00000000000E+00 0.  1.
         21   -1    0    0  501  503 -0.00000000000E+00 -0.00000000000E+00 -0.89633530373E+02  0.89633530373E+02  0.00000000000E+00 0.  1.
          6    2    1    2  501    0 -0.15415418465E+03 -0.10054765922E+03  0.26311137637E+03  0.36578048916E+03  0.17519824616E+03 0.  0.
         24    2    3    3    0    0 -0.16000701622E+03 -0.12437340395E+03  0.19190531782E+03  0.29031980719E+03  0.79918399575E+02 0.  0.
         -6    2    1    2    0  502  0.15415418465E+03  0.10054765922E+03  0.37619870924E+03  0.45279665719E+03  0.17212204831E+03 0.  0.
        -24    2    5    5    0    0  0.16539766890E+03  0.11966150009E+03  0.37059489775E+03  0.42944612071E+03  0.73539981418E+02 0.  0.
          5    1    3    3  501    0  0.58528315694E+01  0.23825744730E+02  0.71206058548E+02  0.75460681969E+02  0.47000000000E+01 0. -1.
        -13    1    4    4    0    0 -0.65630072394E+02 -0.56729226722E+02  0.31486453856E+02  0.92287097383E+02  0.00000000000E+00 0.  1.
         14    1    4    4    0    0 -0.94376943826E+02 -0.67644177226E+02  0.16041886396E+03  0.19803270981E+03  0.00000000000E+00 0. -1.
         -5    1    5    5    0  502 -0.11243484249E+02 -0.19113840877E+02  0.56038114879E+01  0.23350536489E+02  0.47000000000E+01 0.  1.
         13    1    6    6    0    0  0.52226149787E+02  0.78197574006E+02  0.13115502804E+03  0.16138176069E+03  0.00000000000E+00 0. -1.
        -14    1    6    6    0    0  0.11317151911E+03  0.41463926089E+02  0.23943986971E+03  0.26806436002E+03  0.00000000000E+00 0.  1.
</event>
<event>
12    1  0.1030140E-001  0.2192902E+03  0.7818608E-02  0.1134448E+00
         21   -1    0    0  501  502  0.00000000000E+00  0.00000000000E+00  0.14132176187E+04  0.14132176187E+04  0.00000000000E+00 0.  1.
         21   -1    0    0  502  503 -0.00000000000E+00 -0.00000000000E+00 -0.56426752995E+02  0.56426752995E+02  0.00000000000E+00 0. -1.
         -6    2    1    2    0  503 -0.13183219918E+03  0.34051190534E+02  0.21495164009E+03  0.30693846629E+03  0.17166188334E+03 0.  0.
        -24    2    3    3    0    0 -0.40473330751E+02  0.33527993888E+02  0.30859856667E+02  0.10136952092E+03  0.81001432960E+02 0.  0.
          6    2    1    2  501    0  0.13183219918E+03 -0.34051190534E+02  0.11418392256E+04  0.11627059054E+04  0.17189820538E+03 0.  0.
         24    2    5    5    0    0  0.24932914776E+02 -0.38509967367E+02  0.29556683370E+03  0.30968398951E+03  0.80248067567E+02 0.  0.
          5    1    5    5  501    0  0.10689928440E+03  0.44587768327E+01  0.84627239193E+03  0.85302191592E+03  0.47000000000E+01 0. -1.
        -11    1    6    6    0    0  0.22822718321E+02 -0.79074497690E+01  0.26594982674E+03  0.26704440563E+03  0.00000000000E+00 0.  1.
         12    1    6    6    0    0  0.21101964541E+01 -0.30602517598E+02  0.29617006964E+02  0.42639583885E+02  0.00000000000E+00 0. -1.
         -5    1    3    3    0  503 -0.91358868425E+02  0.52319664636E+00  0.18409178342E+03  0.20556894537E+03  0.47000000000E+01 0.  1.
         11    1    4    4    0    0  0.19900132752E+02  0.27877844711E+02  0.20311979557E+02  0.39821677800E+02  0.00000000000E+00 0. -1.
        -12    1    4    4    0    0 -0.60373463503E+02  0.56501491766E+01  0.10547877110E+02  0.61547843119E+02  0.00000000000E+00 0.  1.
</event>
<event>
12    1  0.1030140E-001  0.1773118E+03  0.7818608E-02  0.1170578E+00
         21   -1    0    0  503  502  0.00000000000E+00  0.00000000000E+00  0.39527908907E+03  0.39527908907E+03  0.00000000000E+00 0.  1.
         21   -1    0    0  501  503 -0.00000000000E+00 -0.00000000000E+00 -0.13479097674E+03  0.13479097674E+03  0.00000000000E+00 0.  1.
          6    2    1    2  501    0  0.20552753264E+02  0.31651332576E+02 -0.39726469136E+02  0.18170766099E+03  0.17324912465E+03 0.  0.
         24    2    3    3    0    0  0.51877952133E+02 -0.37056201810E+02 -0.13487689121E+02  0.10162921856E+03  0.77987795817E+02 0.  0.
         -6    2    1    2    0  502 -0.20552753264E+02 -0.31651332576E+02  0.30021458146E+03  0.34836240483E+03  0.17263646096E+03 0.  0.
        -24    2    5    5    0    0 -0.78579751147E+02 -0.37051849470E+02  0.19104960657E+03  0.22452630423E+03  0.79777768111E+02 0.  0.
          5    1    3    3  501    0 -0.31325198869E+02  0.68707534386E+02 -0.26238780015E+02  0.80078442432E+02  0.47000000000E+01 0. -1.
        -11    1    4    4    0    0 -0.64638374164E+01  0.43026912798E+01 -0.27655425575E+02  0.28724848305E+02  0.00000000000E+00 0.  1.
         12    1    4    4    0    0  0.58341789550E+02 -0.41358893090E+02  0.14167736455E+02  0.72904370251E+02  0.00000000000E+00 0. -1.
         -5    1    5    5    0  502  0.58026997883E+02  0.54005168943E+01  0.10916497490E+03  0.12383610059E+03  0.47000000000E+01 0.  1.
         11    1    6    6    0    0 -0.75831055132E+02 -0.39326137550E+02  0.92489140354E+02  0.12590129110E+03  0.00000000000E+00 0. -1.
        -12    1    6    6    0    0 -0.27486960150E+01  0.22742880798E+01  0.98560466212E+02  0.98625013135E+02  0.00000000000E+00 0.  1.
</event>
<event>
12    1  0.1030140E-001  0.3973522E+03  0.7818608E-02  0.1044721E+00
         21   -1    0    0  501  502  0.00000000000E+00  0.00000000000E+00  0.27385348815E+03  0.27385348815E+03  0.00000000000E+00 0. -1.
         21   -1    0    0  502  503 -0.00000000000E+00 -0.00000000000E+00 -0.69428786897E+03  0.69428786897E+03  0.00000000000E+00 0. -1.
         -6    2    1    2    0  503 -0.27771766156E+03 -0.22628468038E+03 -0.40979489789E+03  0.57064678101E+03  0.17138854754E+03 0.  0.
        -24    2    3    3    0    0 -0.18701833672E+03 -0.90116299914E+02 -0.29339874194E+03  0.36980268604E+03  0.87031023509E+02 0.  0.
          6    2    1    2  501    0  0.27771766156E+03  0.22628468038E+03 -0.10639482930E+02  0.39749457610E+03  0.17192115435E+03 0.  0.
         24    2    5    5    0    0  0.19654690867E+03  0.18288974095E+03  0.53619066647E+02  0.28514217031E+03  0.79697605539E+02 0.  0.
          5    1    5    5  501    0  0.81170752893E+02  0.43394939432E+02 -0.64258549577E+02  0.11235240579E+03  0.47000000000E+01 0. -1.
        -11    1    6    6    0    0  0.13410566350E+03  0.70565380980E+02  0.29774526057E+02  0.15443550232E+03  0.00000000000E+00 0.  1.
         12    1    6    6    0    0  0.62441245172E+02  0.11232435997E+03  0.23844540590E+02  0.13070666799E+03  0.00000000000E+00 0. -1.
         -5    1    3    3    0  503 -0.90699324842E+02 -0.13616838046E+03 -0.11639615595E+03  0.20084409497E+03  0.47000000000E+01 0.  1.
         13    1    4    4    0    0 -0.13594206031E+03 -0.92149159083E+02 -0.17066980872E+03  0.23685416376E+03  0.00000000000E+00 0. -1.
        -14    1    4    4    0    0 -0.51076276409E+02  0.20328591687E+01 -0.12272893322E+03  0.13294852228E+03  0.00000000000E+00 0.  1.
</event>
<event>
12    1  0.1030140E-001  0.3437786E+03  0.7818608E-02  0.1065279E+00
         21   -1    0    0  503  502  0.00000000000E+00  0.00000000000E+00  0.11276424927E+04  0.11276424927E+04  0.00000000000E+00 0. -1.
         21   -1    0    0  501  503 -0.00000000000E+00 -0.00000000000E+00 -0.16063726733E+03  0.16063726733E+03  0.00000000000E+00 0.  1.
          6    2    1    2  501    0  0.29683565866E+03 -0.82025144152E+01  0.10260504710E+03  0.35802636435E+03  0.17168690220E+03 0.  0.
         24    2    3    3    0    0  0.11768258707E+03  0.38675206249E+02  0.87125880958E+02  0.17213650896E+03  0.81823564485E+02 0.  0.
         -6    2    1    2    0  502 -0.29683565866E+03  0.82025144152E+01  0.86440017829E+03  0.93025339570E+03  0.17321957884E+03 0.  0.
        -24    2    5    5    0    0 -0.27321945443E+03  0.93940958217E+01  0.85983147504E+03  0.90571550628E+03  0.79204125668E+02 0.  0.
          5    1    3    3  501    0  0.17915307159E+03 -0.46877720664E+02  0.15479166143E+02  0.18588985539E+03  0.47000000000E+01 0. -1.
        -11    1    4    4    0    0  0.10033176319E+03 -0.12471173835E+01  0.40098337015E+02  0.10805505374E+03  0.00000000000E+00 0.  1.
         12    1    4    4    0    0  0.17350823877E+02  0.39922323632E+02  0.47027543943E+02  0.64081455217E+02  0.00000000000E+00 0. -1.
         -5    1    5    5    0  502 -0.23616204221E+02 -0.11915814065E+01  0.45687032509E+01  0.24537889425E+02  0.47000000000E+01 0.  1.
         11    1    6    6    0    0 -0.10697522616E+03 -0.34690099436E+02  0.32457119632E+03  0.34350191192E+03  0.00000000000E+00 0. -1.
        -12    1    6    6    0    0 -0.16624422827E+03  0.44084195258E+02  0.53526027872E+03  0.56221359436E+03  0.00000000000E+00 0.  1.
</event>
<event>
12    1  0.1030140E-001  0.1774955E+03  0.7818608E-02  0.1170622E+00
         21   -1    0    0  501  502  0.00000000000E+00  0.00000000000E+00  0.39814721303E+02  0.39814721303E+02  0.00000000000E+00 0.  1.
         21   -1    0    0  502  503 -0.00000000000E+00 -0.00000000000E+00 -0.81114706339E+03  0.81114706339E+03  0.00000000000E+00 0.  1.
         -6    2    1    2    0  503 -0.23387199057E+02  0.29538469160E+02 -0.46108145955E+03  0.49352612671E+03  0.17190824052E+03 0.  0.
        -24    2    3    3    0    0 -0.52924013270E+02 -0.84697210894E+01 -0.11543102196E+03  0.14450841809E+03  0.68451988374E+02 0.  0.
          6    2    1    2  501    0  0.23387199057E+02 -0.29538469160E+02 -0.31025088253E+03  0.35743565798E+03  0.17345073435E+03 0.  0.
         24    2    5    5    0    0 -0.26745108864E+02 -0.57270319886E+02 -0.11358728008E+03  0.15254308522E+03  0.79825636646E+02 0.  0.
          5    1    5    5  501    0  0.50132307921E+02  0.27731850725E+02 -0.19666360246E+03  0.20489257276E+03  0.47000000000E+01 0. -1.
        -11    1    6    6    0    0 -0.48187086450E+02 -0.40994629051E+02 -0.10782297871E+03  0.12501339788E+03  0.00000000000E+00 0.  1.
         12    1    6    6    0    0  0.21441977585E+02 -0.16275690834E+02 -0.57643013663E+01  0.27529687342E+02  0.00000000000E+00 0. -1.
         -5    1    3    3    0  503  0.29536814214E+02  0.38008190250E+02 -0.34565043759E+03  0.34901770862E+03  0.47000000000E+01 0.  1.
         11    1    4    4    0    0 -0.22018158390E+02 -0.15094438637E+02 -0.20160513590E+01  0.26771362306E+02  0.00000000000E+00 0. -1.
        -12    1    4    4    0    0 -0.30905854881E+02  0.66247175479E+01 -0.11341497060E+03  0.11773705578E+03  0.00000000000E+00 0.  1.
</event>
<event>
12    1  0.1030140E-001  0.1771376E+03  0.7818608E-02  0.1171454E+00
         21   -1    0    0  501  502  0.00000000000E+00  0.00000000000E+00  0.81707690336E+02  0.81707690336E+02  0.00000000000E+00 0.  1.
         21   -1    0    0  502  503 -0.00000000000E+00 -0.00000000000E+00 -0.52114443888E+03  0.52114443888E+03  0.00000000000E+00 0.  1.
         -6    2    1    2    0  503  0.18150389962E+01  0.28167340853E+02 -0.37996967274E+03  0.41923107802E+03  0.17487438668E+03 0.  0.
        -24    2    3    3    0    0 -0.53194764827E+02 -0.24876435239E+02 -0.24505325455E+03  0.26410451487E+03  0.79066915778E+02 0.  0.
          6    2    1    2  501    0 -0.18150389962E+01 -0.28167340853E+02 -0.59467075802E+02  0.18362105120E+03  0.17141663828E+03 0.  0.
         24    2    5    5    0    0 -0.13937349410E+01 -0.64888290295E+02 -0.88780312761E+02  0.13639858318E+03  0.80685790842E+02 0.  0.
          5    1    5    5  501    0 -0.42130405515E+00  0.36720949442E+02  0.29313236958E+02  0.47222468021E+02  0.47000000000E+01 0. -1.
        -11    1    6    6    0    0  0.84168186483E+01 -0.19889408156E+02  0.12630706889E+02  0.25019315527E+02  0.00000000000E+00 0.  1.
         12    1    6    6    0    0 -0.98105535893E+01 -0.44998882139E+02 -0.10141101965E+03  0.11137926765E+03  0.00000000000E+00 0. -1.
         -5    1    3    3    0  503  0.55009803823E+02  0.53043776093E+02 -0.13491641819E+03  0.15512656315E+03  0.47000000000E+01 0.  1.
         11    1    4    4    0    0 -0.33569312527E+02  0.20972457041E+02 -0.55952843521E+02  0.68538043421E+02  0.00000000000E+00 0. -1.
        -12    1    4    4    0    0 -0.19625452300E+02 -0.45848892280E+02 -0.18910041103E+03  0.19556647145E+03  0.00000000000E+00 0.  1.
</event>
<event>
12    1  0.1030140E-001  0.3387501E+03  0.7818608E-02  0.1067410E+00
         21   -1    0    0  503  502  0.00000000000E+00  0.00000000000E+00  0.39752182298E+03  0.39752182298E+03  0.00000000000E+00 0.  1.
         21   -1    0    0  501  503 -0.00000000000E+00 -0.00000000000E+00 -0.55895365821E+03  0.55895365821E+03  0.00000000000E+00 0. -1.
          6    2    1    2  501    0  0.72226261629E+02 -0.28205592427E+03 -0.41371371220E+03  0.53470613177E+03  0.17314570283E+03 0.  0.
         24    2    3    3    0    0  0.82449884848E+01 -0.18920834164E+03 -0.17227248821E+03  0.26819115742E+03  0.79880600540E+02 0.  0.
         -6    2    1    2    0  502 -0.72226261629E+02  0.28205592427E+03  0.25228187697E+03  0.42176934941E+03  0.17167137610E+03 0.  0.
        -24    2    5    5    0    0 -0.30700714753E+02  0.10480611108E+03  0.39617768121E+02  0.14178724193E+03  0.81284682548E+02 0.  0.
          5    1    3    3  501    0  0.63981273144E+02 -0.92847582635E+02 -0.24144122399E+03  0.26651497435E+03  0.47000000000E+01 0. -1.
        -11    1    4    4    0    0  0.36642445998E+02 -0.83203872268E+02 -0.49487770607E+02  0.10351131653E+03  0.00000000000E+00 0.  1.
         12    1    4    4    0    0 -0.28397457513E+02 -0.10600446937E+03 -0.12278471760E+03  0.16467984089E+03  0.00000000000E+00 0. -1.
         -5    1    5    5    0  502 -0.41525546876E+02  0.17724981319E+03  0.21266410884E+03  0.27998210748E+03  0.47000000000E+01 0.  1.
         13    1    6    6    0    0 -0.34055969775E+02  0.10985048509E+03  0.53348518207E+02  0.12677934590E+03  0.00000000000E+00 0. -1.
        -14    1    6    6    0    0  0.33552550222E+01 -0.50443740077E+01 -0.13730750085E+02  0.15007896032E+02  0.00000000000E+00 0.  1.
</event>
<event>
12    1  0.1030140E-001  0.2672553E+03  0.7818608E-02  0.1103182E+00
         21   -1    0    0  501  502  0.00000000000E+00  0.00000000000E+00  0.15845904495E+03  0.15845904495E+03  0.00000000000E+00 0.  1.
         21   -1    0    0  502  503 -0.00000000000E+00 -0.00000000000E+00 -0.48395612548E+03  0.48395612548E+03  0.00000000000E+00 0.  1.
         -6    2    1    2    0  503  0.18766910378E+03 -0.78270099525E+02 -0.74651433083E+02  0.27748555338E+03  0.17343441089E+03 0.  0.
        -24    2    3    3    0    0  0.18948785769E+03 -0.11061106467E+03 -0.73169876104E+02  0.24472077194E+03  0.79962301204E+02 0.  0.
          6    2    1    2  501    0 -0.18766910378E+03  0.78270099525E+02 -0.25084564744E+03  0.36492961704E+03  0.17001231002E+03 0.  0.
         24    2    5    5    0    0 -0.16615729576E+03  0.19637840706E+02 -0.12146638503E+03  0.22118824095E+03  0.78589207396E+02 0.  0.
          5    1    5    5  501    0 -0.21511808020E+02  0.58632258819E+02 -0.12937926241E+03  0.14374137609E+03  0.47000000000E+01 0. -1.
        -11    1    6    6    0    0 -0.14735785095E+03  0.13623732228E+02 -0.13244785380E+03  0.19860104807E+03  0.00000000000E+00 0.  1.
         12    1    6    6    0    0 -0.18799444812E+02  0.60141084783E+01  0.10981468769E+02  0.22587192884E+02  0.00000000000E+00 0. -1.
         -5    1    3    3    0  503 -0.18187539005E+01  0.32340965140E+02 -0.14815569791E+01  0.32764781443E+02  0.47000000000E+01 0.  1.
         13    1    4    4    0    0  0.30530442148E+02 -0.20941469230E+02  0.17481435975E+02  0.40942076584E+02  0.00000000000E+00 0. -1.
        -14    1    4    4    0    0  0.15895741554E+03 -0.89669595435E+02 -0.90651312078E+02  0.20377869536E+03  0.00000000000E+00 0.  1.
</event>
<event>
12    1  0.1030140E-001  0.2582046E+03  0.7818608E-02  0.1108391E+00
         21   -1    0    0  501  502  0.00000000000E+00  0.00000000000E+00  0.48924930653E+03  0.48924930653E+03  0.00000000000E+00 0.  1.
         21   -1    0    0  502  503 -0.00000000000E+00 -0.00000000000E+00 -0.14671677658E+03  0.14671677658E+03  0.00000000000E+00 0.  1.
         -6    2    1    2    0  503 -0.17254004972E+03  0.81643422898E+02  0.84463144940E+02  0.27166824803E+03  0.17387897192E+03 0.  0.
        -24    2    3    3    0    0 -0.42733966524E+02  0.75866488734E+02  0.81198736350E+02  0.14160772917E+03  0.76665495291E+02 0.  0.
          6    2    1    2  501    0  0.17254004972E+03 -0.81643422898E+02  0.25806938500E+03  0.36429783508E+03  0.17227126258E+03 0.  0.
         24    2    5    5    0    0  0.16356242651E+03 -0.38896336048E+02  0.12390238782E+03  0.22312140544E+03  0.78522401477E+02 0.  0.
          5    1    5    5  501    0  0.89776232060E+01 -0.42747086850E+02  0.13416699718E+03  0.14117642964E+03  0.47000000000E+01 0. -1.
        -11    1    6    6    0    0  0.15085157943E+03 -0.17082784400E+02  0.12667422183E+03  0.19772298555E+03  0.00000000000E+00 0.  1.
         12    1    6    6    0    0  0.12710847079E+02 -0.21813551648E+02 -0.27718340088E+01  0.25398419887E+02  0.00000000000E+00 0. -1.
         -5    1    3    3    0  503 -0.12980608320E+03  0.57769341649E+01  0.32644085899E+01  0.13006051886E+03  0.47000000000E+01 0.  1.
         11    1    4    4    0    0  0.63539214677E+01 -0.10937759929E+02 -0.54838722468E+00  0.12661265294E+02  0.00000000000E+00 0. -1.
        -12    1    4    4    0    0 -0.49087887992E+02  0.86804248663E+02  0.81747123575E+02  0.12894646388E+03  0.00000000000E+00 0.  1.
</event>
<event>
12    1  0.1030140E-001  0.1804781E+03  0.7818608E-02  0.1167513E+00
         21   -1    0    0  501  502  0.00000000000E+00  0.00000000000E+00  0.60078161717E+02  0.60078161717E+02  0.00000000000E+00 0. -1.
         21   -1    0    0  502  503 -0.00000000000E+00 -0.00000000000E+00 -0.99936207342E+03  0.99936207342E+03  0.00000000000E+00 0. -1.
         -6    2    1    2    0  503  0.53540059784E+02  0.12813572855E+02 -0.82826754443E+03  0.84755113168E+03  0.17112881119E+03 0.  0.
        -24    2    3    3    0    0  0.44926967451E+02  0.27465593678E+02 -0.82386196578E+03  0.82937515312E+03  0.79635511544E+02 0.  0.
          6    2    1    2  501    0 -0.53540059784E+02 -0.12813572855E+02 -0.11101636728E+03  0.21188910346E+03  0.17187679514E+03 0.  0.
         24    2    5    5    0    0  0.31937777560E+02  0.68761459513E+01 -0.83084885069E+02  0.11971316624E+03  0.79754880889E+02 0.  0.
          5    1    5    5  501    0 -0.85477837343E+02 -0.19689718806E+02 -0.27931482213E+02  0.92175937219E+02  0.47000000000E+01 0. -1.
        -11    1    6    6    0    0  0.19595063288E+02 -0.36313256024E+02 -0.39109367384E+02  0.56852103615E+02  0.00000000000E+00 0.  1.
         12    1    6    6    0    0  0.12342714272E+02  0.43189401975E+02 -0.43975517685E+02  0.62861062624E+02  0.00000000000E+00 0. -1.
         -5    1    3    3    0  503  0.86130923325E+01 -0.14652020823E+02 -0.44055786409E+01  0.18175978568E+02  0.47000000000E+01 0.  1.
         13    1    4    4    0    0  0.29253289210E+02 -0.25458871980E+02 -0.41418400599E+03  0.41599555276E+03  0.00000000000E+00 0. -1.
        -14    1    4    4    0    0  0.15673678241E+02  0.52924465658E+02 -0.40967795979E+03  0.41337960036E+03  0.00000000000E+00 0.  1.
</event>
<event>
12    1  0.1030140E-001  0.2467940E+03  0.7818608E-02  0.1115608E+00
         21   -1    0    0  501  502  0.00000000000E+00  0.00000000000E+00  0.44690120439E+02  0.44690120439E+02  0.00000000000E+00 0. -1.
         21   -1    0    0  502  503 -0.00000000000E+00 -0.00000000000E+00 -0.15519082672E+04  0.15519082672E+04  0.00000000000E+00 0. -1.
         -6    2    1    2    0  503 -0.12089096324E+03  0.12693777425E+03 -0.46636217605E+03  0.52688419880E+03  0.17142186608E+03 0.  0.
        -24    2    3    3    0    0 -0.12448977601E+03  0.69803889783E+02 -0.22125971601E+03  0.27514119865E+03  0.79853177187E+02 0.  0.
          6    2    1    2  501    0  0.12089096324E+03 -0.12693777425E+03 -0.10408559707E+04  0.10697141888E+04  0.17372239495E+03 0.  0.
         24    2    5    5    0    0  0.28543437739E+02 -0.40720296678E+01 -0.27264717262E+03  0.28626610241E+03  0.82343739217E+02 0.  0.
          5    1    5    5  501    0  0.92347525505E+02 -0.12286574459E+03 -0.76820879809E+03  0.78344808643E+03  0.47000000000E+01 0. -1.
        -11    1    6    6    0    0  0.52839931394E+02  0.12208194439E+02 -0.21354069413E+03  0.22031960061E+03  0.00000000000E+00 0.  1.
         12    1    6    6    0    0 -0.24296493656E+02 -0.16280224106E+02 -0.59106478487E+02  0.65946501803E+02  0.00000000000E+00 0. -1.
         -5    1    3    3    0  503  0.35988127641E+01  0.57133884470E+02 -0.24510246003E+03  0.25174300015E+03  0.47000000000E+01 0.  1.
         11    1    4    4    0    0 -0.77800184984E+02  0.97843080217E+01 -0.15736665556E+03  0.17582054985E+03  0.00000000000E+00 0. -1.
        -12    1    4    4    0    0 -0.46689591024E+02  0.60019581762E+02 -0.63893060452E+02  0.99320648804E+02  0.00000000000E+00 0.  1.
</event>
<event>
12    1  0.1030140E-001  0.1855260E+03  0.7818608E-02  0.1162637E+00
         21   -1    0    0  501  502  0.00000000000E+00  0.00000000000E+00  0.15346640283E+03  0.15346640283E+03  0.00000000000E+00 0.  1.
         21   -1    0    0  502  503 -0.00000000000E+00 -0.00000000000E+00 -0.35683817242E+03  0.35683817242E+03  0.00000000000E+00 0.  1.
         -6    2    1    2    0  503 -0.48372711976E+02 -0.41948704599E+02 -0.25737482337E+03  0.31707875801E+03  0.17377435366E+03 0.  0.
        -24    2    3    3    0    0  0.36817961181E+02 -0.84775699801E+01 -0.16608519085E+03  0.18772012995E+03  0.78912135389E+02 0.  0.
          6    2    1    2  501    0  0.48372711976E+02  0.41948704599E+02  0.54003053789E+02  0.19322581724E+03  0.17412717637E+03 0.  0.
         24    2    5    5    0    0  0.50352037529E+02  0.35375797482E+02  0.10278993526E+03  0.14373470045E+03  0.79417369578E+02 0.  0.
          5    1    5    5  501    0 -0.19793255532E+01  0.65729071170E+01 -0.48786881475E+02  0.49491116796E+02  0.47000000000E+01 0. -1.
        -11    1    6    6    0    0 -0.16172836298E+02  0.17544824164E+02  0.54215913827E+01  0.24469882345E+02  0.00000000000E+00 0.  1.
         12    1    6    6    0    0  0.66524873827E+02  0.17830973318E+02  0.97368343882E+02  0.11926481810E+03  0.00000000000E+00 0. -1.
         -5    1    3    3    0  503 -0.85190673157E+02 -0.33471134619E+02 -0.91289632525E+02  0.12935862805E+03  0.47000000000E+01 0.  1.
         13    1    4    4    0    0  0.69483199073E+01  0.19387783833E+02 -0.13454306565E+03  0.13611025614E+03  0.00000000000E+00 0. -1.
        -14    1    4    4    0    0  0.29869641274E+02 -0.27865353813E+02 -0.31542125196E+02  0.51609873811E+02  0.00000000000E+00 0.  1.
</event>
<event>
12    1  0.1030140E-001  0.1762433E+03  0.7818608E-02  0.1171735E+00
         21   -1    0    0  501  502  0.00000000000E+00  0.00000000000E+00  0.14426612274E+03  0.14426612274E+03  0.00000000000E+00 0. -1.
         21   -1    0    0  502  503 -0.00000000000E+00 -0.00000000000E+00 -0.24583583349E+03  0.24583583349E+03  0.00000000000E+00 0. -1.
         -6    2    1    2    0  503 -0.24588330415E+02 -0.23657886734E+02 -0.12073391587E+03  0.21281979314E+03  0.17190492813E+03 0.  0.
        -24    2    3    3    0    0  0.40481528193E+02  0.80518929692E+01 -0.10515159163E+03  0.13862750610E+03  0.80356338392E+02 0.  0.
          6    2    1    2  501    0  0.24588330415E+02  0.23657886734E+02  0.19164205113E+02  0.17728216309E+03  0.17290869554E+03 0.  0.
         24    2    5    5    0    0 -0.10632599444E+02 -0.44299550143E+02 -0.12831522402E+02  0.94188579063E+02  0.81433028587E+02 0.  0.
          5    1    5    5  501    0  0.35220929859E+02  0.67957436877E+02  0.31995727516E+02  0.83093584026E+02  0.47000000000E+01 0. -1.
        -11    1    6    6    0    0  0.41109997306E+00 -0.25000181056E+02 -0.47107459494E+02  0.53331892860E+02  0.00000000000E+00 0.  1.
         12    1    6    6    0    0 -0.11043699417E+02 -0.19299369087E+02  0.34275937092E+02  0.40856686203E+02  0.00000000000E+00 0. -1.
         -5    1    3    3    0  503 -0.65069858607E+02 -0.31709779703E+02 -0.15582324237E+02  0.74192287043E+02  0.47000000000E+01 0.  1.
         11    1    4    4    0    0  0.24701089047E+02 -0.28549964799E+02 -0.86984630507E+02  0.94823890632E+02  0.00000000000E+00 0. -1.
        -12    1    4    4    0    0  0.15780439146E+02  0.36601857768E+02 -0.18166961126E+02  0.43803615470E+02  0.00000000000E+00 0.  1.
</event>
<event>
12    1  0.1030140E-001  0.2109975E+03  0.7818608E-02  0.1140851E+00
         21   -1    0    0  501  502  0.00000000000E+00  0.00000000000E+00  0.81065686347E+03  0.81065686347E+03  0.00000000000E+00 0. -1.
         21   -1    0    0  502  503 -0.00000000000E+00 -0.00000000000E+00 -0.64388362217E+02  0.64388362217E+02  0.00000000000E+00 0.  1.
         -6    2    1    2    0  503  0.97201302122E+02 -0.75417710174E+02  0.20422567929E+03  0.29338348513E+03  0.17096729840E+03 0.  0.
        -24    2    3    3    0    0  0.46436674865E+02  0.20147457917E+02  0.13472728564E+03  0.16469057370E+03  0.80057846186E+02 0.  0.
          6    2    1    2  501    0 -0.97201302122E+02  0.75417710174E+02  0.54204282196E+03  0.58166174056E+03  0.17141772208E+03 0.  0.
         24    2    5    5    0    0 -0.83507779619E+02  0.53356733894E+01  0.45196244025E+03  0.46661579492E+03  0.80363138327E+02 0.  0.
          5    1    5    5  501    0 -0.13693522504E+02  0.70082036784E+02  0.90080381713E+02  0.11504594564E+03  0.47000000000E+01 0. -1.
        -13    1    6    6    0    0 -0.98721925525E+02 -0.27944727591E+01  0.38651881161E+03  0.39893686140E+03  0.00000000000E+00 0.  1.
         14    1    6    6    0    0  0.15214145906E+02  0.81301461485E+01  0.65443628643E+02  0.67678933517E+02  0.00000000000E+00 0. -1.
         -5    1    3    3    0  503  0.50764627258E+02 -0.95565168091E+02  0.69498393645E+02  0.12869291143E+03  0.47000000000E+01 0.  1.
         13    1    4    4    0    0  0.28332475976E+02 -0.12120664848E+02  0.12157939761E+03  0.12542403930E+03  0.00000000000E+00 0. -1.
        -14    1    4    4    0    0  0.18104198889E+02  0.32268122765E+02  0.13147888036E+02  0.39266534403E+02  0.00000000000E+00 0.  1.
</event>
<event>
12    1  0.1030140E-001  0.2258725E+03  0.7818608E-02  0.1130331E+00
         21   -1    0    0  503  502  0.00000000000E+00  0.00000000000E+00  0.20813528003E+03  0.20813528003E+03  0.00000000000E+00 0. -1.
         21   -1    0    0  501  503 -0.00000000000E+00 -0.00000000000E+00 -0.59585849893E+03  0.59585849893E+03  0.00000000000E+00 0. -1.
          6    2    1    2  501    0 -0.12562847928E+03 -0.75669958597E+02 -0.50350962353E+03  0.55017322366E+03  0.16631349193E+03 0.  0.
         24    2    3    3    0    0 -0.61900846394E+02  0.22552362525E+02 -0.20772482110E+03  0.23202298413E+03  0.79653876388E+02 0.  0.
         -6    2    1    2    0  502  0.12562847928E+03  0.75669958597E+02  0.11578640463E+03  0.25382055530E+03  0.17178453178E+03 0.  0.
        -24    2    5    5    0    0  0.10676595320E+03  0.97664279486E+02  0.36660865141E+02  0.16942573295E+03  0.80148485344E+02 0.  0.
          5    1    3    3  501    0 -0.63727632882E+02 -0.98222321122E+02 -0.29578480243E+03  0.31815023953E+03  0.47000000000E+01 0. -1.
        -11    1    4    4    0    0 -0.41507896302E+01  0.49926147702E+01  0.66610202522E+01  0.93018518371E+01  0.00000000000E+00 0.  1.
         12    1    4    4    0    0 -0.57750056764E+02  0.17559747755E+02 -0.21438584135E+03  0.22272113229E+03  0.00000000000E+00 0. -1.
         -5    1    5    5    0  502  0.18862526077E+02 -0.21994320889E+02  0.79125539484E+02  0.84394822353E+02  0.47000000000E+01 0.  1.
         11    1    6    6    0    0  0.41130396786E+01  0.39165385994E+02  0.32734278863E+02  0.51209155120E+02  0.00000000000E+00 0. -1.
        -12    1    6    6    0    0  0.10265291352E+03  0.58498893492E+02  0.39265862778E+01  0.11821657783E+03  0.00000000000E+00 0.  1.
</event>
<event>
12    1  0.1030140E-001  0.1954457E+03  0.7818608E-02  0.1154076E+00
         21   -1    0    0  503  502  0.00000000000E+00  0.00000000000E+00  0.13455665695E+03  0.13455665695E+03  0.00000000000E+00 0. -1.
         21   -1    0    0  501  503 -0.00000000000E+00 -0.00000000000E+00 -0.52133823446E+03  0.52133823446E+03  0.00000000000E+00 0. -1.
          6    2    1    2  501    0 -0.26800541136E+02  0.86130403427E+02 -0.41552307921E+03  0.45834717529E+03  0.17113149428E+03 0.  0.
         24    2    3    3    0    0 -0.67206977858E+02  0.62998057879E+02 -0.22040299688E+03  0.25769393692E+03  0.96659975793E+02 0.  0.
         -6    2    1    2    0  502  0.26800541136E+02 -0.86130403427E+02  0.28741501699E+02  0.19754771613E+03  0.17338486332E+03 0.  0.
        -24    2    5    5    0    0  0.26242557243E+02 -0.90137335091E+02  0.79500779067E+02  0.14641102591E+03  0.79387679449E+02 0.  0.
          5    1    3    3  501    0  0.40406436721E+02  0.23132345547E+02 -0.19512008233E+03  0.20065323837E+03  0.47000000000E+01 0. -1.
        -13    1    4    4    0    0 -0.55041674695E+02  0.78391586889E+02 -0.11130448533E+03  0.14684520865E+03  0.00000000000E+00 0.  1.
         14    1    4    4    0    0 -0.12165303163E+02 -0.15393529009E+02 -0.10909851155E+03  0.11084872827E+03  0.00000000000E+00 0. -1.
         -5    1    5    5    0  502  0.55798389296E+00  0.40069316643E+01 -0.50759277368E+02  0.51136690217E+02  0.47000000000E+01 0.  1.
         13    1    6    6    0    0 -0.11020363925E+01  0.94903588755E+01  0.30701099951E+02  0.32153365827E+02  0.00000000000E+00 0. -1.
        -14    1    6    6    0    0  0.27344593636E+02 -0.99627693966E+02  0.48799679116E+02  0.11425766008E+03  0.00000000000E+00 0.  1.
</event>
<event>
12    1  0.1030140E-001  0.2181962E+03  0.7818608E-02  0.1135386E+00
         21   -1    0    0  501  502  0.00000000000E+00  0.00000000000E+00  0.81378431140E+02  0.81378431140E+02  0.00000000000E+00 0. -1.
         21   -1    0    0  502  503 -0.00000000000E+00 -0.00000000000E+00 -0.74017655095E+03  0.74017655095E+03  0.00000000000E+00 0. -1.
         -6    2    1    2    0  503 -0.12663581820E+03 -0.41521522076E+02 -0.14051853404E+03  0.25952852392E+03  0.17276842614E+03 0.  0.
        -24    2    3    3    0    0 -0.15529886892E+03 -0.16488535269E+02 -0.12680135131E+03  0.21880418221E+03  0.86064376925E+02 0.  0.
          6    2    1    2  501    0  0.12663581820E+03  0.41521522076E+02 -0.51827958576E+03  0.56202645817E+03  0.17175372898E+03 0.  0.
         24    2    5    5    0    0  0.24778603776E+01  0.22586737477E+02 -0.29304690446E+03  0.30410093542E+03  0.78003783296E+02 0.  0.
          5    1    5    5  501    0  0.12415795782E+03  0.18934784598E+02 -0.22523268130E+03  0.25792552275E+03  0.47000000000E+01 0. -1.
        -13    1    6    6    0    0 -0.20534422114E+02  0.21659490592E+02 -0.39489245824E+02  0.49499460199E+02  0.00000000000E+00 0.  1.
         14    1    6    6    0    0  0.23012282492E+02  0.92724688542E+00 -0.25355765863E+03  0.25460147522E+03  0.00000000000E+00 0. -1.
         -5    1    3    3    0  503  0.28663050724E+02 -0.25032986807E+02 -0.13717182736E+02  0.40724341708E+02  0.47000000000E+01 0.  1.
         13    1    4    4    0    0 -0.51765172264E+02 -0.47167655063E+02 -0.43719201838E+02  0.82557794017E+02  0.00000000000E+00 0. -1.
        -14    1    4    4    0    0 -0.10353369666E+03  0.30679119794E+02 -0.83082149470E+02  0.13624638819E+03  0.00000000000E+00 0.  1.
</event>
<event>
12    1  0.1030140E-001  0.2206548E+03  0.7818608E-02  0.1133480E+00
         21   -1    0    0  501  502  0.00000000000E+00  0.00000000000E+00  0.33107549396E+02  0.33107549396E+02  0.00000000000E+00 0.  1.
         21   -1    0    0  502  503 -0.00000000000E+00 -0.00000000000E+00 -0.21094035906E+04  0.21094035906E+04  0.00000000000E+00 0.  1.
         -6    2    1    2    0  503  0.19846061248E+02 -0.13626218200E+03 -0.16297793022E+04  0.16446486325E+04  0.17241607262E+03 0.  0.
        -24    2    3    3    0    0  0.30933718769E+02 -0.76993223621E+02 -0.14558181508E+04  0.14604739389E+04  0.81809452248E+02 0.  0.
          6    2    1    2  501    0 -0.19846061248E+02  0.13626218200E+03 -0.44651673894E+03  0.49786250743E+03  0.17183896464E+03 0.  0.
         24    2    5    5    0    0 -0.49874526649E+02  0.95681013909E+02 -0.17667091210E+03  0.22329484693E+03  0.83699776875E+02 0.  0.
          5    1    5    5  501    0  0.30028465401E+02  0.40581168090E+02 -0.26984582683E+03  0.27456766051E+03  0.47000000000E+01 0. -1.
        -11    1    6    6    0    0  0.87839121974E+01  0.57605932132E+02 -0.42944511509E+02  0.72386681089E+02  0.00000000000E+00 0.  1.
         12    1    6    6    0    0 -0.58658438847E+02  0.38075081776E+02 -0.13372640060E+03  0.15090816584E+03  0.00000000000E+00 0. -1.
         -5    1    3    3    0  503 -0.11087657520E+02 -0.59268958377E+02 -0.17396115145E+03  0.18417469367E+03  0.47000000000E+01 0.  1.
         13    1    4    4    0    0 -0.10018778380E+02 -0.68628561803E+00 -0.23700820854E+02  0.25740548116E+02  0.00000000000E+00 0. -1.
        -14    1    4    4    0    0  0.40952497149E+02 -0.76306938003E+02 -0.14321173299E+04  0.14347333908E+04  0.00000000000E+00 0.  1.
</event>
<event>
12    1  0.1030140E-001  0.2357640E+03  0.7818608E-02  0.1122667E+00
         21   -1    0    0  501  502  0.00000000000E+00  0.00000000000E+00  0.74186523975E+03  0.74186523975E+03  0.00000000000E+00 0. -1.
         21   -1    0    0  502  503 -0.00000000000E+00 -0.00000000000E+00 -0.11007429570E+03  0.11007429570E+03  0.00000000000E+00 0. -1.
         -6    2    1    2    0  503  0.99674639824E+01 -0.16066005358E+03  0.75113842408E+02  0.24744041435E+03  0.17226046028E+03 0.  0.
        -24    2    3    3    0    0  0.54257148441E+02 -0.10544469072E+03  0.94628280912E+02  0.17386585519E+03  0.84925868226E+02 0.  0.
          6    2    1    2  501    0 -0.99674639824E+01  0.16066005358E+03  0.55667710165E+03  0.60449912110E+03  0.17210110038E+03 0.  0.
         24    2    5    5    0    0  0.41090472344E+02  0.13269049439E+03  0.28811340817E+03  0.32965779131E+03  0.79810583178E+02 0.  0.
          5    1    5    5  501    0 -0.51057936327E+02  0.27969559197E+02  0.26856369348E+03  0.27484132979E+03  0.47000000000E+01 0. -1.
        -11    1    6    6    0    0  0.11927140519E+01 -0.95328808050E+01  0.37876393823E+02  0.39075818510E+02  0.00000000000E+00 0.  1.
         12    1    6    6    0    0  0.39897758292E+02  0.14222337519E+03  0.25023701435E+03  0.29058197280E+03  0.00000000000E+00 0. -1.
         -5    1    3    3    0  503 -0.44289684458E+02 -0.55215362863E+02 -0.19514438504E+02  0.73574559160E+02  0.47000000000E+01 0.  1.
         11    1    4    4    0    0  0.15907652465E+02 -0.85669022015E+02  0.22788387875E+02  0.90064118059E+02  0.00000000000E+00 0. -1.
        -12    1    4    4    0    0  0.38349495975E+02 -0.19775668707E+02  0.71839893037E+02  0.83801737130E+02  0.00000000000E+00 0.  1.
</event>
<event>
12    1  0.1030140E-001  0.4280333E+03  0.7818608E-02  0.1034514E+00
         21   -1    0    0  503  502  0.00000000000E+00  0.00000000000E+00  0.13748522272E+04  0.13748522272E+04  0.00000000000E+00 0.  1.
         21   -1    0    0  501  503 -0.00000000000E+00 -0.00000000000E+00 -0.13982358954E+03  0.13982358954E+03  0.00000000000E+00 0.  1.
          6    2    1    2  501    0 -0.20713695159E+03 -0.33183162646E+03  0.78283618548E+03  0.89202785714E+03  0.17280989435E+03 0.  0.
         24    2    3    3    0    0 -0.15847498024E+03 -0.15927300190E+03  0.42511263666E+03  0.49186202433E+03  0.10356296943E+03 0.  0.
         -6    2    1    2    0  502  0.20713695159E+03  0.33183162646E+03  0.45219245219E+03  0.62264795962E+03  0.17376571228E+03 0.  0.
        -24    2    5    5    0    0  0.12468651749E+03  0.24453392918E+03  0.40008466741E+03  0.49166600182E+03  0.79524499905E+02 0.  0.
          5    1    3    3  501    0 -0.48661971350E+02 -0.17255862456E+03  0.35772354882E+03  0.40016583281E+03  0.47000000000E+01 0. -1.
        -13    1    4    4    0    0 -0.90515228224E+02 -0.48514318617E+02  0.27370282411E+03  0.29233522124E+03  0.00000000000E+00 0.  1.
         14    1    4    4    0    0 -0.67959752013E+02 -0.11075868328E+03  0.15140981255E+03  0.19952680309E+03  0.00000000000E+00 0. -1.
         -5    1    5    5    0  502  0.82450434100E+02  0.87297697279E+02  0.52107784781E+02  0.13098195780E+03  0.47000000000E+01 0.  1.
         13    1    6    6    0    0 -0.90378572399E+01  0.31407830953E+02  0.63702318864E+02  0.71596928267E+02  0.00000000000E+00 0. -1.
        -14    1    6    6    0    0  0.13372437473E+03  0.21312609823E+03  0.33638234855E+03  0.42006907355E+03  0.00000000000E+00 0.  1.
</event>
<event>
12    1  0.1030140E-001  0.2052676E+03  0.7818608E-02  0.1145533E+00
         21   -1    0    0  503  502  0.00000000000E+00  0.00000000000E+00  0.31178124386E+03  0.31178124386E+03  0.00000000000E+00 0.  1.
         21   -1    0    0  501  503 -0.00000000000E+00 -0.00000000000E+00 -0.24771282087E+03  0.24771282087E+03  0.00000000000E+00 0.  1.
          6    2    1    2  501    0  0.10545717107E+03 -0.43036221857E+02 -0.15702387551E+03  0.25780447736E+03  0.16980376834E+03 0.  0.
         24    2    3    3    0    0  0.84571331734E+02 -0.87897755527E+02 -0.75391100292E+02  0.16222845799E+03  0.75867839039E+02 0.  0.
         -6    2    1    2    0  502 -0.10545717107E+03  0.43036221857E+02  0.22109229850E+03  0.30168958737E+03  0.17076730176E+03 0.  0.
        -24    2    5    5    0    0 -0.20864326542E+02 -0.34160743317E+02  0.10031820340E+03  0.13518495433E+03  0.81295469967E+02 0.  0.
          5    1    3    3  501    0  0.20885839332E+02  0.44861533670E+02 -0.81632775223E+02  0.95576019369E+02  0.47000000000E+01 0. -1.
        -11    1    4    4    0    0  0.17280635468E+02 -0.49213922128E+02 -0.65882709115E+02  0.84030719702E+02  0.00000000000E+00 0.  1.
         12    1    4    4    0    0  0.67290696266E+02 -0.38683833399E+02 -0.95083911767E+01  0.78197738287E+02  0.00000000000E+00 0. -1.
         -5    1    5    5    0  502 -0.84592844524E+02  0.77196965173E+02  0.12077409510E+03  0.16650463304E+03  0.47000000000E+01 0.  1.
         11    1    6    6    0    0  0.17474856453E+02 -0.17607195834E+02  0.88316543451E+02  0.91734376329E+02  0.00000000000E+00 0. -1.
        -12    1    6    6    0    0 -0.38339182996E+02 -0.16553547483E+02  0.12001659951E+02  0.43450578001E+02  0.00000000000E+00 0.  1.
</event>
<event>
12    1  0.1030140E-001  0.1735481E+03  0.7818608E-02  0.1174467E+00
         21   -1    0    0  503  502  0.00000000000E+00  0.00000000000E+00  0.23810775895E+03  0.23810775895E+03  0.00000000000E+00 0. -1.
         21   -1    0    0  501  503 -0.00000000000E+00 -0.00000000000E+00 -0.12704372646E+03  0.12704372646E+03  0.00000000000E+00 0. -1.
          6    2    1    2  501    0 -0.21320340221E+02  0.76719287320E+01  0.74311356054E+02  0.18878856476E+03  0.17206257335E+03 0.  0.
         24    2    3    3    0    0 -0.55065677715E+02 -0.29909708925E+02  0.90767706131E+02  0.13545912871E+03  0.78635739481E+02 0.  0.
         -6    2    1    2    0  502  0.21320340221E+02 -0.76719287320E+01  0.36752676439E+02  0.17636292065E+03  0.17099621386E+03 0.  0.
        -24    2    5    5    0    0  0.72715934929E+02  0.42400964721E+00  0.54357541585E+02  0.12123513591E+03  0.80345683605E+02 0.  0.
          5    1    3    3  501    0  0.33745337494E+02  0.37581637657E+02 -0.16456350077E+02  0.53329436050E+02  0.47000000000E+01 0. -1.
        -13    1    4    4    0    0  0.63548564247E+01 -0.36149893709E+02  0.20956015227E+02  0.42265276404E+02  0.00000000000E+00 0.  1.
         14    1    4    4    0    0 -0.61420534140E+02  0.62401847841E+01  0.69811690905E+02  0.93193852304E+02  0.00000000000E+00 0. -1.
         -5    1    5    5    0  502 -0.51395594708E+02 -0.80959383792E+01 -0.17604865146E+02  0.55127784741E+02  0.47000000000E+01 0.  1.
         13    1    6    6    0    0  0.50030852567E+02 -0.25264917834E+02 -0.10810889774E+01  0.56058639255E+02  0.00000000000E+00 0. -1.
        -14    1    6    6    0    0  0.22685082362E+02  0.25688927482E+02  0.55438630563E+02  0.65176496650E+02  0.00000000000E+00 0.  1.
</event>
<event>
12    1  0.1030140E-001  0.2546574E+03  0.7818608E-02  0.1110657E+00
         21   -1    0    0  503  502  0.00000000000E+00  0.00000000000E+00  0.65710460478E+03  0.65710460478E+03  0.00000000000E+00 0. -1.
         21   -1    0    0  501  503 -0.00000000000E+00 -0.00000000000E+00 -0.23548485845E+03  0.23548485845E+03  0.00000000000E+00 0. -1.
          6    2    1    2  501    0  0.11226512473E+03  0.14773689473E+03 -0.13044001738E+03  0.28462535470E+03  0.17195158072E+03 0.  0.
         24    2    3    3    0    0  0.10620224962E+03  0.12485578116E+03 -0.33759809311E+02  0.18497869673E+03  0.78800441669E+02 0.  0.
         -6    2    1    2    0  502 -0.11226512473E+03 -0.14773689473E+03  0.55205976370E+03  0.60796410853E+03  0.17441538426E+03 0.  0.
        -24    2    5    5    0    0 -0.69508035144E+01 -0.12573492399E+02  0.21734892591E+03  0.23191399682E+03  0.79606155197E+02 0.  0.
          5    1    3    3  501    0  0.60628751079E+01  0.22881113568E+02 -0.96680208064E+02  0.99646657967E+02  0.47000000000E+01 0. -1.
        -13    1    4    4    0    0  0.23971278520E+02  0.80620667140E+02 -0.36211036104E+02  0.91572666772E+02  0.00000000000E+00 0.  1.
         14    1    4    4    0    0  0.82230971101E+02  0.44235114019E+02  0.24512267934E+01  0.93406029962E+02  0.00000000000E+00 0. -1.
         -5    1    5    5    0  502 -0.10531432121E+03 -0.13516340233E+03  0.33471083779E+03  0.37605011171E+03  0.47000000000E+01 0.  1.
         13    1    6    6    0    0 -0.28179192875E+02 -0.19237818767E+02  0.37520718213E+02  0.50714543054E+02  0.00000000000E+00 0. -1.
        -14    1    6    6    0    0  0.21228389360E+02  0.66643263680E+01  0.17982820769E+03  0.18119945376E+03  0.00000000000E+00 0.  1.
</event>
<event>
12    1  0.1030140E-001  0.1753216E+03  0.7818608E-02  0.1173024E+00
         21   -1    0    0  501  502  0.00000000000E+00  0.00000000000E+00  0.28667701882E+03  0.28667701882E+03  0.00000000000E+00 0.  1.
         21   -1    0    0  502  503 -0.00000000000E+00 -0.00000000000E+00 -0.10634820042E+03  0.10634820042E+03  0.00000000000E+00 0.  1.
         -6    2    1    2    0  503 -0.16745064644E+02 -0.68232832323E+01  0.10446491878E+03  0.20199385949E+03  0.17193500409E+03 0.  0.
        -24    2    3    3    0    0 -0.75135907025E+02  0.56050883084E+01  0.85244993007E+02  0.13910148762E+03  0.80035576372E+02 0.  0.
          6    2    1    2  501    0  0.16745064644E+02  0.68232832323E+01  0.75863899620E+02  0.19103135975E+03  0.17438662437E+03 0.  0.
         24    2    5    5    0    0  0.58694792926E+02 -0.40450923511E+02  0.43364924873E+02  0.11980704027E+03  0.85975893482E+02 0.  0.
          5    1    5    5  501    0 -0.41949728282E+02  0.47274206743E+02  0.32498974747E+02  0.71224319482E+02  0.47000000000E+01 0. -1.
        -11    1    6    6    0    0  0.20922859606E+02 -0.58248695367E+02  0.47256988087E+02  0.77871043971E+02  0.00000000000E+00 0.  1.
         12    1    6    6    0    0  0.37771933320E+02  0.17797771856E+02 -0.38920632138E+01  0.41935996301E+02  0.00000000000E+00 0. -1.
         -5    1    3    3    0  503  0.58390842381E+02 -0.12428371541E+02  0.19219925771E+02  0.62892371872E+02  0.47000000000E+01 0.  1.
         13    1    4    4    0    0  0.11008969666E+02  0.18964219930E+02  0.10695576168E+02  0.24397426099E+02  0.00000000000E+00 0. -1.
        -14    1    4    4    0    0 -0.86144876691E+02 -0.13359131622E+02  0.74549416839E+02  0.11470406152E+03  0.00000000000E+00 0.  1.
</event>
<event>
12    1  0.1030140E-001  0.1764195E+03  0.7818608E-02  0.1173738E+00
         21   -1    0    0  501  502  0.00000000000E+00  0.00000000000E+00  0.28774566477E+02  0.28774566477E+02  0.00000000000E+00 0. -1.
         21   -1    0    0  502  503 -0.00000000000E+00 -0.00000000000E+00 -0.11761782857E+04  0.11761782857E+04  0.00000000000E+00 0. -1.
         -6    2    1    2    0  503  0.30446826483E+02  0.17895897051E+02 -0.34350711205E+03  0.38192576241E+03  0.16316519111E+03 0.  0.
        -24    2    3    3    0    0 -0.37636947073E+02  0.66590774886E+01 -0.12845490465E+03  0.15602488095E+03  0.79888784257E+02 0.  0.
          6    2    1    2  501    0 -0.30446826483E+02 -0.17895897051E+02 -0.80389660721E+03  0.82302708980E+03  0.17284838180E+03 0.  0.
         24    2    5    5    0    0  0.26873078426E+02 -0.22113276369E+02 -0.68995370797E+03  0.69532261817E+03  0.78906684533E+02 0.  0.
          5    1    5    5  501    0 -0.57319904909E+02  0.42173793181E+01 -0.11394289924E+03  0.12770447163E+03  0.47000000000E+01 0. -1.
        -11    1    6    6    0    0  0.44267848289E+02  0.36217775140E+01 -0.22557316378E+03  0.22990435377E+03  0.00000000000E+00 0.  1.
         12    1    6    6    0    0 -0.17394769864E+02 -0.25735053883E+02 -0.46438054419E+03  0.46541826440E+03  0.00000000000E+00 0. -1.
         -5    1    3    3    0  503  0.68083773556E+02  0.11236819562E+02 -0.21505220741E+03  0.22590088146E+03  0.47000000000E+01 0.  1.
         13    1    4    4    0    0  0.22337349894E+02  0.71464753879E+01 -0.15432275002E+02  0.28074622393E+02  0.00000000000E+00 0. -1.
        -14    1    4    4    0    0 -0.59974296967E+02 -0.48739789935E+00 -0.11302262964E+03  0.12795025856E+03  0.00000000000E+00 0.  1.
</event>
<event>
12    1  0.1030140E-001  0.2993210E+03  0.7818608E-02  0.1085858E+00
         21   -1    0    0  501  502  0.00000000000E+00  0.00000000000E+00  0.55552455156E+02  0.55552455156E+02  0.00000000000E+00 0. -1.
         21   -1    0    0  502  503 -0.00000000000E+00 -0.00000000000E+00 -0.18670471915E+04  0.18670471915E+04  0.00000000000E+00 0.  1.
         -6    2    1    2    0  503  0.16290673624E+03  0.17980424341E+03 -0.12658097617E+04  0.13002130060E+04  0.17149733905E+03 0.  0.
        -24    2    3    3    0    0  0.10159690269E+03  0.13793127137E+03 -0.57321686382E+03  0.60363619489E+03  0.80325068046E+02 0.  0.
          6    2    1    2  501    0 -0.16290673624E+03 -0.17980424341E+03 -0.54568497464E+03  0.62238664073E+03  0.17528510590E+03 0.  0.
         24    2    5    5    0    0 -0.66467209882E+02 -0.44798835413E+02 -0.33997163880E+03  0.35806276936E+03  0.78761703711E+02 0.  0.
          5    1    5    5  501    0 -0.96439526357E+02 -0.13500540800E+03 -0.20571333584E+03  0.26432387137E+03  0.47000000000E+01 0. -1.
        -11    1    6    6    0    0  0.16042933251E+02 -0.45855728376E+01 -0.25536196576E+02  0.30504106627E+02  0.00000000000E+00 0.  1.
         12    1    6    6    0    0 -0.82510143133E+02 -0.40213262575E+02 -0.31443544222E+03  0.32755866273E+03  0.00000000000E+00 0. -1.
         -5    1    3    3    0  503  0.61309833553E+02  0.41872972041E+02 -0.69259289793E+03  0.69657681108E+03  0.47000000000E+01 0.  1.
         11    1    4    4    0    0  0.41331018392E+02  0.25714903890E+02 -0.75135080338E+02  0.89525357641E+02  0.00000000000E+00 0. -1.
        -12    1    4    4    0    0  0.60265884294E+02  0.11221636748E+03 -0.49808178348E+03  0.51411083725E+03  0.00000000000E+00 0.  1.
</event>
<event>
12    1  0.1030140E-001  0.1861217E+03  0.7818608E-02  0.1162396E+00
         21   -1    0    0  503  502  0.00000000000E+00  0.00000000000E+00  0.79755981915E+02  0.79755981915E+02  0.00000000000E+00 0.  1.
         21   -1    0    0  501  503 -0.00000000000E+00 -0.00000000000E+00 -0.43987238521E+03  0.43987238521E+03  0.00000000000E+00 0.  1.
          6    2    1    2  501    0  0.69753788612E+02 -0.80266919940E-01 -0.21730759761E+03  0.28503158928E+03  0.17074781825E+03 0.  0.
         24    2    3    3    0    0  0.60584699509E+02 -0.20886875204E+02 -0.47312519818E+02  0.11345827079E+03  0.80793176127E+02 0.  0.
         -6    2    1    2    0  502 -0.69753788612E+02  0.80266919940E-01 -0.14280880569E+03  0.23459677785E+03  0.17255635522E+03 0.  0.
        -24    2    5    5    0    0 -0.10394309768E+03  0.14099223920E+00 -0.15001286541E+03  0.19934197650E+03  0.80182144990E+02 0.  0.
          5    1    3    3  501    0  0.91690891026E+01  0.20806608284E+02 -0.16999507779E+03  0.17157331849E+03  0.47000000000E+01 0. -1.
        -13    1    4    4    0    0  0.28986487264E+02  0.27170674275E+02 -0.38404924641E+02  0.55257580667E+02  0.00000000000E+00 0.  1.
         14    1    4    4    0    0  0.31598212245E+02 -0.48057549479E+02 -0.89075951776E+01  0.58200690123E+02  0.00000000000E+00 0. -1.
         -5    1    5    5    0  502  0.34189309064E+02 -0.60725319263E-01  0.72040597177E+01  0.35254801350E+02  0.47000000000E+01 0.  1.
         13    1    6    6    0    0 -0.13882138758E+01  0.75100519060E+01  0.78469599377E+01  0.10950013592E+02  0.00000000000E+00 0. -1.
        -14    1    6    6    0    0 -0.10255488380E+03 -0.73690596668E+01 -0.15785982534E+03  0.18839196291E+03  0.00000000000E+00 0.  1.
</event>
<event>
12    1  0.1030140E-001  0.2009710E+03  0.7818608E-02  0.1148925E+00
         21   -1    0    0  501  502  0.00000000000E+00  0.00000000000E+00  0.68376829134E+03  0.68376829134E+03  0.00000000000E+00 0.  1.
         21   -1    0    0  502  503 -0.00000000000E+00 -0.00000000000E+00 -0.64342905177E+02  0.64342905177E+02  0.00000000000E+00 0.  1.
         -6    2    1    2    0  503 -0.38945081253E+02 -0.97145826184E+02  0.20257818040E+03  0.28534673097E+03  0.17155409292E+03 0.  0.
        -24    2    3    3    0    0 -0.66949710747E+02 -0.10239583282E+03  0.20916210063E+03  0.25572815828E+03  0.81736994357E+02 0.  0.
          6    2    1    2  501    0  0.38945081253E+02  0.97145826184E+02  0.41684720576E+03  0.46276446555E+03  0.17156726590E+03 0.  0.
         24    2    5    5    0    0 -0.29940725905E+02  0.76215460049E+02  0.33322824487E+03  0.35232192268E+03  0.79902632044E+02 0.  0.
          5    1    5    5  501    0  0.68885807158E+02  0.20930366135E+02  0.83618960891E+02  0.11044254287E+03  0.47000000000E+01 0. -1.
        -11    1    6    6    0    0  0.24835434113E+02  0.33510446978E+02  0.16776059063E+03  0.17286805550E+03  0.00000000000E+00 0.  1.
         12    1    6    6    0    0 -0.54776160018E+02  0.42705013072E+02  0.16546765424E+03  0.17945386719E+03  0.00000000000E+00 0. -1.
         -5    1    3    3    0  503  0.28004629494E+02  0.52500066331E+01 -0.65839202284E+01  0.29618572692E+02  0.47000000000E+01 0.  1.
         13    1    4    4    0    0 -0.64809416878E+02 -0.49855360639E+02  0.17461368137E+03  0.19281015331E+03  0.00000000000E+00 0. -1.
        -14    1    4    4    0    0 -0.21402938689E+01 -0.52540472178E+02  0.34548419266E+02  0.62918004961E+02  0.00000000000E+00 0.  1.
</event>
<event>
12    1  0.1030140E-001  0.3070619E+03  0.7818608E-02  0.1081903E+00
         21   -1    0    0  501  502  0.00000000000E+00  0.00000000000E+00  0.25374527707E+03  0.25374527707E+03  0.00000000000E+00 0. -1.
         21   -1    0    0  502  503 -0.00000000000E+00 -0.00000000000E+00 -0.42163878203E+03  0.42163878203E+03  0.00000000000E+00 0.  1.
         -6    2    1    2    0  503 -0.25476844941E+03 -0.92544087874E+01 -0.20177167919E+03  0.36645896077E+03  0.16907913090E+03 0.  0.
        -24    2    3    3    0    0 -0.24123844965E+03  0.32271199521E+02 -0.14576159486E+03  0.29527850991E+03  0.81887337042E+02 0.  0.
          6    2    1    2  501    0  0.25476844941E+03  0.92544087874E+01  0.33878174226E+02  0.30892509833E+03  0.17115600717E+03 0.  0.
         24    2    5    5    0    0  0.93850943138E+02 -0.27043233026E+02  0.65176227385E+02  0.14095599177E+03  0.77982786689E+02 0.  0.
          5    1    5    5  501    0  0.16091750628E+03  0.36297641813E+02 -0.31298053159E+02  0.16796910656E+03  0.47000000000E+01 0. -1.
        -13    1    6    6    0    0  0.72984611965E+02 -0.39413102930E+02  0.13726688429E+02  0.84074777677E+02  0.00000000000E+00 0.  1.
         14    1    6    6    0    0  0.20866331174E+02  0.12369869904E+02  0.51449538956E+02  0.56881214095E+02  0.00000000000E+00 0. -1.
         -5    1    3    3    0  503 -0.13529999765E+02 -0.41525608309E+02 -0.56010084326E+02  0.71180450864E+02  0.47000000000E+01 0.  1.
         11    1    4    4    0    0 -0.24114847771E+03  0.26788463643E+02 -0.15251051462E+03  0.28658274050E+03  0.00000000000E+00 0. -1.
        -12    1    4    4    0    0 -0.89971941608E-01  0.54827358780E+01  0.67489197551E+01  0.86957694035E+01  0.00000000000E+00 0.  1.
</event>
<event>
12    1  0.1030140E-001  0.2253484E+03  0.7818608E-02  0.1129977E+00
         21   -1    0    0  503  502  0.00000000000E+00  0.00000000000E+00  0.43447663506E+02  0.43447663506E+02  0.00000000000E+00 0.  1.
         21   -1    0    0  501  503 -0.00000000000E+00 -0.00000000000E+00 -0.16170635877E+04  0.16170635877E+04  0.00000000000E+00 0. -1.
          6    2    1    2  501    0  0.98313314857E+02  0.10845783898E+03 -0.12240779827E+04  0.12446282213E+04  0.17118379209E+03 0.  0.
         24    2    3    3    0    0  0.72939468689E+02  0.28549562026E+01 -0.75628233202E+03  0.76436718627E+03  0.83462044389E+02 0.  0.
         -6    2    1    2    0  502 -0.98313314857E+02 -0.10845783898E+03 -0.34953794149E+03  0.41588302996E+03  0.17132808104E+03 0.  0.
        -24    2    5    5    0    0 -0.19748409578E+02  0.59675249968E+01 -0.10683343097E+03  0.13625259941E+03  0.82010839753E+02 0.  0.
          5    1    3    3  501    0  0.25373846168E+02  0.10560288278E+03 -0.46779565070E+03  0.48026103499E+03  0.47000000000E+01 0. -1.
        -11    1    4    4    0    0  0.39272339478E+02  0.23434729926E+02 -0.15035453539E+03  0.15715594016E+03  0.00000000000E+00 0.  1.
         12    1    4    4    0    0  0.33667129212E+02 -0.20579773724E+02 -0.60592779663E+03  0.60721124611E+03  0.00000000000E+00 0. -1.
         -5    1    5    5    0  502 -0.78564905279E+02 -0.11442536398E+03 -0.24270451053E+03  0.27963043056E+03  0.47000000000E+01 0.  1.
         11    1    6    6    0    0 -0.34243064520E+02  0.35811090171E+02 -0.77400629573E+02  0.91901464109E+02  0.00000000000E+00 0. -1.
        -12    1    6    6    0    0  0.14494654941E+02 -0.29843565175E+02 -0.29432801394E+02  0.44351135297E+02  0.00000000000E+00 0.  1.
</event>
<event>
12    1  0.1030140E-001  0.3634496E+03  0.7818608E-02  0.1057564E+00
         21   -1    0    0  503  502  0.00000000000E+00  0.00000000000E+00  0.35570158514E+03  0.35570158514E+03  0.00000000000E+00 0. -1.
         21   -1    0    0  501  503 -0.00000000000E+00 -0.00000000000E+00 -0.64442934831E+03  0.64442934831E+03  0.00000000000E+00 0.  1.
          6    2    1    2  501    0 -0.31025845358E+03 -0.59905317124E+02 -0.47156406777E+03  0.59328361882E+03  0.17252196182E+03 0.  0.
         24    2    3    3    0    0 -0.90606733750E+02  0.78136390585E+01 -0.22988603910E+03  0.25972238817E+03  0.79608383902E+02 0.  0.
         -6    2    1    2    0  502  0.31025845358E+03  0.59905317124E+02  0.18283630460E+03  0.40684731464E+03  0.17957357297E+03 0.  0.
        -24    2    5    5    0    0  0.10647792549E+03  0.36551513006E+02  0.14142898943E+03  0.19754237073E+03  0.79669739930E+02 0.  0.
          5    1    3    3  501    0 -0.21965171983E+03 -0.67718956183E+02 -0.24167802866E+03  0.33356123064E+03  0.47000000000E+01 0. -1.
        -11    1    4    4    0    0 -0.84907848482E+02  0.31963047647E+02 -0.14290486709E+03  0.16927132121E+03  0.00000000000E+00 0.  1.
         12    1    4    4    0    0 -0.56988852685E+01 -0.24149408589E+02 -0.86981172018E+02  0.90451066960E+02  0.00000000000E+00 0. -1.
         -5    1    5    5    0  502  0.20378052809E+03  0.23353804118E+02  0.41407315168E+02  0.20930494391E+03  0.47000000000E+01 0.  1.
         13    1    6    6    0    0  0.11335564716E+03  0.26458577824E+02  0.97171881694E+02  0.15163091266E+03  0.00000000000E+00 0. -1.
        -14    1    6    6    0    0 -0.68777216703E+01  0.10092935182E+02  0.44257107739E+02  0.45911458062E+02  0.00000000000E+00 0.  1.
</event>
<event>
12    1  0.1030140E-001  0.1779628E+03  0.7818608E-02  0.1170926E+00
         21   -1    0    0  501  502  0.00000000000E+00  0.00000000000E+00  0.44762316043E+03  0.44762316043E+03  0.00000000000E+00 0. -1.
         21   -1    0    0  502  503 -0.00000000000E+00 -0.00000000000E+00 -0.69355770378E+02  0.69355770378E+02  0.00000000000E+00 0. -1.
         -6    2    1    2    0  503  0.17708008482E+02 -0.42672527470E+02  0.20647046322E+03  0.26962299800E+03  0.16712866511E+03 0.  0.
        -24    2    3    3    0    0  0.72353254638E+02 -0.35723499564E+02  0.16636803550E+03  0.20132448684E+03  0.79637076099E+02 0.  0.
          6    2    1    2  501    0 -0.17708008482E+02  0.42672527470E+02  0.17179692683E+03  0.24735593281E+03  0.17186115112E+03 0.  0.
         24    2    5    5    0    0  0.30972387644E+01 -0.10946260526E+02  0.16359119711E+02  0.81552330254E+02  0.79080644059E+02 0.  0.
          5    1    5    5  501    0 -0.20805247247E+02  0.53618787996E+02  0.15543780712E+03  0.16580360256E+03  0.47000000000E+01 0. -1.
        -11    1    6    6    0    0 -0.31957422548E+02 -0.23763537686E+02  0.19019895351E+02  0.44133196105E+02  0.00000000000E+00 0.  1.
         12    1    6    6    0    0  0.35054661312E+02  0.12817277160E+02 -0.26607756403E+01  0.37419134150E+02  0.00000000000E+00 0. -1.
         -5    1    3    3    0  503 -0.54645246155E+02 -0.69490279061E+01  0.40102427723E+02  0.68298511152E+02  0.47000000000E+01 0.  1.
         13    1    4    4    0    0  0.70781604817E+02 -0.29825249192E+02  0.67457283761E+02  0.10222556531E+03  0.00000000000E+00 0. -1.
        -14    1    4    4    0    0  0.15716498206E+01 -0.58982503715E+01  0.98910751737E+02  0.99098921537E+02  0.00000000000E+00 0.  1.
</event>
<event>
12    1  0.1030140E-001  0.1818364E+03  0.7818608E-02  0.1171074E+00
         21   -1    0    0  503  502  0.00000000000E+00  0.00000000000E+00  0.38059863003E+03  0.38059863003E+03  0.00000000000E+00 0. -1.
         21   -1    0    0  501  503 -0.00000000000E+00 -0.00000000000E+00 -0.93359551314E+02  0.93359551314E+02  0.00000000000E+00 0. -1.
          6    2    1    2  501    0 -0.17899851675E+02  0.24871513705E+01  0.24756063864E+03  0.30716563630E+03  0.18093608735E+03 0.  0.
         24    2    3    3    0    0 -0.72078396424E+02 -0.22804587279E+02  0.10601106061E+03  0.15343418280E+03  0.81168707307E+02 0.  0.
         -6    2    1    2    0  502  0.17899851675E+02 -0.24871513705E+01  0.39678440076E+02  0.16679254505E+03  0.16099311745E+03 0.  0.
        -24    2    5    5    0    0 -0.44776887122E+02 -0.34363588126E+00 -0.76718140973E-01  0.92391396875E+02  0.80815076718E+02 0.  0.
          5    1    3    3  501    0  0.54178544750E+02  0.25291738650E+02  0.14154957803E+03  0.15373145350E+03  0.47000000000E+01 0. -1.
        -11    1    4    4    0    0 -0.48217217363E+02  0.90571256102E+01  0.10797486823E+02  0.50234622486E+02  0.00000000000E+00 0.  1.
         12    1    4    4    0    0 -0.23861179061E+02 -0.31861712889E+02  0.95213573789E+02  0.10319956031E+03  0.00000000000E+00 0. -1.
         -5    1    5    5    0  502  0.62676738797E+02 -0.21435154893E+01  0.39755158217E+02  0.74401148175E+02  0.47000000000E+01 0.  1.
         11    1    6    6    0    0  0.15643829350E+02  0.96743501536E+01 -0.20770608228E+02  0.27744199642E+02  0.00000000000E+00 0. -1.
        -12    1    6    6    0    0 -0.60420716472E+02 -0.10017986035E+02  0.20693890087E+02  0.64647197233E+02  0.00000000000E+00 0.  1.
</event>
<event>
12    1  0.1030140E-001  0.1793841E+03  0.7818608E-02  0.1170207E+00
         21   -1    0    0  503  502  0.00000000000E+00  0.00000000000E+00  0.75893987652E+03  0.75893987652E+03  0.00000000000E+00 0.  1.
         21   -1    0    0  501  503 -0.00000000000E+00 -0.00000000000E+00 -0.31946718813E+03  0.31946718813E+03  0.00000000000E+00 0. -1.
          6    2    1    2  501    0  0.64687864425E+01 -0.49891049355E+02 -0.28451673875E+03  0.33252547925E+03  0.16459786669E+03 0.  0.
         24    2    3    3    0    0 -0.60752108127E+01 -0.15334550292E+01 -0.55808051295E+02  0.98376888578E+02  0.80772606409E+02 0.  0.
         -6    2    1    2    0  502 -0.64687864425E+01  0.49891049355E+02  0.72398942714E+03  0.74588158540E+03  0.17218503662E+03 0.  0.
        -24    2    5    5    0    0 -0.19927055501E+02 -0.28700625916E+02  0.24385602403E+03  0.25914967644E+03  0.80448622568E+02 0.  0.
          5    1    3    3  501    0  0.12543997255E+02 -0.48357594326E+02 -0.22870868745E+03  0.23414859067E+03  0.47000000000E+01 0. -1.
        -13    1    4    4    0    0 -0.31393532337E+02  0.27951088414E+02 -0.26337501927E+02  0.49603238038E+02  0.00000000000E+00 0.  1.
         14    1    4    4    0    0  0.25318321524E+02 -0.29484543444E+02 -0.29470549368E+02  0.48773650539E+02  0.00000000000E+00 0. -1.
         -5    1    5    5    0  502  0.13458269058E+02  0.78591675272E+02  0.48013340311E+03  0.48673190897E+03  0.47000000000E+01 0.  1.
         13    1    6    6    0    0  0.15641330478E+02  0.40023719188E+00  0.57818886983E+01  0.16680576904E+02  0.00000000000E+00 0. -1.
        -14    1    6    6    0    0 -0.35568385979E+02 -0.29100863108E+02  0.23807413533E+03  0.24246909953E+03  0.00000000000E+00 0.  1.
</event>
<event>
12    1  0.1030140E-001  0.1977747E+03  0.7818608E-02  0.1152127E+00
         21   -1    0    0  503  502  0.00000000000E+00  0.00000000000E+00  0.90754053079E+02  0.90754053079E+02  0.00000000000E+00 0. -1.
         21   -1    0    0  501  503 -0.00000000000E+00 -0.00000000000E+00 -0.43772769461E+03  0.43772769461E+03  0.00000000000E+00 0.  1.
          6    2    1    2  501    0 -0.32669867054E+01 -0.94730052224E+02 -0.13120680065E+03  0.23733954226E+03  0.17358104098E+03 0.  0.
         24    2    3    3    0    0  0.10328155143E+02 -0.11879616291E+03 -0.41703257961E+02  0.14354732660E+03  0.68172385452E+02 0.  0.
         -6    2    1    2    0  502  0.32669867054E+01  0.94730052224E+02 -0.21576684088E+03  0.29114220542E+03  0.17095027979E+03 0.  0.
        -24    2    5    5    0    0  0.90707042488E+01  0.26886998343E+02 -0.27016664676E+02  0.90430765505E+02  0.81502360850E+02 0.  0.
          5    1    3    3  501    0 -0.13595141848E+02  0.24066110687E+02 -0.89503542685E+02  0.93792215662E+02  0.47000000000E+01 0. -1.
        -11    1    4    4    0    0 -0.26845474374E+02 -0.35087443832E+02 -0.23941350580E+02  0.50249343046E+02  0.00000000000E+00 0.  1.
         12    1    4    4    0    0  0.37173629516E+02 -0.83708719078E+02 -0.17761907381E+02  0.93297983553E+02  0.00000000000E+00 0. -1.
         -5    1    5    5    0  502 -0.58037175433E+01  0.67843053880E+02 -0.18875017621E+03  0.20071143992E+03  0.47000000000E+01 0.  1.
         13    1    6    6    0    0 -0.21307033173E+02 -0.50826657589E+01  0.17298122430E+02  0.27911434816E+02  0.00000000000E+00 0. -1.
        -14    1    6    6    0    0  0.30377737422E+02  0.31969664102E+02 -0.44314787106E+02  0.62519330690E+02  0.00000000000E+00 0.  1.
</event>
<event>
12    1  0.1030140E-001  0.2357858E+03  0.7818608E-02  0.1123044E+00
         21   -1    0    0  503  502  0.00000000000E+00  0.00000000000E+00  0.10272995297E+04  0.10272995297E+04  0.00000000000E+00 0.  1.
         21   -1    0    0  501  503 -0.00000000000E+00 -0.00000000000E+00 -0.79706500407E+02  0.79706500407E+02  0.00000000000E+00 0. -1.
          6    2    1    2  501    0  0.30129912413E+02 -0.15446949034E+03  0.15846122591E+03  0.28408609826E+03  0.17557424650E+03 0.  0.
         24    2    3    3    0    0 -0.17751473830E+02 -0.16221077013E+03  0.99063558322E+02  0.20725688847E+03  0.80711712048E+02 0.  0.
         -6    2    1    2    0  502 -0.30129912413E+02  0.15446949034E+03  0.78913180334E+03  0.82291993182E+03  0.17233564943E+03 0.  0.
        -24    2    5    5    0    0 -0.45022614859E+02  0.17989257726E+03  0.65162626119E+03  0.68221460122E+03  0.80072483723E+02 0.  0.
          5    1    3    3  501    0  0.47881386243E+02  0.77412797827E+01  0.59397667591E+02  0.76829209787E+02  0.47000000000E+01 0. -1.
        -13    1    4    4    0    0  0.13400576938E+02 -0.11139897205E+03  0.95850853213E+02  0.14756928033E+03  0.00000000000E+00 0.  1.
         14    1    4    4    0    0 -0.31152050768E+02 -0.50811798074E+02  0.32127051087E+01  0.59687608134E+02  0.00000000000E+00 0. -1.
         -5    1    5    5    0  502  0.14892702445E+02 -0.25423086912E+02  0.13750554215E+03  0.14070533059E+03  0.47000000000E+01 0.  1.
         11    1    6    6    0    0 -0.37393118361E+02  0.10404427231E+03  0.24909280342E+03  0.27252647691E+03  0.00000000000E+00 0. -1.
        -12    1    6    6    0    0 -0.76294964982E+01  0.75848304949E+02  0.40253345777E+03  0.40968812431E+03  0.00000000000E+00 0.  1.
</event>
<event>
12    1  0.1030140E-001  0.2008121E+03  0.7818608E-02  0.1149166E+00
         21   -1    0    0  501  502  0.00000000000E+00  0.00000000000E+00  0.87327786462E+02  0.87327786462E+02  0.00000000000E+00 0.  1.
         21   -1    0    0  502  503 -0.00000000000E+00 -0.00000000000E+00 -0.47054437980E+03  0.47054437980E+03  0.00000000000E+00 0.  1.
         -6    2    1    2    0  503 -0.10133069335E+03  0.18842892183E+02 -0.23197882831E+03  0.30647932474E+03  0.17173361846E+03 0.  0.
        -24    2    3    3    0    0 -0.10204163610E+03  0.62171045947E+02 -0.12246010865E+03  0.18860534838E+03  0.79358457487E+02 0.  0.
          6    2    1    2  501    0  0.10133069335E+03 -0.18842892183E+02 -0.15123776503E+03  0.25139284152E+03  0.17234423459E+03 0.  0.
         24    2    5    5    0    0  0.11467769392E+03  0.17435523525E+02 -0.58173861242E+02  0.15051050383E+03  0.76251181415E+02 0.  0.
          5    1    5    5  501    0 -0.13347000569E+02 -0.36278415708E+02 -0.93063903785E+02  0.10088233769E+03  0.47000000000E+01 0. -1.
        -11    1    6    6    0    0  0.61693337224E+02 -0.29124325468E+02 -0.30746921154E+02  0.74830925107E+02  0.00000000000E+00 0.  1.
         12    1    6    6    0    0  0.52984356697E+02  0.46559848994E+02 -0.27426940088E+02  0.75679578722E+02  0.00000000000E+00 0. -1.
         -5    1    3    3    0  503  0.71094274272E+00 -0.43328153764E+02 -0.10951871966E+03  0.11787397636E+03  0.47000000000E+01 0.  1.
         11    1    4    4    0    0 -0.56876017880E+01  0.33682917289E+02 -0.58142209612E+01  0.34651015809E+02  0.00000000000E+00 0. -1.
        -12    1    4    4    0    0 -0.96354034307E+02  0.28488128658E+02 -0.11664588769E+03  0.15395433257E+03  0.00000000000E+00 0.  1.
</event>
<event>
12    1  0.1030140E-001  0.2155166E+03  0.7818608E-02  0.1137307E+00
         21   -1    0    0  501  502  0.00000000000E+00  0.00000000000E+00  0.12085138368E+04  0.12085138368E+04  0.00000000000E+00 0.  1.
         21   -1    0    0  502  503 -0.00000000000E+00 -0.00000000000E+00 -0.29289502067E+03  0.29289502067E+03  0.00000000000E+00 0.  1.
         -6    2    1    2    0  503  0.12257494614E+03  0.38522894939E+02 -0.24193016714E+03  0.32400250564E+03  0.17302828391E+03 0.  0.
        -24    2    3    3    0    0  0.23403324150E+01  0.54775296516E+02 -0.10042678530E+03  0.13754661282E+03  0.76339512890E+02 0.  0.
          6    2    1    2  501    0 -0.12257494614E+03 -0.38522894939E+02  0.11575489833E+04  0.11774063519E+04  0.17279304912E+03 0.  0.
         24    2    5    5    0    0 -0.13259407061E+03  0.19956427256E+02  0.78226064980E+03  0.79742788243E+03  0.77330827568E+02 0.  0.
          5    1    5    5  501    0  0.10019124469E+02 -0.58479322195E+02  0.37528833350E+03  0.37997846944E+03  0.47000000000E+01 0. -1.
        -11    1    6    6    0    0 -0.68806783922E+01  0.76114231317E+01  0.25651961959E+03  0.25672474118E+03  0.00000000000E+00 0.  1.
         12    1    6    6    0    0 -0.12571339222E+03  0.12345004124E+02  0.52574103021E+03  0.54070314125E+03  0.00000000000E+00 0. -1.
         -5    1    3    3    0  503  0.12023461372E+03 -0.16252401577E+02 -0.14150338184E+03  0.18645589282E+03  0.47000000000E+01 0.  1.
         13    1    4    4    0    0  0.25994629871E+02  0.46470902649E+02 -0.26484633316E+02  0.59470172162E+02  0.00000000000E+00 0. -1.
        -14    1    4    4    0    0 -0.23654297456E+02  0.83043938675E+01 -0.73942151986E+02  0.78076440659E+02  0.00000000000E+00 0.  1.
</event>
<event>
12    1  0.1030140E-001  0.2422429E+03  0.7818608E-02  0.1119006E+00
         21   -1    0    0  501  502  0.00000000000E+00  0.00000000000E+00  0.33044084722E+03  0.33044084722E+03  0.00000000000E+00 0.  1.
         21   -1    0    0  502  503 -0.00000000000E+00 -0.00000000000E+00 -0.19048267960E+03  0.19048267960E+03  0.00000000000E+00 0.  1.
         -6    2    1    2    0  503  0.93072288028E+02 -0.14380817263E+03  0.14594551968E+03  0.28281038158E+03  0.17128448820E+03 0.  0.
        -24    2    3    3    0    0  0.90669765910E+02 -0.17055780009E+03  0.10632632620E+03  0.23471583746E+03  0.80469044305E+02 0.  0.
          6    2    1    2  501    0 -0.93072288028E+02  0.14380817263E+03 -0.59873520619E+01  0.23811314525E+03  0.16528393824E+03 0.  0.
         24    2    5    5    0    0 -0.57823425329E+02  0.10230968619E+03  0.61964235137E+02  0.15091156899E+03  0.71581525654E+02 0.  0.
          5    1    5    5  501    0 -0.35248862699E+02  0.41498486437E+02 -0.67951587199E+02  0.87201576253E+02  0.47000000000E+01 0. -1.
        -13    1    6    6    0    0 -0.16880750894E+02  0.45227805839E+02 -0.11121742294E+02  0.49539956837E+02  0.00000000000E+00 0.  1.
         14    1    6    6    0    0 -0.40942674434E+02  0.57081880352E+02  0.73085977431E+02  0.10137161216E+03  0.00000000000E+00 0. -1.
         -5    1    3    3    0  503  0.24025221177E+01  0.26749627457E+02  0.39619193486E+02  0.48094544119E+02  0.47000000000E+01 0.  1.
         13    1    4    4    0    0  0.50565365422E+02 -0.21876625507E+02  0.32121687938E+02  0.63774961856E+02  0.00000000000E+00 0. -1.
        -14    1    4    4    0    0  0.40104400488E+02 -0.14868117458E+03  0.74204638258E+02  0.17094087560E+03  0.00000000000E+00 0.  1.
</event>
<event>
12    1  0.1030140E-001  0.2086115E+03  0.7818608E-02  0.1143204E+00
         21   -1    0    0  501  502  0.00000000000E+00  0.00000000000E+00  0.40048009676E+03  0.40048009676E+03  0.00000000000E+00 0. -1.
         21   -1    0    0  502  503 -0.00000000000E+00 -0.00000000000E+00 -0.12918305663E+03  0.12918305663E+03  0.00000000000E+00 0.  1.
         -6    2    1    2    0  503 -0.29251966191E+02  0.11405406862E+03  0.27344892657E+02  0.21039601300E+03  0.17220549073E+03 0.  0.
        -24    2    3    3    0    0 -0.45735652497E+02  0.25734274397E+02  0.62359974501E+02  0.11385460260E+03  0.79499064933E+02 0.  0.
          6    2    1    2  501    0  0.29251966191E+02 -0.11405406862E+03  0.24395214748E+03  0.31926714038E+03  0.16898179954E+03 0.  0.
         24    2    5    5    0    0 -0.27409049449E+02 -0.61704783694E+02  0.66530438267E+02  0.12574331440E+03  0.82621701611E+02 0.  0.
          5    1    5    5  501    0  0.56661015640E+02 -0.52349284928E+02  0.17742170921E+03  0.19352382599E+03  0.47000000000E+01 0. -1.
        -13    1    6    6    0    0 -0.31151398411E+02 -0.80392871826E+02  0.61879562618E+02  0.10612494397E+03  0.00000000000E+00 0.  1.
         14    1    6    6    0    0  0.37423489622E+01  0.18688088132E+02  0.46508756496E+01  0.19618370424E+02  0.00000000000E+00 0. -1.
         -5    1    3    3    0  503  0.16483686306E+02  0.88319794225E+02 -0.35015081844E+02  0.96541410403E+02  0.47000000000E+01 0.  1.
         11    1    4    4    0    0  0.64280859069E+01 -0.21491105980E+02  0.27005319388E+02  0.35106626154E+02  0.00000000000E+00 0. -1.
        -12    1    4    4    0    0 -0.52163738404E+02  0.47225380377E+02  0.35354655113E+02  0.78747976445E+02  0.00000000000E+00 0.  1.
</event>
<event>
12    1  0.1030140E-001  0.1767788E+03  0.7818608E-02  0.1171639E+00
         21   -1    0    0  501  502  0.00000000000E+00  0.00000000000E+00  0.34617936275E+03  0.34617936275E+03  0.00000000000E+00 0. -1.
         21   -1    0    0  502  503 -0.00000000000E+00 -0.00000000000E+00 -0.61458094728E+03  0.61458094728E+03  0.00000000000E+00 0. -1.
         -6    2    1    2    0  503  0.10083385185E+02  0.22850084926E+02 -0.57833392428E+03  0.60395672898E+03  0.17224924228E+03 0.  0.
        -24    2    3    3    0    0  0.37343185350E+02 -0.15443460943E+01 -0.55101499673E+03  0.55805902999E+03  0.80096540713E+02 0.  0.
          6    2    1    2  501    0 -0.10083385185E+02 -0.22850084926E+02  0.30993233975E+03  0.35680358105E+03  0.17500554046E+03 0.  0.
         24    2    5    5    0    0 -0.39848179203E+02 -0.61049134522E+02  0.12270227550E+03  0.16335514526E+03  0.79461820130E+02 0.  0.
          5    1    5    5  501    0  0.29764794018E+02  0.38199049596E+02  0.18723006425E+03  0.19344843579E+03  0.47000000000E+01 0. -1.
        -11    1    6    6    0    0 -0.62408320814E+02 -0.52821813733E+02  0.10700475689E+03  0.13466610750E+03  0.00000000000E+00 0.  1.
         12    1    6    6    0    0  0.22560141611E+02 -0.82273207890E+01  0.15697518610E+02  0.28689037756E+02  0.00000000000E+00 0. -1.
         -5    1    3    3    0  503 -0.27259800166E+02  0.24394431020E+02 -0.27318927551E+02  0.45897698988E+02  0.47000000000E+01 0.  1.
         11    1    4    4    0    0 -0.17320586578E+02  0.11757665155E+02 -0.54757452705E+02  0.58622726277E+02  0.00000000000E+00 0. -1.
        -12    1    4    4    0    0  0.54663771929E+02 -0.13302011250E+02 -0.49625754403E+03  0.49943630371E+03  0.00000000000E+00 0.  1.
</event>
<event>
12    1  0.1030140E-001  0.2119775E+03  0.7818608E-02  0.1140133E+00
         21   -1    0    0  501  502  0.00000000000E+00  0.00000000000E+00  0.65070694019E+02  0.65070694019E+02  0.00000000000E+00 0.  1.
         21   -1    0    0  502  503 -0.00000000000E+00 -0.00000000000E+00 -0.71735392908E+03  0.71735392908E+03  0.00000000000E+00 0.  1.
         -6    2    1    2    0  503 -0.71017404791E+02 -0.10173596978E+03 -0.40508367151E+03  0.45719496222E+03  0.17187429482E+03 0.  0.
        -24    2    3    3    0    0 -0.84300399015E+02 -0.24776275031E+02 -0.32157636554E+03  0.34276248124E+03  0.79714105356E+02 0.  0.
          6    2    1    2  501    0  0.71017404791E+02  0.10173596978E+03 -0.24719956354E+03  0.32522966088E+03  0.17109362574E+03 0.  0.
         24    2    5    5    0    0  0.80148647236E+02  0.74189173055E+02 -0.26002049149E+03  0.29315674720E+03  0.80014894746E+02 0.  0.
          5    1    5    5  501    0 -0.91312424451E+01  0.27546796728E+02  0.12820927945E+02  0.32072913680E+02  0.47000000000E+01 0. -1.
        -11    1    6    6    0    0  0.79958857280E+02  0.83942511087E+02 -0.19084693686E+03  0.22329871772E+03  0.00000000000E+00 0.  1.
         12    1    6    6    0    0  0.18978995630E+00 -0.97533380323E+01 -0.69173554628E+02  0.69858029480E+02  0.00000000000E+00 0. -1.
         -5    1    3    3    0  503  0.13282994224E+02 -0.76959694752E+02 -0.83507305974E+02  0.11443248098E+03  0.47000000000E+01 0.  1.
         13    1    4    4    0    0 -0.50482810687E+02 -0.17658780995E+02 -0.29322504407E+03  0.29806253235E+03  0.00000000000E+00 0. -1.
        -14    1    4    4    0    0 -0.33817588327E+02 -0.71174940366E+01 -0.28351321473E+02  0.44699948892E+02  0.00000000000E+00 0.  1.
</event>
<event>
12    1  0.1030140E-001  0.1770760E+03  0.7818608E-02  0.1171387E+00
         21   -1    0    0  503  502  0.00000000000E+00  0.00000000000E+00  0.16017033431E+03  0.16017033431E+03  0.00000000000E+00 0.  1.
         21   -1    0    0  501  503 -0.00000000000E+00 -0.00000000000E+00 -0.23161729572E+03  0.23161729572E+03  0.00000000000E+00 0.  1.
          6    2    1    2  501    0 -0.40501449948E+02  0.18912743938E+02  0.44949349924E+02  0.17988200241E+03  0.16834200724E+03 0.  0.
         24    2    3    3    0    0 -0.18013519891E+01  0.55348405224E+02 -0.17499826897E+02  0.97740388831E+02  0.78614558687E+02 0.  0.
         -6    2    1    2    0  502  0.40501449948E+02 -0.18912743938E+02 -0.11639631133E+03  0.21190562762E+03  0.17134128047E+03 0.  0.
        -24    2    5    5    0    0  0.34864553678E+02  0.51628393166E+02 -0.42954554454E+02  0.10980955386E+03  0.79573967393E+02 0.  0.
          5    1    3    3  501    0 -0.38700097959E+02 -0.36435661287E+02  0.62449176821E+02  0.82141613577E+02  0.47000000000E+01 0. -1.
        -13    1    4    4    0    0 -0.41545103900E+01  0.28058626079E+02  0.31013595314E+02  0.42028437376E+02  0.00000000000E+00 0.  1.
         14    1    4    4    0    0  0.23531584009E+01  0.27289779146E+02 -0.48513422211E+02  0.55711951455E+02  0.00000000000E+00 0. -1.
         -5    1    5    5    0  502  0.56368962701E+01 -0.70541137104E+02 -0.73441756880E+02  0.10209607376E+03  0.47000000000E+01 0.  1.
         11    1    6    6    0    0  0.25813647491E+00  0.45165017894E+02  0.99627869968E+01  0.46251514576E+02  0.00000000000E+00 0. -1.
        -12    1    6    6    0    0  0.34606417203E+02  0.64633752720E+01 -0.52917341451E+02  0.63558039285E+02  0.00000000000E+00 0.  1.
</event>
<event>
12    1  0.1030140E-001  0.2021892E+03  0.7818608E-02  0.1148179E+00
         21   -1    0    0  503  502  0.00000000000E+00  0.00000000000E+00  0.62704356759E+02  0.62704356759E+02  0.00000000000E+00 0. -1.
         21   -1    0    0  501  503 -0.00000000000E+00 -0.00000000000E+00 -0.15955583790E+04  0.15955583790E+04  0.00000000000E+00 0. -1.
          6    2    1    2  501    0 -0.76872905182E+02 -0.70807955383E+02 -0.14044574665E+04  0.14187503984E+04  0.17154797520E+03 0.  0.
         24    2    3    3    0    0 -0.53321159864E+02 -0.83832780309E+02 -0.61936142994E+03  0.63317913663E+03  0.86233155019E+02 0.  0.
         -6    2    1    2    0  502  0.76872905182E+02  0.70807955383E+02 -0.12839655573E+03  0.23951233729E+03  0.17308169775E+03 0.  0.
        -24    2    5    5    0    0  0.51459314865E+02  0.11934328770E+03 -0.70164319349E+02  0.15942106181E+03  0.60009681155E+02 0.  0.
          5    1    3    3  501    0 -0.23551745319E+02  0.13024824926E+02 -0.78509603653E+03  0.78557126179E+03  0.47000000000E+01 0. -1.
        -11    1    4    4    0    0 -0.50157110389E+01 -0.12981813902E+02 -0.35469062063E+03  0.35496354913E+03  0.00000000000E+00 0.  1.
         12    1    4    4    0    0 -0.48305448825E+02 -0.70850966407E+02 -0.26467080931E+03  0.27821558750E+03  0.00000000000E+00 0. -1.
         -5    1    5    5    0  502  0.25413590317E+02 -0.48535332316E+02 -0.58232236378E+02  0.80091275489E+02  0.47000000000E+01 0.  1.
         13    1    6    6    0    0 -0.37350706310E+01  0.32315078036E+02 -0.40963436987E+02  0.52308872965E+02  0.00000000000E+00 0. -1.
        -14    1    6    6    0    0  0.55194385496E+02  0.87028209663E+02 -0.29200882362E+02  0.10711218884E+03  0.00000000000E+00 0.  1.
</event>
<event>
12    1  0.1030140E-001  0.1884775E+03  0.7818608E-02  0.1160304E+00
         21   -1    0    0  503  502  0.00000000000E+00  0.00000000000E+00  0.53245789905E+03  0.53245789905E+03  0.00000000000E+00 0.  1.
         21   -1    0    0  501  503 -0.00000000000E+00 -0.00000000000E+00 -0.84985119672E+02  0.84985119672E+02  0.00000000000E+00 0.  1.
          6    2    1    2  501    0 -0.70610200948E+02  0.23033627793E+02  0.78774255959E+02  0.20427714147E+03  0.17322649520E+03 0.  0.
         24    2    3    3    0    0  0.16524440070E+02 -0.23139559513E+02  0.61813378769E+02  0.10410643594E+03  0.78795684372E+02 0.  0.
         -6    2    1    2    0  502  0.70610200948E+02 -0.23033627793E+02  0.36869852342E+03  0.41316587725E+03  0.17102950759E+03 0.  0.
        -24    2    5    5    0    0  0.45969435314E+02  0.53094968832E+02  0.23955728163E+03  0.26117153234E+03  0.76750331745E+02 0.  0.
          5    1    3    3  501    0 -0.87134641017E+02  0.46173187306E+02  0.16960877190E+02  0.10017070553E+03  0.47000000000E+01 0. -1.
        -13    1    4    4    0    0 -0.30157453058E+02  0.28424589908E+01  0.20603441482E+02  0.36634046309E+02  0.00000000000E+00 0.  1.
         14    1    4    4    0    0  0.46681893128E+02 -0.25982018504E+02  0.41209937287E+02  0.67472389633E+02  0.00000000000E+00 0. -1.
         -5    1    5    5    0  502  0.24640765633E+02 -0.76128596625E+02  0.12914124179E+03  0.15199434491E+03  0.47000000000E+01 0.  1.
         13    1    6    6    0    0 -0.82188346980E+01  0.32449442489E+02  0.15543955181E+03  0.15900304975E+03  0.00000000000E+00 0. -1.
        -14    1    6    6    0    0  0.54188270012E+02  0.20645526343E+02  0.84117729820E+02  0.10216848259E+03  0.00000000000E+00 0.  1.
</event>
<event>
12    1  0.1030140E-001  0.1945750E+03  0.7818608E-02  0.1154652E+00
         21   -1    0    0  501  502  0.00000000000E+00  0.00000000000E+00  0.22165859092E+03  0.22165859092E+03  0.00000000000E+00 0.  1.
         21   -1    0    0  502  503 -0.00000000000E+00 -0.00000000000E+00 -0.19048912129E+03  0.19048912129E+03  0.00000000000E+00 0.  1.
         -6    2    1    2    0  503 -0.87402219694E+02 -0.19367807991E+02 -0.52311188094E+02  0.20148422412E+03  0.17275755317E+03 0.  0.
        -24    2    3    3    0    0  0.28952306367E+01 -0.51876526267E+02 -0.49838252166E+02  0.10536631886E+03  0.76932785161E+02 0.  0.
          6    2    1    2  501    0  0.87402219694E+02  0.19367807991E+02  0.83480657722E+02  0.21066348808E+03  0.17145210703E+03 0.  0.
         24    2    5    5    0    0  0.35335071014E+02 -0.48477869329E+02  0.15049997235E+02  0.10103288470E+03  0.79890364354E+02 0.  0.
          5    1    5    5  501    0  0.52067148680E+02  0.67845677320E+02  0.68430660487E+02  0.10963060338E+03  0.47000000000E+01 0. -1.
        -13    1    6    6    0    0  0.34520776271E+02  0.14122116475E+02  0.59770752730E+01  0.37773583321E+02  0.00000000000E+00 0.  1.
         14    1    6    6    0    0  0.81429474332E+00 -0.62599985804E+02  0.90729219618E+01  0.63259301383E+02  0.00000000000E+00 0. -1.
         -5    1    3    3    0  503 -0.90297450331E+02  0.32508718276E+02 -0.24729359280E+01  0.96117905263E+02  0.47000000000E+01 0.  1.
         11    1    4    4    0    0  0.91716877438E+01 -0.25547518417E+02  0.17836335196E+02  0.32479692218E+02  0.00000000000E+00 0. -1.
        -12    1    4    4    0    0 -0.62764571071E+01 -0.26329007850E+02 -0.67674587362E+02  0.72886626639E+02  0.00000000000E+00 0.  1.
</event>
<event>
12    1  0.1030140E-001  0.1830786E+03  0.7818608E-02  0.1165636E+00
         21   -1    0    0  503  502  0.00000000000E+00  0.00000000000E+00  0.34481970642E+03  0.34481970642E+03  0.00000000000E+00 0. -1.
         21   -1    0    0  501  503 -0.00000000000E+00 -0.00000000000E+00 -0.10619255311E+03  0.10619255311E+03  0.00000000000E+00 0. -1.
          6    2    1    2  501    0 -0.20430387321E+01  0.51514175471E+02  0.46723062232E+02  0.18578600756E+03  0.17226581721E+03 0.  0.
         24    2    3    3    0    0 -0.65790325066E+02  0.56212348677E+01  0.39648404620E+02  0.10677955661E+03  0.73958857256E+02 0.  0.
         -6    2    1    2    0  502  0.20430387321E+01 -0.51514175471E+02  0.19190409107E+03  0.26522625197E+03  0.17566986162E+03 0.  0.
        -24    2    5    5    0    0  0.37677257914E+02 -0.11483446192E+02  0.19183230638E+03  0.21142706967E+03  0.79688937239E+02 0.  0.
          5    1    3    3  501    0  0.63747286334E+02  0.45892940603E+02  0.70746576117E+01  0.79006450955E+02  0.47000000000E+01 0. -1.
        -11    1    4    4    0    0  0.31186152347E+00  0.27907348040E+02  0.19909404173E+02  0.34282673565E+02  0.00000000000E+00 0.  1.
         12    1    4    4    0    0 -0.66102186589E+02 -0.22286113173E+02  0.19739000447E+02  0.72496883043E+02  0.00000000000E+00 0. -1.
         -5    1    5    5    0  502 -0.35634219182E+02 -0.40030729279E+02  0.71784695854E-01  0.53799182302E+02  0.47000000000E+01 0.  1.
         11    1    6    6    0    0 -0.33208131280E+01  0.72621479749E+01  0.14909438606E+03  0.14930807931E+03  0.00000000000E+00 0. -1.
        -12    1    6    6    0    0  0.40998071042E+02 -0.18745594167E+02  0.42737920315E+02  0.62118990355E+02  0.00000000000E+00 0.  1.
</event>
<event>
12    1  0.1030140E-001  0.2346732E+03  0.7818608E-02  0.1123531E+00
         21   -1    0    0  501  502  0.00000000000E+00  0.00000000000E+00  0.22776674435E+04  0.22776674435E+04  0.00000000000E+00 0. -1.
         21   -1    0    0  502  503 -0.00000000000E+00 -0.00000000000E+00 -0.31210686887E+02  0.31210686887E+02  0.00000000000E+00 0. -1.
         -6    2    1    2    0  503  0.85988253964E+02 -0.13443078447E+03  0.57056953483E+03  0.61664011789E+03  0.17096732227E+03 0.  0.
        -24    2    3    3    0    0  0.20157734777E+02 -0.13005649849E+03  0.28423084034E+03  0.32276135106E+03  0.77888972667E+02 0.  0.
          6    2    1    2  501    0 -0.85988253964E+02  0.13443078447E+03  0.16758872217E+04  0.16922380125E+04  0.17206363697E+03 0.  0.
         24    2    5    5    0    0 -0.50401354320E+02  0.25996105989E-01  0.59263833812E+03  0.60009273438E+03  0.79691861872E+02 0.  0.
          5    1    5    5  501    0 -0.35586899644E+02  0.13440478836E+03  0.10832488836E+04  0.10921452781E+04  0.47000000000E+01 0. -1.
        -13    1    6    6    0    0 -0.52479996396E+02  0.16745375597E+02  0.56531442403E+03  0.56799203836E+03  0.00000000000E+00 0.  1.
         14    1    6    6    0    0  0.20786420765E+01 -0.16719379491E+02  0.27323914091E+02  0.32100696016E+02  0.00000000000E+00 0. -1.
         -5    1    3    3    0  503  0.65830519187E+02 -0.43742859770E+01  0.28633869449E+03  0.29387876683E+03  0.47000000000E+01 0.  1.
         13    1    4    4    0    0  0.40243728743E+02 -0.43386161142E+02  0.76007980732E+02  0.96328239975E+02  0.00000000000E+00 0. -1.
        -14    1    4    4    0    0 -0.20085993966E+02 -0.86670337351E+02  0.20822285961E+03  0.22643311108E+03  0.00000000000E+00 0.  1.
</event>
<event>
12    1  0.1030140E-001  0.1886796E+03  0.7818608E-02  0.1160067E+00
         21   -1    0    0  501  502  0.00000000000E+00  0.00000000000E+00  0.34188068614E+03  0.34188068614E+03  0.00000000000E+00 0.  1.
         21   -1    0    0  502  503 -0.00000000000E+00 -0.00000000000E+00 -0.25263339479E+03  0.25263339479E+03  0.00000000000E+00 0.  1.
         -6    2    1    2    0  503 -0.90867157907E+01 -0.74236687410E+02 -0.18394886995E+03  0.26350935143E+03  0.17322337421E+03 0.  0.
        -24    2    3    3    0    0  0.13873247959E+02 -0.84940056106E+02 -0.20036132884E+03  0.23296134260E+03  0.81969780485E+02 0.  0.
          6    2    1    2  501    0  0.90867157907E+01  0.74236687410E+02  0.27319616131E+03  0.33100472950E+03  0.17127268970E+03 0.  0.
         24    2    5    5    0    0 -0.32089657219E+02 -0.90590269191E+01  0.17702495466E+03  0.19719643115E+03  0.80229581923E+02 0.  0.
          5    1    5    5  501    0  0.41176373009E+02  0.83295714329E+02  0.96171206647E+02  0.13380829835E+03  0.47000000000E+01 0. -1.
        -11    1    6    6    0    0  0.15867924213E+02 -0.12652943205E+02  0.12384128116E+03  0.12549323054E+03  0.00000000000E+00 0.  1.
         12    1    6    6    0    0 -0.47957581432E+02  0.35939162859E+01  0.53183673498E+02  0.71703200611E+02  0.00000000000E+00 0. -1.
         -5    1    3    3    0  503 -0.22959963749E+02  0.10703368697E+02  0.16412458884E+02  0.30548008830E+02  0.47000000000E+01 0.  1.
         11    1    4    4    0    0 -0.14615998874E+02 -0.44589514276E+02 -0.30262950386E+02  0.55836353503E+02  0.00000000000E+00 0. -1.
        -12    1    4    4    0    0  0.28489246833E+02 -0.40350541830E+02 -0.17009837845E+03  0.17712498910E+03  0.00000000000E+00 0.  1.
</event>
<event>
12    1  0.1030140E-001  0.1737328E+03  0.7818608E-02  0.1174447E+00
         21   -1    0    0  501  502  0.00000000000E+00  0.00000000000E+00  0.18943380524E+03  0.18943380524E+03  0.00000000000E+00 0. -1.
         21   -1    0    0  502  503 -0.00000000000E+00 -0.00000000000E+00 -0.16642054567E+03  0.16642054567E+03  0.00000000000E+00 0. -1.
         -6    2    1    2    0  503 -0.69407924331E+01 -0.14169740211E+02 -0.29014937151E+02  0.17613897825E+03  0.17301478823E+03 0.  0.
        -24    2    3    3    0    0  0.99918993181E+01 -0.72760106865E+02 -0.36691684810E+02  0.11449021858E+03  0.79798867244E+02 0.  0.
          6    2    1    2  501    0  0.69407924331E+01  0.14169740211E+02  0.52028196713E+02  0.17971537266E+03  0.17129426662E+03 0.  0.
         24    2    5    5    0    0  0.26990974249E+02  0.52423821388E+02  0.80210384589E+02  0.12793014087E+03  0.80347031104E+02 0.  0.
          5    1    5    5  501    0 -0.20050181816E+02 -0.38254081177E+02 -0.28182187876E+02  0.51785231785E+02  0.47000000000E+01 0. -1.
        -11    1    6    6    0    0 -0.51218947361E+01  0.19584109556E+02 -0.12971976192E+02  0.24042531462E+02  0.00000000000E+00 0.  1.
         12    1    6    6    0    0  0.32112868985E+02  0.32839711833E+02  0.93182360782E+02  0.10388760941E+03  0.00000000000E+00 0. -1.
         -5    1    3    3    0  503 -0.16932691751E+02  0.58590366654E+02  0.76767476588E+01  0.61648759673E+02  0.47000000000E+01 0.  1.
         11    1    4    4    0    0 -0.31470738681E+02 -0.17887109533E+02 -0.26725087557E+02  0.44995404049E+02  0.00000000000E+00 0. -1.
        -12    1    4    4    0    0  0.41462637999E+02 -0.54872997332E+02 -0.99665972532E+01  0.69494814532E+02  0.00000000000E+00 0.  1.
</event>
<event>
12    1  0.1030140E-001  0.2713812E+03  0.7818608E-02  0.1100623E+00
         21   -1    0    0  501  502  0.00000000000E+00  0.00000000000E+00  0.20541935019E+04  0.20541935019E+04  0.00000000000E+00 0. -1.
         21   -1    0    0  502  503 -0.00000000000E+00 -0.00000000000E+00 -0.38402438903E+02  0.38402438903E+02  0.00000000000E+00 0.  1.
         -6    2    1    2    0  503 -0.11282314296E+03  0.17681763171E+03  0.12854647076E+04  0.13137987908E+04  0.17220398228E+03 0.  0.
        -24    2    3    3    0    0 -0.98435382931E+02  0.14281815283E+03  0.12422965175E+04  0.12568026958E+04  0.78522794901E+02 0.  0.
          6    2    1    2  501    0  0.11282314296E+03 -0.17681763171E+03  0.73032635532E+03  0.77879715002E+03  0.17074799891E+03 0.  0.
         24    2    5    5    0    0  0.11425830605E+03 -0.12034429611E+03  0.36785431934E+03  0.41191928997E+03  0.82601398802E+02 0.  0.
          5    1    5    5  501    0 -0.14351630891E+01 -0.56473335592E+02  0.36247203598E+03  0.36687786005E+03  0.47000000000E+01 0. -1.
        -13    1    6    6    0    0  0.28988067925E+02 -0.44734992703E+02  0.21348805620E+03  0.22004244544E+03  0.00000000000E+00 0.  1.
         14    1    6    6    0    0  0.85270238122E+02 -0.75609303411E+02  0.15436626314E+03  0.19187684453E+03  0.00000000000E+00 0. -1.
         -5    1    3    3    0  503 -0.14387760027E+02  0.33999478881E+02  0.43168190151E+02  0.56996094986E+02  0.47000000000E+01 0.  1.
         11    1    4    4    0    0 -0.58550001885E+02  0.13819753262E+03  0.10004996108E+04  0.10116946832E+04  0.00000000000E+00 0. -1.
        -12    1    4    4    0    0 -0.39885381046E+02  0.46206202042E+01  0.24179690666E+03  0.24510801256E+03  0.00000000000E+00 0.  1.
</event>
<event>
12    1  0.1030140E-001  0.3269732E+03  0.7818608E-02  0.1072638E+00
         21   -1    0    0  501  502  0.00000000000E+00  0.00000000000E+00  0.48685104597E+03  0.48685104597E+03  0.00000000000E+00 0.  1.
         21   -1    0    0  502  503 -0.00000000000E+00 -0.00000000000E+00 -0.52966123982E+03  0.52966123982E+03  0.00000000000E+00 0.  1.
         -6    2    1    2    0  503 -0.94890561142E+02 -0.26001846476E+03 -0.41083828297E+03  0.52421548744E+03  0.17146417092E+03 0.  0.
        -24    2    3    3    0    0 -0.11495860887E+03 -0.17881582565E+03 -0.22036550778E+03  0.31613241935E+03  0.78664911422E+02 0.  0.
          6    2    1    2  501    0  0.94890561142E+02  0.26001846476E+03  0.36802808911E+03  0.49229679835E+03  0.17406218049E+03 0.  0.
         24    2    5    5    0    0  0.54579894354E+02  0.96116796396E+02  0.25502737416E+03  0.28912209931E+03  0.79594116111E+02 0.  0.
          5    1    5    5  501    0  0.40310666788E+02  0.16390166837E+03  0.11300071495E+03  0.20317469904E+03  0.47000000000E+01 0. -1.
        -11    1    6    6    0    0  0.24433793763E+02  0.67196691986E+02  0.72315394394E+02  0.10169524059E+03  0.00000000000E+00 0.  1.
         12    1    6    6    0    0  0.30146100591E+02  0.28920104411E+02  0.18271197977E+03  0.18742685872E+03  0.00000000000E+00 0. -1.
         -5    1    3    3    0  503  0.20068047728E+02 -0.81202639116E+02 -0.19047277519E+03  0.20808306809E+03  0.47000000000E+01 0.  1.
         11    1    4    4    0    0 -0.49020283114E+02 -0.40037429962E+02 -0.26131538100E+02  0.68475114005E+02  0.00000000000E+00 0. -1.
        -12    1    4    4    0    0 -0.65938325756E+02 -0.13877839568E+03 -0.19423396968E+03  0.24765730534E+03  0.00000000000E+00 0.  1.
</event>
<event>
12    1  0.1030140E-001  0.2196081E+03  0.7818608E-02  0.1134294E+00
         21   -1    0    0  501  502  0.00000000000E+00  0.00000000000E+00  0.93357547423E+03  0.93357547423E+03  0.00000000000E+00 0.  1.
         21   -1    0    0  502  503 -0.00000000000E+00 -0.00000000000E+00 -0.70238555000E+02  0.70238555000E+02  0.00000000000E+00 0.  1.
         -6    2    1    2    0  503  0.17850346625E+02 -0.13530302795E+03  0.17295544950E+03  0.27953768143E+03  0.17205285113E+03 0.  0.
        -24    2    3    3    0    0 -0.19453140114E+02 -0.15047647984E+03  0.15719707573E+03  0.23603825490E+03  0.89339473424E+02 0.  0.
          6    2    1    2  501    0 -0.17850346625E+02  0.13530302795E+03  0.69038146973E+03  0.72427634780E+03  0.17124283923E+03 0.  0.
         24    2    5    5    0    0 -0.23440553386E+02  0.14380720412E+02  0.42019790314E+03  0.42817720135E+03  0.77544653524E+02 0.  0.
          5    1    5    5  501    0  0.55902067607E+01  0.12092230754E+03  0.27018356659E+03  0.29609914645E+03  0.47000000000E+01 0. -1.
        -11    1    6    6    0    0 -0.17730279480E+02 -0.30788580554E+02  0.22138455323E+03  0.22421734971E+03  0.00000000000E+00 0.  1.
         12    1    6    6    0    0 -0.57102739058E+01  0.45169300966E+02  0.19881334991E+03  0.20395985164E+03  0.00000000000E+00 0. -1.
         -5    1    3    3    0  503  0.37303486739E+02  0.15173451887E+02  0.15758373772E+02  0.43499426536E+02  0.47000000000E+01 0.  1.
         11    1    4    4    0    0 -0.15096815420E+02 -0.12948994520E+03  0.16750211222E+03  0.21225578282E+03  0.00000000000E+00 0. -1.
        -12    1    4    4    0    0 -0.43563246938E+01 -0.20986534636E+02 -0.10305036489E+02  0.23782472073E+02  0.00000000000E+00 0.  1.
</event>
<event>
12    1  0.1030140E-001  0.3039350E+03  0.7818608E-02  0.1083319E+00
         21   -1    0    0  501  502  0.00000000000E+00  0.00000000000E+00  0.87947851136E+03  0.87947851136E+03  0.00000000000E+00 0.  1.
         21   -1    0    0  502  503 -0.00000000000E+00 -0.00000000000E+00 -0.12952464357E+03  0.12952464357E+03  0.00000000000E+00 0. -1.
         -6    2    1    2    0  503  0.36596136445E+02 -0.24806220344E+03  0.15512086818E+03  0.34101901631E+03  0.17133987207E+03 0.  0.
        -24    2    3    3    0    0  0.10882596541E+02 -0.20706452575E+03  0.53992945308E+02  0.22880964729E+03  0.80277442778E+02 0.  0.
          6    2    1    2  501    0 -0.36596136445E+02  0.24806220344E+03  0.59483299961E+03  0.66798413862E+03  0.17176256301E+03 0.  0.
         24    2    5    5    0    0 -0.79393467237E+02  0.14853677516E+03  0.28315637390E+03  0.33798212134E+03  0.75418075097E+02 0.  0.
          5    1    5    5  501    0  0.42797330792E+02  0.99525428277E+02  0.31167662571E+03  0.33000201729E+03  0.47000000000E+01 0. -1.
        -11    1    6    6    0    0 -0.78193928500E+02  0.12596399844E+03  0.27759015269E+03  0.31470225965E+03  0.00000000000E+00 0.  1.
         12    1    6    6    0    0 -0.11995387364E+01  0.22572776716E+02  0.55662212109E+01  0.23279861692E+02  0.00000000000E+00 0. -1.
         -5    1    3    3    0  503  0.25713539904E+02 -0.40997677682E+02  0.10112792287E+03  0.11220936901E+03  0.47000000000E+01 0.  1.
         11    1    4    4    0    0 -0.32854625242E+02 -0.56845911375E+02  0.20776916907E+02  0.68866278511E+02  0.00000000000E+00 0. -1.
        -12    1    4    4    0    0  0.43737221782E+02 -0.15021861438E+03  0.33216028401E+02  0.15994336878E+03  0.00000000000E+00 0.  1.
</event>
<event>
12    1  0.1030140E-001  0.1864883E+03  0.7818608E-02  0.1161675E+00
         21   -1    0    0  503  502  0.00000000000E+00  0.00000000000E+00  0.16787061895E+03  0.16787061895E+03  0.00000000000E+00 0.  1.
         21   -1    0    0  501  503 -0.00000000000E+00 -0.00000000000E+00 -0.39948922645E+03  0.39948922645E+03  0.00000000000E+00 0. -1.
          6    2    1    2  501    0 -0.27733585872E+02  0.63421555146E+02 -0.31265151067E+03  0.36402707773E+03  0.17312798952E+03 0.  0.
         24    2    3    3    0    0 -0.75137968804E+02  0.49576957745E+02 -0.14283303349E+03  0.18711112709E+03  0.80657977477E+02 0.  0.
         -6    2    1    2    0  502  0.27733585872E+02 -0.63421555146E+02  0.81032903166E+02  0.20333276767E+03  0.17316592497E+03 0.  0.
        -24    2    5    5    0    0 -0.24020239751E+02  0.52971323368E+01  0.63651065521E+01  0.89323617483E+02  0.85633886576E+02 0.  0.
          5    1    3    3  501    0  0.47404382932E+02  0.13844597402E+02 -0.16981847718E+03  0.17691595064E+03  0.47000000000E+01 0. -1.
        -11    1    4    4    0    0 -0.51707139309E+01  0.26773884711E+01  0.10590734998E+02  0.12085874374E+02  0.00000000000E+00 0.  1.
         12    1    4    4    0    0 -0.69967254873E+02  0.46899569274E+02 -0.15342376848E+03  0.17502525272E+03  0.00000000000E+00 0. -1.
         -5    1    5    5    0  502  0.51753825624E+02 -0.68718687483E+02  0.74667796614E+02  0.11400915019E+03  0.47000000000E+01 0.  1.
         11    1    6    6    0    0  0.25098377780E+02  0.15724777636E+02  0.21818183096E+02  0.36786278862E+02  0.00000000000E+00 0. -1.
        -12    1    6    6    0    0 -0.49118617531E+02 -0.10427645299E+02 -0.15453076544E+02  0.52537338621E+02  0.00000000000E+00 0.  1.
</event>
<event>
12    1  0.1030140E-001  0.1909038E+03  0.7818608E-02  0.1157740E+00
         21   -1    0    0  503  502  0.00000000000E+00  0.00000000000E+00  0.20820710619E+03  0.20820710619E+03  0.00000000000E+00 0. -1.
         21   -1    0    0  501  503 -0.00000000000E+00 -0.00000000000E+00 -0.58624239658E+03  0.58624239658E+03  0.00000000000E+00 0. -1.
          6    2    1    2  501    0  0.74812672330E+02  0.24995519876E+02 -0.52178824772E+03  0.55547422884E+03  0.17339818768E+03 0.  0.
         24    2    3    3    0    0  0.69022025160E+02  0.10003990937E+02 -0.52711602057E+03  0.53790286867E+03  0.81388433954E+02 0.  0.
         -6    2    1    2    0  502 -0.74812672330E+02 -0.24995519876E+02  0.14375295733E+03  0.23897527394E+03  0.17384635992E+03 0.  0.
        -24    2    5    5    0    0  0.18330738414E+02 -0.35472563023E+02  0.35953658852E+02  0.96047872261E+02  0.79612872595E+02 0.  0.
          5    1    3    3  501    0  0.57906471693E+01  0.14991528939E+02  0.53277728577E+01  0.17571360169E+02  0.47000000000E+01 0. -1.
        -13    1    4    4    0    0  0.30665941754E+02  0.39106912044E+02 -0.15724637524E+03  0.16491262256E+03  0.00000000000E+00 0.  1.
         14    1    4    4    0    0  0.38356083406E+02 -0.29102921107E+02 -0.36986964534E+03  0.37299024611E+03  0.00000000000E+00 0. -1.
         -5    1    5    5    0  502 -0.93143410744E+02  0.10477043147E+02  0.10779929847E+03  0.14292740167E+03  0.47000000000E+01 0.  1.
         13    1    6    6    0    0 -0.28897876596E+02 -0.80378921634E+01  0.27662787242E+02  0.40803489804E+02  0.00000000000E+00 0. -1.
        -14    1    6    6    0    0  0.47228615011E+02 -0.27434670859E+02  0.82908716101E+01  0.55244382457E+02  0.00000000000E+00 0.  1.
</event>
<event>
12    1  0.1030140E-001  0.1795397E+03  0.7818608E-02  0.1168249E+00
         21   -1    0    0  503  502  0.00000000000E+00  0.00000000000E+00  0.17437323893E+03  0.17437323893E+03  0.00000000000E+00 0.  1.
         21   -1    0    0  501  503 -0.00000000000E+00 -0.00000000000E+00 -0.38620231852E+03  0.38620231852E+03  0.00000000000E+00 0.  1.
          6    2    1    2  501    0 -0.51833874213E+02  0.66866958569E+01 -0.30829356207E+03  0.35676212718E+03  0.17176388606E+03 0.  0.
         24    2    3    3    0    0 -0.80283841716E+02 -0.43034466877E+02 -0.21112770912E+03  0.24386886939E+03  0.81238262644E+02 0.  0.
         -6    2    1    2    0  502  0.51833874213E+02 -0.66866958569E+01  0.96464482478E+02  0.20381343028E+03  0.17176453523E+03 0.  0.
        -24    2    5    5    0    0 -0.19175201498E+01 -0.27384941874E+02  0.11551713798E+03  0.14296342234E+03  0.79628632012E+02 0.  0.
          5    1    3    3  501    0  0.28449967504E+02  0.49721162734E+02 -0.97165852947E+02  0.11289325779E+03  0.47000000000E+01 0. -1.
        -11    1    4    4    0    0 -0.35940262387E+02 -0.21679993814E+02 -0.18178616305E+03  0.18656884432E+03  0.00000000000E+00 0.  1.
         12    1    4    4    0    0 -0.44343579330E+02 -0.21354473063E+02 -0.29341546071E+02  0.57300025073E+02  0.00000000000E+00 0. -1.
         -5    1    5    5    0  502  0.53751394362E+02  0.20698246017E+02 -0.19052655499E+02  0.60850007934E+02  0.47000000000E+01 0.  1.
         13    1    6    6    0    0 -0.35481475962E+01 -0.55627583026E+02  0.71912937824E+02  0.90986196597E+02  0.00000000000E+00 0. -1.
        -14    1    6    6    0    0  0.16306274464E+01  0.28242641152E+02  0.43604200153E+02  0.51977225745E+02  0.00000000000E+00 0.  1.
</event>
<event>
12    1  0.1030140E-001  0.1861419E+03  0.7818608E-02  0.1162705E+00
         21   -1    0    0  503  502  0.00000000000E+00  0.00000000000E+00  0.27047813181E+02  0.27047813181E+02  0.00000000000E+00 0.  1.
         21   -1    0    0  501  503 -0.00000000000E+00 -0.00000000000E+00 -0.16412800855E+04  0.16412800855E+04  0.00000000000E+00 0.  1.
          6    2    1    2  501    0  0.65506575506E+02 -0.12587796640E+02 -0.12143061819E+04  0.12284902618E+04  0.17377933115E+03 0.  0.
         24    2    3    3    0    0  0.73778511587E+02  0.50420758409E+02 -0.89856573285E+03  0.90638372028E+03  0.78265896104E+02 0.  0.
         -6    2    1    2    0  502 -0.65506575506E+02  0.12587796640E+02 -0.39992609043E+03  0.43983763687E+03  0.17048960362E+03 0.  0.
        -24    2    5    5    0    0 -0.20446465783E+02  0.29858746153E+02 -0.37632787717E+03  0.38591486937E+03  0.77446837139E+02 0.  0.
          5    1    3    3  501    0 -0.82719360807E+01 -0.63008555049E+02 -0.31574044905E+03  0.32210654154E+03  0.47000000000E+01 0. -1.
        -11    1    4    4    0    0 -0.11564545154E+02 -0.88202993810E+01 -0.89254602717E+02  0.90431855516E+02  0.00000000000E+00 0.  1.
         12    1    4    4    0    0  0.85343056742E+02  0.59241057790E+02 -0.80931113013E+03  0.81595186477E+03  0.00000000000E+00 0. -1.
         -5    1    5    5    0  502 -0.45060109723E+02 -0.17270949513E+02 -0.23598213259E+02  0.53922767495E+02  0.47000000000E+01 0.  1.
         13    1    6    6    0    0 -0.18773985965E+02 -0.23597804288E+02 -0.99546006615E+02  0.10401310662E+03  0.00000000000E+00 0. -1.
        -14    1    6    6    0    0 -0.16724798180E+01  0.53456550441E+02 -0.27678187056E+03  0.28190176275E+03  0.00000000000E+00 0.  1.
</event>
<event>
12    1  0.1030140E-001  0.1926417E+03  0.7818608E-02  0.1156725E+00
         21   -1    0    0  503  502  0.00000000000E+00  0.00000000000E+00  0.67334773216E+03  0.67334773216E+03  0.00000000000E+00 0.  1.
         21   -1    0    0  501  503 -0.00000000000E+00 -0.00000000000E+00 -0.10328219620E+03  0.10328219620E+03  0.00000000000E+00 0. -1.
          6    2    1    2  501    0 -0.35295453857E+01 -0.81471345449E+02  0.16566204859E+02  0.19056478796E+03  0.17143646475E+03 0.  0.
         24    2    3    3    0    0 -0.43763100193E+02 -0.61807421939E+02  0.62064407442E+02  0.12655240433E+03  0.80175769558E+02 0.  0.
         -6    2    1    2    0  502  0.35295453857E+01  0.81471345449E+02  0.55349933111E+03  0.58606514040E+03  0.17453023071E+03 0.  0.
        -24    2    5    5    0    0  0.30860334773E+02  0.22148965882E+02  0.12864469966E+03  0.15619345648E+03  0.80024997009E+02 0.  0.
          5    1    3    3  501    0  0.40233554808E+02 -0.19663923510E+02 -0.45498202584E+02  0.64012383635E+02  0.47000000000E+01 0. -1.
        -13    1    4    4    0    0 -0.57704409459E+02 -0.14102549290E+02  0.42949366034E+02  0.73302993187E+02  0.00000000000E+00 0.  1.
         14    1    4    4    0    0  0.13941309266E+02 -0.47704872649E+02  0.19115041409E+02  0.53249411139E+02  0.00000000000E+00 0. -1.
         -5    1    5    5    0  502 -0.27330789387E+02  0.59322379567E+02  0.42485463145E+03  0.42987168392E+03  0.47000000000E+01 0.  1.
         11    1    6    6    0    0  0.25858952545E+02  0.51633849046E+02  0.73613343540E+02  0.93561018278E+02  0.00000000000E+00 0. -1.
        -12    1    6    6    0    0  0.50013822278E+01 -0.29484883165E+02  0.55031356116E+02  0.62632438204E+02  0.00000000000E+00 0.  1.
</event>
<event>
12    1  0.1030140E-001  0.1936581E+03  0.7818608E-02  0.1159838E+00
         21   -1    0    0  501  502  0.00000000000E+00  0.00000000000E+00  0.37701353894E+02  0.37701353894E+02  0.00000000000E+00 0.  1.
         21   -1    0    0  502  503 -0.00000000000E+00 -0.00000000000E+00 -0.90314981763E+03  0.90314981763E+03  0.00000000000E+00 0. -1.
         -6    2    1    2    0  503  0.27251021998E+02 -0.83517882060E+02 -0.36546220284E+03  0.40467050857E+03  0.14992579490E+03 0.  0.
        -24    2    3    3    0    0  0.55724995963E+02 -0.29017287484E+02 -0.29015044122E+03  0.30733072512E+03  0.79483444303E+02 0.  0.
          6    2    1    2  501    0 -0.27251021998E+02  0.83517882060E+02 -0.49998626090E+03  0.53618066296E+03  0.17258501505E+03 0.  0.
         24    2    5    5    0    0 -0.53914845774E+02  0.45440017679E+02 -0.46665802350E+03  0.47878950805E+03  0.80610646420E+02 0.  0.
          5    1    5    5  501    0  0.26663823776E+02  0.38077864381E+02 -0.33328237403E+02  0.57391154916E+02  0.47000000000E+01 0. -1.
        -11    1    6    6    0    0 -0.66704572602E+02  0.14798378036E+02 -0.23391005477E+03  0.24368505436E+03  0.00000000000E+00 0.  1.
         12    1    6    6    0    0  0.12789726828E+02  0.30641639643E+02 -0.23274796873E+03  0.23510445368E+03  0.00000000000E+00 0. -1.
         -5    1    3    3    0  503 -0.28473973965E+02 -0.54500594576E+02 -0.75311761620E+02  0.97339783443E+02  0.47000000000E+01 0.  1.
         11    1    4    4    0    0  0.36371125554E+02  0.13588317654E+02 -0.21732843370E+03  0.22076944817E+03  0.00000000000E+00 0. -1.
        -12    1    4    4    0    0  0.19353870409E+02 -0.42605605138E+02 -0.72822007519E+02  0.86561276955E+02  0.00000000000E+00 0.  1.
</event>
<event>
12    1  0.1030140E-001  0.2652842E+03  0.7818608E-02  0.1104040E+00
         21   -1    0    0  501  502  0.00000000000E+00  0.00000000000E+00  0.32023037626E+03  0.32023037626E+03  0.00000000000E+00 0. -1.
         21   -1    0    0  502  503 -0.00000000000E+00 -0.00000000000E+00 -0.44441524659E+03  0.44441524659E+03  0.00000000000E+00 0.  1.
         -6    2    1    2    0  503  0.90350369808E+01 -0.20106064054E+03 -0.33400928498E+03  0.42641195617E+03  0.17250490094E+03 0.  0.
        -24    2    3    3    0    0 -0.97492562273E+01 -0.21304381811E+03 -0.24343142283E+03  0.33301556798E+03  0.78471615676E+02 0.  0.
          6    2    1    2  501    0 -0.90350369808E+01  0.20106064054E+03  0.20982441465E+03  0.33823366667E+03  0.17282567871E+03 0.  0.
         24    2    5    5    0    0 -0.42201165961E+01  0.13827597804E+03  0.22187307983E+03  0.27395025018E+03  0.81749743329E+02 0.  0.
          5    1    5    5  501    0 -0.48149203847E+01  0.62784662501E+02 -0.12048665181E+02  0.64283416495E+02  0.47000000000E+01 0. -1.
        -11    1    6    6    0    0  0.27843697370E+02  0.66259965047E+02  0.15391896541E+03  0.16987260628E+03  0.00000000000E+00 0.  1.
         12    1    6    6    0    0 -0.32063813966E+02  0.72016012991E+02  0.67954114413E+02  0.10407764390E+03  0.00000000000E+00 0. -1.
         -5    1    3    3    0  503  0.18784293208E+02  0.11983177568E+02 -0.90577862146E+02  0.93396388190E+02  0.47000000000E+01 0.  1.
         13    1    4    4    0    0  0.60856719103E+01 -0.65494228982E+02 -0.28158129738E+02  0.71550050334E+02  0.00000000000E+00 0. -1.
        -14    1    4    4    0    0 -0.15834928138E+02 -0.14754958912E+03 -0.21527329309E+03  0.26146551765E+03  0.00000000000E+00 0.  1.
</event>
<event>
12    1  0.1030140E-001  0.1923323E+03  0.7818608E-02  0.1157214E+00
         21   -1    0    0  501  502  0.00000000000E+00  0.00000000000E+00  0.11809726800E+03  0.11809726800E+03  0.00000000000E+00 0. -1.
         21   -1    0    0  502  503 -0.00000000000E+00 -0.00000000000E+00 -0.33116197177E+03  0.33116197177E+03  0.00000000000E+00 0.  1.
         -6    2    1    2    0  503  0.30813249060E+02 -0.79367332972E+02 -0.47038751121E+02  0.19800087409E+03  0.17246179917E+03 0.  0.
        -24    2    3    3    0    0  0.52471419006E+02 -0.53123746403E+02 -0.90849797883E+02  0.14232951718E+03  0.80178696930E+02 0.  0.
          6    2    1    2  501    0 -0.30813249060E+02  0.79367332972E+02 -0.16602595265E+03  0.25125836567E+03  0.16827810169E+03 0.  0.
         24    2    5    5    0    0  0.21985606808E+02  0.97052760502E+02 -0.11579236401E+03  0.17611851636E+03  0.87790973415E+02 0.  0.
          5    1    5    5  501    0 -0.52798855868E+02 -0.17685427530E+02 -0.50233588640E+02  0.75139849318E+02  0.47000000000E+01 0. -1.
        -13    1    6    6    0    0 -0.77122506077E+01 -0.13678728552E+02 -0.26499899571E+02  0.30803102141E+02  0.00000000000E+00 0.  1.
         14    1    6    6    0    0  0.29697857415E+02  0.11073148905E+03 -0.89292464436E+02  0.14531541421E+03  0.00000000000E+00 0. -1.
         -5    1    3    3    0  503 -0.21658169945E+02 -0.26243586568E+02  0.43811046762E+02  0.55671356906E+02  0.47000000000E+01 0.  1.
         13    1    4    4    0    0  0.41076618111E+02 -0.16318513915E+02 -0.60428487451E+00  0.44203479637E+02  0.00000000000E+00 0. -1.
        -14    1    4    4    0    0  0.11394800895E+02 -0.36805232489E+02 -0.90245513009E+02  0.98126037545E+02  0.00000000000E+00 0.  1.
</event>
<event>
12    1  0.1030140E-001  0.2134304E+03  0.7818608E-02  0.1139317E+00
         21   -1    0    0  503  502  0.00000000000E+00  0.00000000000E+00  0.17494968579E+03  0.17494968579E+03  0.00000000000E+00 0.  1.
         21   -1    0    0  501  503 -0.00000000000E+00 -0.00000000000E+00 -0.44497738414E+03  0.44497738414E+03  0.00000000000E+00 0.  1.
          6    2    1    2  501    0 -0.76885500960E+01  0.11856457345E+03 -0.33571968373E+03  0.39661566966E+03  0.17458411007E+03 0.  0.
         24    2    3    3    0    0 -0.96603625324E+01  0.42835246953E+02 -0.29794118897E+03  0.31183286714E+03  0.80886364482E+02 0.  0.
         -6    2    1    2    0  502  0.76885500960E+01 -0.11856457345E+03  0.65691985379E+02  0.22331140027E+03  0.17730164317E+03 0.  0.
        -24    2    5    5    0    0 -0.50003487950E+02 -0.90059261168E+02  0.20069764370E+01  0.13265383332E+03  0.83558316224E+02 0.  0.
          5    1    3    3  501    0  0.19718124364E+01  0.75729326495E+02 -0.37778494766E+02  0.84782802516E+02  0.47000000000E+01 0. -1.
        -13    1    4    4    0    0  0.77946306970E+01  0.63574567212E+02 -0.22788674620E+03  0.23671681596E+03  0.00000000000E+00 0.  1.
         14    1    4    4    0    0 -0.17454993229E+02 -0.20739320260E+02 -0.70054442763E+02  0.75116051176E+02  0.00000000000E+00 0. -1.
         -5    1    5    5    0  502  0.57692038046E+02 -0.28505312280E+02  0.63685008942E+02  0.90657566954E+02  0.47000000000E+01 0.  1.
         11    1    6    6    0    0 -0.33042180747E+02  0.72342422793E+01 -0.11212460552E+01  0.33843421260E+02  0.00000000000E+00 0. -1.
        -12    1    6    6    0    0 -0.16961307204E+02 -0.97293503447E+02  0.31282224922E+01  0.98810412058E+02  0.00000000000E+00 0.  1.
</event>
<event>
12    1  0.1030140E-001  0.2618910E+03  0.7818608E-02  0.1106044E+00
         21   -1    0    0  503  502  0.00000000000E+00  0.00000000000E+00  0.48321509815E+03  0.48321509815E+03  0.00000000000E+00 0. -1.
         21   -1    0    0  501  503 -0.00000000000E+00 -0.00000000000E+00 -0.44243207087E+03  0.44243207087E+03  0.00000000000E+00 0. -1.
          6    2    1    2  501    0 -0.16810686608E+03  0.10691537582E+03 -0.36111021829E+03  0.44595447137E+03  0.16965843561E+03 0.  0.
         24    2    3    3    0    0 -0.16868727822E+03  0.35327260214E+02 -0.25786327432E+03  0.32022771760E+03  0.79680046007E+02 0.  0.
         -6    2    1    2    0  502  0.16810686608E+03 -0.10691537582E+03  0.40189324557E+03  0.47969269765E+03  0.16998849176E+03 0.  0.
        -24    2    5    5    0    0  0.81005292933E+02  0.30475911247E+00  0.24266889533E+03  0.26884364005E+03  0.82624207559E+02 0.  0.
          5    1    3    3  501    0  0.58041213654E+00  0.71588115603E+02 -0.10324694397E+03  0.12572675377E+03  0.47000000000E+01 0. -1.
        -13    1    4    4    0    0 -0.73706788371E+02  0.76078313649E+01 -0.48213759783E+02  0.88403260022E+02  0.00000000000E+00 0.  1.
         14    1    4    4    0    0 -0.94980489845E+02  0.27719428849E+02 -0.20964951454E+03  0.23182445758E+03  0.00000000000E+00 0. -1.
         -5    1    5    5    0  502  0.87101573146E+02 -0.10722013493E+03  0.15922435024E+03  0.21084905760E+03  0.47000000000E+01 0.  1.
         11    1    6    6    0    0  0.25676656941E+02 -0.38353316069E+02  0.74542582687E+02  0.87674763751E+02  0.00000000000E+00 0. -1.
        -12    1    6    6    0    0  0.55328635993E+02  0.38658075181E+02  0.16812631264E+03  0.18116887630E+03  0.00000000000E+00 0.  1.
</event>
<event>
12    1  0.1030140E-001  0.1834904E+03  0.7818608E-02  0.1164700E+00
         21   -1    0    0  501  502  0.00000000000E+00  0.00000000000E+00  0.46761127587E+03  0.46761127587E+03  0.00000000000E+00 0. -1.
         21   -1    0    0  502  503 -0.00000000000E+00 -0.00000000000E+00 -0.12538959528E+03  0.12538959528E+03  0.00000000000E+00 0. -1.
         -6    2    1    2    0  503  0.32965708798E+02  0.56776480325E+02 -0.22794335685E+02  0.18490082079E+03  0.17134300428E+03 0.  0.
        -24    2    3    3    0    0  0.71877282309E+02  0.78973215577E+02 -0.35282046827E+02  0.13815856433E+03  0.80248698305E+02 0.  0.
          6    2    1    2  501    0 -0.32965708798E+02 -0.56776480325E+02  0.36501601627E+03  0.40810005036E+03  0.17028990663E+03 0.  0.
         24    2    5    5    0    0 -0.81860970533E+02 -0.63911785275E+02  0.28732646854E+03  0.31590777833E+03  0.80344819933E+02 0.  0.
          5    1    5    5  501    0  0.48895261735E+02  0.71353049495E+01  0.77689547725E+02  0.92192272033E+02  0.47000000000E+01 0. -1.
        -11    1    6    6    0    0 -0.21300845649E+02 -0.33704525398E+02  0.30181604365E+02  0.50006502574E+02  0.00000000000E+00 0.  1.
         12    1    6    6    0    0 -0.60560124884E+02 -0.30207259877E+02  0.25714486418E+03  0.26590127576E+03  0.00000000000E+00 0. -1.
         -5    1    3    3    0  503 -0.38911573511E+02 -0.22196735252E+02  0.12487711142E+02  0.46742256455E+02  0.47000000000E+01 0.  1.
         11    1    4    4    0    0 -0.88988393953E+01  0.12181820301E+02 -0.29562315935E+02  0.33189103812E+02  0.00000000000E+00 0. -1.
        -12    1    4    4    0    0  0.80776121704E+02  0.66791395276E+02 -0.57197308920E+01  0.10496946052E+03  0.00000000000E+00 0.  1.
</event>
<event>
12    1  0.1030140E-001  0.2051061E+03  0.7818608E-02  0.1145750E+00
         21   -1    0    0  503  502  0.00000000000E+00  0.00000000000E+00  0.15548251728E+04  0.15548251728E+04  0.00000000000E+00 0. -1.
         21   -1    0    0  501  503 -0.00000000000E+00 -0.00000000000E+00 -0.54042985312E+02  0.54042985312E+02  0.00000000000E+00 0. -1.
          6    2    1    2  501    0  0.10351549455E+03  0.37218369962E+02  0.18136844766E+03  0.27379373429E+03  0.17311219037E+03 0.  0.
         24    2    3    3    0    0  0.83418289363E+02  0.24719690151E+02  0.20691403858E+03  0.23865427116E+03  0.81072607573E+02 0.  0.
         -6    2    1    2    0  502 -0.10351549455E+03 -0.37218369962E+02  0.13194137398E+04  0.13350744238E+04  0.17166955355E+03 0.  0.
        -24    2    5    5    0    0 -0.12322702041E+03 -0.42815315920E+02  0.12893908742E+04  0.12984229229E+04  0.79719574143E+02 0.  0.
          5    1    3    3  501    0  0.20097205189E+02  0.12498679811E+02 -0.25545590925E+02  0.35139463131E+02  0.47000000000E+01 0. -1.
        -13    1    4    4    0    0 -0.12007189239E+02 -0.87116445952E+01  0.48531885561E+02  0.50748490235E+02  0.00000000000E+00 0.  1.
         14    1    4    4    0    0  0.95425478602E+02  0.33431334746E+02  0.15838215302E+03  0.18790578092E+03  0.00000000000E+00 0. -1.
         -5    1    5    5    0  502  0.19711525861E+02  0.55969459582E+01  0.30022865581E+02  0.36651500836E+02  0.47000000000E+01 0.  1.
         11    1    6    6    0    0 -0.49256841667E+02 -0.59280700866E+02  0.63764972907E+03  0.64229091144E+03  0.00000000000E+00 0. -1.
        -12    1    6    6    0    0 -0.73970178745E+02  0.16465384945E+02  0.65174114514E+03  0.65613201150E+03  0.00000000000E+00 0.  1.
</event>
<event>
12    1  0.1030140E-001  0.2094797E+03  0.7818608E-02  0.1142296E+00
         21   -1    0    0  501  502  0.00000000000E+00  0.00000000000E+00  0.10642516200E+03  0.10642516200E+03  0.00000000000E+00 0.  1.
         21   -1    0    0  502  503 -0.00000000000E+00 -0.00000000000E+00 -0.44169115572E+03  0.44169115572E+03  0.00000000000E+00 0.  1.
         -6    2    1    2    0  503 -0.87172030405E+02 -0.83558126171E+02 -0.24137451252E+03  0.31855729386E+03  0.16922225280E+03 0.  0.
        -24    2    3    3    0    0 -0.20001024153E+02 -0.55488542381E+02 -0.22045651722E+03  0.24266593636E+03  0.82502493198E+02 0.  0.
          6    2    1    2  501    0  0.87172030405E+02  0.83558126171E+02 -0.93891481190E+02  0.22955902386E+03  0.17117479914E+03 0.  0.
         24    2    5    5    0    0  0.50905051297E+02 -0.23772436922E+02 -0.75358716650E+02  0.11466473806E+03  0.65670487855E+02 0.  0.
          5    1    5    5  501    0  0.36266979108E+02  0.10733056309E+03 -0.18532764540E+02  0.11489428580E+03  0.47000000000E+01 0. -1.
        -11    1    6    6    0    0  0.22139687849E+02 -0.82833345080E+01 -0.78368463489E+02  0.81855943451E+02  0.00000000000E+00 0.  1.
         12    1    6    6    0    0  0.28765363448E+02 -0.15489102414E+02  0.30097468389E+01  0.32808794612E+02  0.00000000000E+00 0. -1.
         -5    1    3    3    0  503 -0.67171006253E+02 -0.28069583790E+02 -0.20917995301E+02  0.75891357496E+02  0.47000000000E+01 0.  1.
         11    1    4    4    0    0  0.30972366658E+02 -0.20512515877E+02 -0.10977559484E+03  0.11589103514E+03  0.00000000000E+00 0. -1.
        -12    1    4    4    0    0 -0.50973390811E+02 -0.34976026504E+02 -0.11068092238E+03  0.12677490122E+03  0.00000000000E+00 0.  1.
</event>
<event>
12    1  0.1030140E-001  0.1868652E+03  0.7818608E-02  0.1162215E+00
         21   -1    0    0  503  502  0.00000000000E+00  0.00000000000E+00  0.31306516932E+03  0.31306516932E+03  0.00000000000E+00 0. -1.
         21   -1    0    0  501  503 -0.00000000000E+00 -0.00000000000E+00 -0.23760217480E+03  0.23760217480E+03  0.00000000000E+00 0. -1.
          6    2    1    2  501    0  0.55593414651E+02 -0.32842579777E+02 -0.16444430506E+03  0.24891872238E+03  0.17535489182E+03 0.  0.
         24    2    3    3    0    0  0.15098214126E+02 -0.45340703059E+02 -0.18062465948E+03  0.20331216342E+03  0.80167529325E+02 0.  0.
         -6    2    1    2    0  502 -0.55593414651E+02  0.32842579777E+02  0.23990729958E+03  0.30174862174E+03  0.17125260737E+03 0.  0.
        -24    2    5    5    0    0 -0.78596531701E+02  0.50859199647E+01  0.24030002002E+03  0.26539178212E+03  0.80532086873E+02 0.  0.
          5    1    3    3  501    0  0.40495200525E+02  0.12498123282E+02  0.16180354420E+02  0.45606558961E+02  0.47000000000E+01 0. -1.
        -11    1    4    4    0    0  0.59478252470E+01  0.21070902872E+02 -0.21697902640E+02  0.30824641961E+02  0.00000000000E+00 0.  1.
         12    1    4    4    0    0  0.91503888786E+01 -0.66411605932E+02 -0.15892675684E+03  0.17248752146E+03  0.00000000000E+00 0. -1.
         -5    1    5    5    0  502  0.23003117050E+02  0.27756659813E+02 -0.39272044130E+00  0.36356839622E+02  0.47000000000E+01 0.  1.
         11    1    6    6    0    0 -0.42894861324E+02  0.42667546112E+02  0.11962306313E+03  0.13405284723E+03  0.00000000000E+00 0. -1.
        -12    1    6    6    0    0 -0.35701670377E+02 -0.37581626147E+02  0.12067695689E+03  0.13133893489E+03  0.00000000000E+00 0.  1.
</event>
<event>
12    1  0.1030140E-001  0.2023376E+03  0.7818608E-02  0.1150566E+00
         21   -1    0    0  501  502  0.00000000000E+00  0.00000000000E+00  0.23225296952E+03  0.23225296952E+03  0.00000000000E+00 0.  1.
         21   -1    0    0  502  503 -0.00000000000E+00 -0.00000000000E+00 -0.17422265179E+03  0.17422265179E+03  0.00000000000E+00 0.  1.
         -6    2    1    2    0  503 -0.60001316129E+02  0.41849086677E+02 -0.18155838498E+02  0.19027011427E+03  0.17470425845E+03 0.  0.
        -24    2    3    3    0    0  0.18460362316E+02 -0.20767922770E+02  0.45002813372E+00  0.88067408197E+02  0.83567782477E+02 0.  0.
          6    2    1    2  501    0  0.60001316129E+02 -0.41849086677E+02  0.76186156228E+02  0.21620550703E+03  0.18865043567E+03 0.  0.
         24    2    5    5    0    0  0.50065239476E+02 -0.40839738338E+02  0.12745211579E+03  0.16376474986E+03  0.80002743986E+02 0.  0.
          5    1    5    5  501    0  0.99360766536E+01 -0.10093483392E+01 -0.51265959562E+02  0.52440757176E+02  0.47000000000E+01 0. -1.
        -13    1    6    6    0    0  0.37747313043E+02 -0.36538163480E+02  0.21097382895E+02  0.56612689369E+02  0.00000000000E+00 0.  1.
         14    1    6    6    0    0  0.12317926432E+02 -0.43015748574E+01  0.10635473290E+03  0.10715206049E+03  0.00000000000E+00 0. -1.
         -5    1    3    3    0  503 -0.78461678445E+02  0.62617009447E+02 -0.18605866631E+02  0.10220270608E+03  0.47000000000E+01 0.  1.
         11    1    4    4    0    0 -0.16096808092E+02  0.14203246277E+02  0.25134088514E+02  0.33053923232E+02  0.00000000000E+00 0. -1.
        -12    1    4    4    0    0  0.34557170408E+02 -0.34971169047E+02 -0.24684060381E+02  0.55013484965E+02  0.00000000000E+00 0.  1.
</event>
<event>
12    1  0.1030140E-001  0.1728594E+03  0.7818608E-02  0.1174904E+00
         21   -1    0    0  501  502  0.00000000000E+00  0.00000000000E+00  0.59192505606E+02  0.59192505606E+02  0.00000000000E+00 0. -1.
         21   -1    0    0  502  503 -0.00000000000E+00 -0.00000000000E+00 -0.28981611343E+04  0.28981611343E+04  0.00000000000E+00 0. -1.
         -6    2    1    2    0  503  0.15408586758E+02 -0.10633974112E+02 -0.27632601335E+04  0.27686615815E+04  0.17184260554E+03 0.  0.
        -24    2    3    3    0    0  0.11068729884E+02 -0.73537231769E+02 -0.16240908286E+04  0.16277389506E+04  0.79579084375E+02 0.  0.
          6    2    1    2  501    0 -0.15408586758E+02  0.10633974112E+02 -0.75708495158E+02  0.18869205845E+03  0.17182086815E+03 0.  0.
         24    2    5    5    0    0 -0.18711655471E+02 -0.57475880894E+02 -0.72008697391E+02  0.12024031548E+03  0.74959175774E+02 0.  0.
          5    1    5    5  501    0  0.33030687131E+01  0.68109855006E+02 -0.36997977670E+01  0.68451742968E+02  0.47000000000E+01 0. -1.
        -11    1    6    6    0    0  0.21249059603E+01 -0.37051133166E+02 -0.81504788199E+02  0.89556307391E+02  0.00000000000E+00 0.  1.
         12    1    6    6    0    0 -0.20836561431E+02 -0.20424747728E+02  0.94960908073E+01  0.30684008093E+02  0.00000000000E+00 0. -1.
         -5    1    3    3    0  503  0.43398568738E+01  0.62903257657E+02 -0.11391693050E+04  0.11409226308E+04  0.47000000000E+01 0.  1.
         13    1    4    4    0    0  0.38654810107E+02 -0.43701706295E+02 -0.12671826236E+04  0.12685250629E+04  0.00000000000E+00 0. -1.
        -14    1    4    4    0    0 -0.27586080223E+02 -0.29835525474E+02 -0.35690820494E+03  0.35921388775E+03  0.00000000000E+00 0.  1.
</event>
<event>
12    1  0.1030140E-001  0.1906807E+03  0.7818608E-02  0.1158657E+00
         21   -1    0    0  503  502  0.00000000000E+00  0.00000000000E+00  0.18904551326E+03  0.18904551326E+03  0.00000000000E+00 0. -1.
         21   -1    0    0  501  503 -0.00000000000E+00 -0.00000000000E+00 -0.27165535756E+03  0.27165535756E+03  0.00000000000E+00 0. -1.
          6    2    1    2  501    0 -0.81739706624E+02 -0.25259231571E+02 -0.16828240025E+03  0.25165802737E+03  0.16641330502E+03 0.  0.
         24    2    3    3    0    0  0.99760013653E+01 -0.70106208482E+00 -0.12055813439E+03  0.14528805824E+03  0.80463308466E+02 0.  0.
         -6    2    1    2    0  502  0.81739706624E+02  0.25259231571E+02  0.85672555960E+02  0.20904284345E+03  0.17041043141E+03 0.  0.
        -24    2    5    5    0    0 -0.86020619186E+01  0.13500949124E+02 -0.22184700216E+01  0.82366820468E+02  0.80765713074E+02 0.  0.
          5    1    3    3  501    0 -0.91715707990E+02 -0.24558169486E+02 -0.47724265868E+02  0.10636996913E+03  0.47000000000E+01 0. -1.
        -11    1    4    4    0    0 -0.60206302081E+01  0.31306280042E+02 -0.17875577622E+02  0.36549520291E+02  0.00000000000E+00 0.  1.
         12    1    4    4    0    0  0.15996631573E+02 -0.32007342127E+02 -0.10268255676E+03  0.10873853795E+03  0.00000000000E+00 0. -1.
         -5    1    5    5    0  502  0.90341768543E+02  0.11758282447E+02  0.87891025982E+02  0.12667602298E+03  0.47000000000E+01 0.  1.
         13    1    6    6    0    0  0.22131075591E+02  0.65821745870E+01 -0.31702502476E+02  0.39219359917E+02  0.00000000000E+00 0. -1.
        -14    1    6    6    0    0 -0.30733137510E+02  0.69187745374E+01  0.29484032454E+02  0.43147460551E+02  0.00000000000E+00 0.  1.
</event>
<event>
12    1  0.1030140E-001  0.2006405E+03  0.7818608E-02  0.1149366E+00
         21   -1    0    0  501  502  0.00000000000E+00  0.00000000000E+00  0.78669867406E+02  0.78669867406E+02  0.00000000000E+00 0.  1.
         21   -1    0    0  502  503 -0.00000000000E+00 -0.00000000000E+00 -0.53611385347E+03  0.53611385347E+03  0.00000000000E+00 0.  1.
         -6    2    1    2    0  503  0.10280883817E+03  0.94858080645E+01 -0.29737319117E+03  0.35873031127E+03  0.17203773897E+03 0.  0.
        -24    2    3    3    0    0  0.67451039006E+02 -0.63157069421E+02 -0.17797662812E+03  0.21449165181E+03  0.76108675326E+02 0.  0.
          6    2    1    2  501    0 -0.10280883817E+03 -0.94858080645E+01 -0.16007079489E+03  0.25605340962E+03  0.17111706939E+03 0.  0.
         24    2    5    5    0    0 -0.13047012805E+03  0.25279292884E+02 -0.11860609196E+03  0.19510120875E+03  0.79596354451E+02 0.  0.
          5    1    5    5  501    0  0.27661289876E+02 -0.34765100949E+02 -0.41464702932E+02  0.60952200870E+02  0.47000000000E+01 0. -1.
        -13    1    6    6    0    0 -0.46723159194E+02 -0.64013583931E+01 -0.84683794364E+00  0.47167235756E+02  0.00000000000E+00 0.  1.
         14    1    6    6    0    0 -0.83746968854E+02  0.31680651277E+02 -0.11775925402E+03  0.14793397299E+03  0.00000000000E+00 0. -1.
         -5    1    3    3    0  503  0.35357799167E+02  0.72642877485E+02 -0.11939656306E+03  0.14423865945E+03  0.47000000000E+01 0.  1.
         11    1    4    4    0    0 -0.85433352514E+01 -0.37676761146E+02 -0.45872968276E+02  0.59973795329E+02  0.00000000000E+00 0. -1.
        -12    1    4    4    0    0  0.75994374257E+02 -0.25480308275E+02 -0.13210365984E+03  0.15451785648E+03  0.00000000000E+00 0.  1.
</event>
<event>
12    1  0.1030140E-001  0.2210918E+03  0.7818608E-02  0.1133375E+00
         21   -1    0    0  503  502  0.00000000000E+00  0.00000000000E+00  0.15577431069E+04  0.15577431069E+04  0.00000000000E+00 0. -1.
         21   -1    0    0  501  503 -0.00000000000E+00 -0.00000000000E+00 -0.14402996906E+03  0.14402996906E+03  0.00000000000E+00 0. -1.
          6    2    1    2  501    0  0.13031679336E+03 -0.43205426856E+02 -0.45856055511E+02  0.22579714510E+03  0.17329857866E+03 0.  0.
         24    2    3    3    0    0  0.36062202982E+02 -0.64873772365E+02  0.54595534846E+01  0.11621235267E+03  0.89254777825E+02 0.  0.
         -6    2    1    2    0  502 -0.13031679336E+03  0.43205426856E+02  0.14595691933E+04  0.14759759308E+04  0.17121198200E+03 0.  0.
        -24    2    5    5    0    0 -0.10936873817E+03  0.95350085406E+01  0.13825762429E+04  0.13892434543E+04  0.80174000576E+02 0.  0.
          5    1    3    3  501    0  0.94254590376E+02  0.21668345510E+02 -0.51315608996E+02  0.10958479242E+03  0.47000000000E+01 0. -1.
        -13    1    4    4    0    0  0.33990554129E+02 -0.16303677037E+02  0.41222125307E+02  0.55860820525E+02  0.00000000000E+00 0.  1.
         14    1    4    4    0    0  0.20716488537E+01 -0.48570095329E+02 -0.35762571823E+02  0.60351532148E+02  0.00000000000E+00 0. -1.
         -5    1    5    5    0  502 -0.20948055189E+02  0.33670418315E+02  0.76992950356E+02  0.86732476560E+02  0.47000000000E+01 0.  1.
         11    1    6    6    0    0 -0.33740133241E+02 -0.16800271198E+02  0.17491436934E+03  0.17892926621E+03  0.00000000000E+00 0. -1.
        -12    1    6    6    0    0 -0.75628604928E+02  0.26335279739E+02  0.12076618736E+04  0.12103141881E+04  0.00000000000E+00 0.  1.
</event>
<event>
12    1  0.1030140E-001  0.1887585E+03  0.7818608E-02  0.1159661E+00
         21   -1    0    0  503  502  0.00000000000E+00  0.00000000000E+00  0.55205829504E+02  0.55205829504E+02  0.00000000000E+00 0.  1.
         21   -1    0    0  501  503 -0.00000000000E+00 -0.00000000000E+00 -0.83838325020E+03  0.83838325020E+03  0.00000000000E+00 0. -1.
          6    2    1    2  501    0  0.42405010442E+02 -0.64678107368E+02 -0.17686440305E+03  0.25867120610E+03  0.17218691389E+03 0.  0.
         24    2    3    3    0    0  0.65700497717E+02 -0.48937424218E+01 -0.16287388127E+03  0.19283295947E+03  0.79474177833E+02 0.  0.
         -6    2    1    2    0  502 -0.42405010442E+02  0.64678107368E+02 -0.60631301765E+03  0.63491787361E+03  0.17182487705E+03 0.  0.
        -24    2    5    5    0    0 -0.29924234002E+02  0.40164429847E+02 -0.59892717125E+03  0.60605040242E+03  0.77940314379E+02 0.  0.
          5    1    3    3  501    0 -0.23295487276E+02 -0.59784364947E+02 -0.13990521778E+02  0.65838246628E+02  0.47000000000E+01 0. -1.
        -11    1    4    4    0    0  0.31638046742E+02 -0.30906574458E+02 -0.30583346211E+02  0.53772887330E+02  0.00000000000E+00 0.  1.
         12    1    4    4    0    0  0.34062450975E+02  0.26012832036E+02 -0.13229053506E+03  0.13906007214E+03  0.00000000000E+00 0. -1.
         -5    1    5    5    0  502 -0.12480776439E+02  0.24513677521E+02 -0.73858464064E+01  0.28867471197E+02  0.47000000000E+01 0.  1.
         11    1    6    6    0    0 -0.28676587061E+02  0.57837056305E+02 -0.55412087716E+03  0.55786863887E+03  0.00000000000E+00 0. -1.
        -12    1    6    6    0    0 -0.12476469414E+01 -0.17672626458E+02 -0.44806294085E+02  0.48181763546E+02  0.00000000000E+00 0.  1.
</event>
<event>
12    1  0.1030140E-001  0.3239783E+03  0.7818608E-02  0.1073894E+00
         21   -1    0    0  501  502  0.00000000000E+00  0.00000000000E+00  0.27953330673E+04  0.27953330673E+04  0.00000000000E+00 0.  1.
         21   -1    0    0  502  503 -0.00000000000E+00 -0.00000000000E+00 -0.45617568573E+02  0.45617568573E+02  0.00000000000E+00 0. -1.
         -6    2    1    2    0  503  0.10871731907E+02 -0.27426415607E+03  0.77609103476E+03  0.84099895522E+03  0.17211312150E+03 0.  0.
        -24    2    3    3    0    0  0.99348044510E+00 -0.22788421524E+03  0.74641774444E+03  0.78486275548E+03  0.83294016359E+02 0.  0.
          6    2    1    2  501    0 -0.10871731907E+02  0.27426415607E+03  0.19736244640E+04  0.19999516807E+04  0.17109698508E+03 0.  0.
         24    2    5    5    0    0  0.39795559919E+01  0.12616937372E+03  0.60078731489E+03  0.61906191198E+03  0.79735220624E+02 0.  0.
          5    1    5    5  501    0 -0.14851287899E+02  0.14809478235E+03  0.13728371491E+04  0.13808897687E+04  0.47000000000E+01 0. -1.
        -11    1    6    6    0    0  0.12956803122E+02  0.20871979636E+02  0.28508176587E+03  0.28613830837E+03  0.00000000000E+00 0.  1.
         12    1    6    6    0    0 -0.89772471297E+01  0.10529739409E+03  0.31570554901E+03  0.33292360362E+03  0.00000000000E+00 0. -1.
         -5    1    3    3    0  503  0.98782514619E+01 -0.46379940831E+02  0.29673290315E+02  0.56136199742E+02  0.47000000000E+01 0.  1.
         11    1    4    4    0    0  0.34237580625E+02 -0.13395302919E+03  0.35531172475E+03  0.38126375084E+03  0.00000000000E+00 0. -1.
        -12    1    4    4    0    0 -0.33244100180E+02 -0.93931186045E+02  0.39110601969E+03  0.40359900464E+03  0.00000000000E+00 0.  1.
</event>
<event>
12    1  0.1030140E-001  0.1980398E+03  0.7818608E-02  0.1151446E+00
         21   -1    0    0  501  502  0.00000000000E+00  0.00000000000E+00  0.71759898719E+02  0.71759898719E+02  0.00000000000E+00 0. -1.
         21   -1    0    0  502  503 -0.00000000000E+00 -0.00000000000E+00 -0.13154568168E+04  0.13154568168E+04  0.00000000000E+00 0.  1.
         -6    2    1    2    0  503  0.20641225331E+02  0.95799581342E+02 -0.11524592050E+04  0.11693510935E+04  0.17209340685E+03 0.  0.
        -24    2    3    3    0    0  0.27398744640E+02  0.13384268554E+03 -0.93070246455E+03  0.94420428854E+03  0.81548177730E+02 0.  0.
          6    2    1    2  501    0 -0.20641225331E+02 -0.95799581342E+02 -0.91237713040E+02  0.21786562199E+03  0.17186474041E+03 0.  0.
         24    2    5    5    0    0 -0.39383312746E+02 -0.85445603484E+01 -0.93798410096E+02  0.12846007575E+03  0.77973036949E+02 0.  0.
          5    1    5    5  501    0  0.18742087414E+02 -0.87255020993E+02  0.25606970556E+01  0.89405546241E+02  0.47000000000E+01 0. -1.
        -11    1    6    6    0    0 -0.47993053281E+02 -0.21596440074E+02 -0.98884912212E+02  0.11201770061E+03  0.00000000000E+00 0.  1.
         12    1    6    6    0    0  0.86097405356E+01  0.13051879726E+02  0.50865021157E+01  0.16442375140E+02  0.00000000000E+00 0. -1.
         -5    1    3    3    0  503 -0.67575193089E+01 -0.38043104200E+02 -0.22175674045E+03  0.22514680495E+03  0.47000000000E+01 0.  1.
         13    1    4    4    0    0 -0.25243805516E+02  0.16145604871E+02 -0.19511042625E+03  0.19739809702E+03  0.00000000000E+00 0. -1.
        -14    1    4    4    0    0  0.52642550157E+02  0.11769708067E+03 -0.73559203830E+03  0.74680619152E+03  0.00000000000E+00 0.  1.
</event>
<event>
12    1  0.1030140E-001  0.1908016E+03  0.7818608E-02  0.1159072E+00
         21   -1    0    0  501  502  0.00000000000E+00  0.00000000000E+00  0.15680130123E+04  0.15680130123E+04  0.00000000000E+00 0.  1.
         21   -1    0    0  502  503 -0.00000000000E+00 -0.00000000000E+00 -0.27972982856E+02  0.27972982856E+02  0.00000000000E+00 0.  1.
         -6    2    1    2    0  503 -0.64932401263E+02 -0.37658415788E+02  0.42711025727E+03  0.46779100483E+03  0.17541630290E+03 0.  0.
        -24    2    3    3    0    0 -0.10357455327E+03 -0.55301422072E+02  0.26366855864E+03  0.29885382588E+03  0.77502032605E+02 0.  0.
          6    2    1    2  501    0  0.64932401263E+02  0.37658415788E+02  0.11129297721E+04  0.11281949903E+04  0.16904699165E+03 0.  0.
         24    2    5    5    0    0 -0.37780777817E+01  0.17365526898E+02  0.90310691445E+03  0.90642787623E+03  0.75455685536E+02 0.  0.
          5    1    5    5  501    0  0.68710479045E+02  0.20292888890E+02  0.20982285769E+03  0.22176711406E+03  0.47000000000E+01 0. -1.
        -13    1    6    6    0    0 -0.28841794111E+02  0.34601360952E+02  0.43265912543E+03  0.43499772653E+03  0.00000000000E+00 0.  1.
         14    1    6    6    0    0  0.25063716329E+02 -0.17235834054E+02  0.47044778902E+03  0.47143014970E+03  0.00000000000E+00 0. -1.
         -5    1    3    3    0  503  0.38642152005E+02  0.17643006285E+02  0.16344169863E+03  0.16893717895E+03  0.47000000000E+01 0.  1.
         13    1    4    4    0    0 -0.74453834742E+02 -0.19470393634E+02  0.22761471749E+03  0.24027261466E+03  0.00000000000E+00 0. -1.
        -14    1    4    4    0    0 -0.29120718526E+02 -0.35831028439E+02  0.36053841154E+02  0.58581211224E+02  0.00000000000E+00 0.  1.
</event>
<event>
12    1  0.1030140E-001  0.1932010E+03  0.7818608E-02  0.1156063E+00
         21   -1    0    0  503  502  0.00000000000E+00  0.00000000000E+00  0.96421608027E+02  0.96421608027E+02  0.00000000000E+00 0.  1.
         21   -1    0    0  501  503 -0.00000000000E+00 -0.00000000000E+00 -0.62159594835E+03  0.62159594835E+03  0.00000000000E+00 0.  1.
          6    2    1    2  501    0  0.35072694054E+02 -0.79693465918E+02 -0.48587709585E+03  0.52287969953E+03  0.17246879582E+03 0.  0.
         24    2    3    3    0    0  0.70978856932E+02  0.11359847861E+01 -0.27015397585E+03  0.28968191409E+03  0.76766868428E+02 0.  0.
         -6    2    1    2    0  502 -0.35072694054E+02  0.79693465918E+02 -0.39297244478E+02  0.19513785685E+03  0.17015689047E+03 0.  0.
        -24    2    5    5    0    0 -0.92998405658E+01 -0.10518288519E+02  0.16668113354E+02  0.85791563393E+02  0.82977375945E+02 0.  0.
          5    1    3    3  501    0 -0.35906162878E+02 -0.80829450704E+02 -0.21572311999E+03  0.23319778544E+03  0.47000000000E+01 0. -1.
        -11    1    4    4    0    0  0.65694300104E+02 -0.87477902073E+01 -0.10511981122E+03  0.12426761288E+03  0.00000000000E+00 0.  1.
         12    1    4    4    0    0  0.52845568278E+01  0.98837749934E+01 -0.16503416463E+03  0.16541430121E+03  0.00000000000E+00 0. -1.
         -5    1    5    5    0  502 -0.25772853488E+02  0.90211754437E+02 -0.55965357831E+02  0.10934629346E+03  0.47000000000E+01 0.  1.
         13    1    6    6    0    0 -0.42118102890E+02 -0.99830961494E+01 -0.88939476337E+01  0.44189355101E+02  0.00000000000E+00 0. -1.
        -14    1    6    6    0    0  0.32818262324E+02 -0.53519236998E+00  0.25562060988E+02  0.41602208292E+02  0.00000000000E+00 0.  1.
</event>
<event>
12    1  0.1030140E-001  0.3350870E+03  0.7818608E-02  0.1069194E+00
         21   -1    0    0  501  502  0.00000000000E+00  0.00000000000E+00  0.41630070250E+03  0.41630070250E+03  0.00000000000E+00 0.  1.
         21   -1    0    0  502  503 -0.00000000000E+00 -0.00000000000E+00 -0.43049956496E+03  0.43049956496E+03  0.00000000000E+00 0. -1.
         -6    2    1    2    0  503 -0.18946322423E+03  0.21612270896E+03 -0.26752777610E+03  0.42673020045E+03  0.16709941451E+03 0.  0.
        -24    2    3    3    0    0 -0.70409485197E+02  0.91088594910E+02 -0.19069696801E+03  0.23770008241E+03  0.82954010411E+02 0.  0.
          6    2    1    2  501    0  0.18946322423E+03 -0.21612270896E+03  0.25332891364E+03  0.42007006700E+03  0.17227299278E+03 0.  0.
         24    2    5    5    0    0  0.15875539891E+03 -0.23565422953E+03  0.20506966609E+03  0.35944419954E+03  0.80064799072E+02 0.  0.
          5    1    5    5  501    0  0.30707825319E+02  0.19531520573E+02  0.48259247550E+02  0.60625867464E+02  0.47000000000E+01 0. -1.
        -13    1    6    6    0    0  0.13044177138E+03 -0.22907645143E+03  0.19755096394E+03  0.32941988355E+03  0.00000000000E+00 0.  1.
         14    1    6    6    0    0  0.28313627529E+02 -0.65777780983E+01  0.75187021483E+01  0.30024315989E+02  0.00000000000E+00 0. -1.
         -5    1    3    3    0  503 -0.11905373904E+03  0.12503411405E+03 -0.76830808091E+02  0.18903011804E+03  0.47000000000E+01 0.  1.
         13    1    4    4    0    0 -0.41985984667E+02 -0.87749636283E+00 -0.84564814851E+02  0.94418222918E+02  0.00000000000E+00 0. -1.
        -14    1    4    4    0    0 -0.28423500530E+02  0.91966091273E+02 -0.10613215316E+03  0.14328185949E+03  0.00000000000E+00 0.  1.
</event>
<event>
12    1  0.1030140E-001  0.3004297E+03  0.7818608E-02  0.1085121E+00
         21   -1    0    0  503  502  0.00000000000E+00  0.00000000000E+00  0.68435276653E+03  0.68435276653E+03  0.00000000000E+00 0. -1.
         21   -1    0    0  501  503 -0.00000000000E+00 -0.00000000000E+00 -0.13338834210E+03  0.13338834210E+03  0.00000000000E+00 0.  1.
          6    2    1    2  501    0  0.24351686867E+03 -0.38715330886E+02  0.32374768388E+03  0.44166791711E+03  0.17163520621E+03 0.  0.
         24    2    3    3    0    0  0.77893804746E+02 -0.64805012600E+02  0.14090963966E+03  0.19354796383E+03  0.85663021665E+02 0.  0.
         -6    2    1    2    0  502 -0.24351686867E+03  0.38715330886E+02  0.22721674055E+03  0.37607319151E+03  0.17030635929E+03 0.  0.
        -24    2    5    5    0    0 -0.90420012985E+02  0.85832009983E+01  0.29992609218E+02  0.12454577660E+03  0.79766181895E+02 0.  0.
          5    1    3    3  501    0  0.16562306393E+03  0.26089681714E+02  0.18283804423E+03  0.24811995328E+03  0.47000000000E+01 0. -1.
        -11    1    4    4    0    0  0.18166893723E+02 -0.41120662112E+02  0.76413897676E+01  0.45599733745E+02  0.00000000000E+00 0.  1.
         12    1    4    4    0    0  0.59726911024E+02 -0.23684350488E+02  0.13326824989E+03  0.14794823009E+03  0.00000000000E+00 0. -1.
         -5    1    5    5    0  502 -0.15309685569E+03  0.30132129888E+02  0.19722413133E+03  0.25152741491E+03  0.47000000000E+01 0.  1.
         13    1    6    6    0    0 -0.10196546840E+03 -0.45879495476E+01  0.18872079527E+02  0.10379865805E+03  0.00000000000E+00 0. -1.
        -14    1    6    6    0    0  0.11545455418E+02  0.13171150546E+02  0.11120529691E+02  0.20747118550E+02  0.00000000000E+00 0.  1.
</event>
<event>
12    1  0.1030140E-001  0.1802071E+03  0.7818608E-02  0.1168179E+00
         21   -1    0    0  501  502  0.00000000000E+00  0.00000000000E+00  0.28030867339E+02  0.28030867339E+02  0.00000000000E+00 0.  1.
         21   -1    0    0  502  503 -0.00000000000E+00 -0.00000000000E+00 -0.11433605035E+04  0.11433605035E+04  0.00000000000E+00 0.  1.
         -6    2    1    2    0  503  0.13740327335E+02  0.41586489381E+02 -0.55188697536E+03  0.57983221779E+03  0.17235989824E+03 0.  0.
        -24    2    3    3    0    0 -0.40227014602E+02 -0.52931503700E+01 -0.18905493431E+03  0.20999528801E+03  0.81914727943E+02 0.  0.
          6    2    1    2  501    0 -0.13740327335E+02 -0.41586489381E+02 -0.56344266079E+03  0.59155915304E+03  0.17480379530E+03 0.  0.
         24    2    5    5    0    0 -0.27005839974E+02 -0.18104026469E+02 -0.55638848745E+03  0.56328812102E+03  0.81659580839E+02 0.  0.
          5    1    5    5  501    0  0.13265512640E+02 -0.23482462913E+02 -0.70541733384E+01  0.28271032021E+02  0.47000000000E+01 0. -1.
        -11    1    6    6    0    0 -0.47243502429E+02 -0.24772873491E+02 -0.22588342850E+03  0.23209689152E+03  0.00000000000E+00 0.  1.
         12    1    6    6    0    0  0.20237662455E+02  0.66688470228E+01 -0.33050505895E+03  0.33119122950E+03  0.00000000000E+00 0. -1.
         -5    1    3    3    0  503  0.53967341936E+02  0.46879639751E+02 -0.36283204104E+03  0.36983692978E+03  0.47000000000E+01 0.  1.
         11    1    4    4    0    0 -0.16735023784E+02 -0.17272123407E+02 -0.18075813061E+03  0.18235100507E+03  0.00000000000E+00 0. -1.
        -12    1    4    4    0    0 -0.23491990818E+02  0.11978973037E+02 -0.82968037013E+01  0.27644282940E+02  0.00000000000E+00 0.  1.
</event>
<event>
12    1  0.1030140E-001  0.1782983E+03  0.7818608E-02  0.1169497E+00
         21   -1    0    0  503  502  0.00000000000E+00  0.00000000000E+00  0.47853136405E+03  0.47853136405E+03  0.00000000000E+00 0.  1.
         21   -1    0    0  501  503 -0.00000000000E+00 -0.00000000000E+00 -0.43139729531E+03  0.43139729531E+03  0.00000000000E+00 0.  1.
          6    2    1    2  501    0 -0.39782417196E+02 -0.23663565031E+02 -0.39493642936E+03  0.43325624088E+03  0.17202785239E+03 0.  0.
         24    2    3    3    0    0 -0.67397158404E+02  0.27377685655E+02 -0.32346661034E+03  0.34107268359E+03  0.80050064674E+02 0.  0.
         -6    2    1    2    0  502  0.39782417196E+02  0.23663565031E+02  0.44207049810E+03  0.47667241849E+03  0.17218497098E+03 0.  0.
        -24    2    5    5    0    0 -0.24058777225E+02 -0.15082607318E+01  0.11617115648E+03  0.14359316398E+03  0.80883617202E+02 0.  0.
          5    1    3    3  501    0  0.27614741208E+02 -0.51041250686E+02 -0.71469819016E+02  0.92183557285E+02  0.47000000000E+01 0. -1.
        -13    1    4    4    0    0 -0.35418320463E+02 -0.10869053053E+02 -0.24717502050E+03  0.24993616085E+03  0.00000000000E+00 0.  1.
         14    1    4    4    0    0 -0.31978837941E+02  0.38246738708E+02 -0.76291589838E+02  0.91136522744E+02  0.00000000000E+00 0. -1.
         -5    1    5    5    0  502  0.63841194421E+02  0.25171825763E+02  0.32589934161E+03  0.33307925451E+03  0.47000000000E+01 0.  1.
         13    1    6    6    0    0  0.15437050613E+02 -0.31252991834E+02  0.51469282931E+02  0.62162200055E+02  0.00000000000E+00 0. -1.
        -14    1    6    6    0    0 -0.39495827838E+02  0.29744731102E+02  0.64701873551E+02  0.81430963926E+02  0.00000000000E+00 0.  1.
</event>
<event>
12    1  0.1030140E-001  0.1838188E+03  0.7818608E-02  0.1165896E+00
         21   -1    0    0  501  502  0.00000000000E+00  0.00000000000E+00  0.64649407038E+03  0.64649407038E+03  0.00000000000E+00 0.  1.
         21   -1    0    0  502  503 -0.00000000000E+00 -0.00000000000E+00 -0.14518640387E+03  0.14518640387E+03  0.00000000000E+00 0.  1.
         -6    2    1    2    0  503  0.19736267573E+02 -0.34665722242E+02 -0.71186999267E+02  0.19039894385E+03  0.17202597594E+03 0.  0.
        -24    2    3    3    0    0 -0.28062146486E+02  0.24327616842E+02 -0.31667241266E+01  0.88351159585E+02  0.80103572028E+02 0.  0.
          6    2    1    2  501    0 -0.19736267573E+02  0.34665722242E+02  0.57249466577E+03  0.60128153040E+03  0.17943830112E+03 0.  0.
         24    2    5    5    0    0  0.43849463982E+02  0.58009970687E+02  0.26184893659E+03  0.28330203695E+03  0.80045276937E+02 0.  0.
          5    1    5    5  501    0 -0.63585731556E+02 -0.23344248445E+02  0.31064572919E+03  0.31797949345E+03  0.47000000000E+01 0. -1.
        -13    1    6    6    0    0  0.41749327571E+02 -0.37292835703E+01  0.14742018217E+03  0.15326325072E+03  0.00000000000E+00 0.  1.
         14    1    6    6    0    0  0.21001364112E+01  0.61739254257E+02  0.11442875441E+03  0.13003878624E+03  0.00000000000E+00 0. -1.
         -5    1    3    3    0  503  0.47798414059E+02 -0.58993339084E+02 -0.68020275141E+02  0.10204778426E+03  0.47000000000E+01 0.  1.
         13    1    4    4    0    0 -0.16999669086E+02  0.46817171789E+02 -0.24436245701E+02  0.55479423459E+02  0.00000000000E+00 0. -1.
        -14    1    4    4    0    0 -0.11062477400E+02 -0.22489554947E+02  0.21269521575E+02  0.32871736126E+02  0.00000000000E+00 0.  1.
</event>
<event>
12    1  0.1030140E-001  0.2134016E+03  0.7818608E-02  0.1139474E+00
         21   -1    0    0  503  502  0.00000000000E+00  0.00000000000E+00  0.19206491801E+03  0.19206491801E+03  0.00000000000E+00 0. -1.
         21   -1    0    0  501  503 -0.00000000000E+00 -0.00000000000E+00 -0.33716015666E+03  0.33716015666E+03  0.00000000000E+00 0. -1.
          6    2    1    2  501    0  0.31105950682E+00  0.12124682767E+03 -0.21866816936E+03  0.30349685169E+03  0.17202813932E+03 0.  0.
         24    2    3    3    0    0  0.56293245875E+02  0.47147603126E+02 -0.16278172890E+03  0.19500683143E+03  0.78345051085E+02 0.  0.
         -6    2    1    2    0  502 -0.31105950682E+00 -0.12124682767E+03  0.73572930707E+02  0.22572822297E+03  0.17561140206E+03 0.  0.
        -24    2    5    5    0    0 -0.19363846627E+02 -0.73499063157E+01  0.51552456991E+01  0.91420415999E+02  0.88893960561E+02 0.  0.
          5    1    3    3  501    0 -0.55982186369E+02  0.74099224546E+02 -0.55886440461E+02  0.10849002026E+03  0.47000000000E+01 0. -1.
        -11    1    4    4    0    0  0.27771278267E+02 -0.18562331125E+02 -0.71962946600E+02  0.79337694173E+02  0.00000000000E+00 0.  1.
         12    1    4    4    0    0  0.28521967609E+02  0.65709934251E+02 -0.90818782296E+02  0.11566913726E+03  0.00000000000E+00 0. -1.
         -5    1    5    5    0  502  0.19052787120E+02 -0.11389692136E+03  0.68417685008E+02  0.13430780697E+03  0.47000000000E+01 0.  1.
         13    1    6    6    0    0 -0.29185400996E+01 -0.47645276822E+02  0.36123529441E+01  0.47871070320E+02  0.00000000000E+00 0. -1.
        -14    1    6    6    0    0 -0.16445306528E+02  0.40295370507E+02  0.15428927550E+01  0.43549345679E+02  0.00000000000E+00 0.  1.
</event>
<event>
12    1  0.1030140E-001  0.1791735E+03  0.7818608E-02  0.1168765E+00
         21   -1    0    0  501  502  0.00000000000E+00  0.00000000000E+00  0.77141911455E+02  0.77141911455E+02  0.00000000000E+00 0.  1.
         21   -1    0    0  502  503 -0.00000000000E+00 -0.00000000000E+00 -0.41511917539E+03  0.41511917539E+03  0.00000000000E+00 0.  1.
         -6    2    1    2    0  503 -0.38330502117E+02  0.32093549023E+02 -0.16026721474E+03  0.23990419307E+03  0.17137449766E+03 0.  0.
        -24    2    3    3    0    0  0.22899784024E+02 -0.16151486145E+02 -0.35283520932E+02  0.92527990522E+02  0.80816035337E+02 0.  0.
          6    2    1    2  501    0  0.38330502117E+02 -0.32093549023E+02 -0.17771004920E+03  0.25235689378E+03  0.17205788843E+03 0.  0.
         24    2    5    5    0    0  0.39794445809E+02 -0.72982897223E+02 -0.17761677315E+03  0.21117218026E+03  0.78331796890E+02 0.  0.
          5    1    5    5  501    0 -0.14639436920E+01  0.40889348201E+02 -0.93276041015E-01  0.41184713521E+02  0.47000000000E+01 0. -1.
        -13    1    6    6    0    0  0.59959930867E+02 -0.71822437313E+02 -0.15286915731E+03  0.17922788586E+03  0.00000000000E+00 0.  1.
         14    1    6    6    0    0 -0.20165485058E+02 -0.11604599110E+01 -0.24747615844E+02  0.31944294401E+02  0.00000000000E+00 0. -1.
         -5    1    3    3    0  503 -0.61230286141E+02  0.48245035168E+02 -0.12498369380E+03  0.14737620254E+03  0.47000000000E+01 0.  1.
         11    1    4    4    0    0  0.20311223075E+02  0.25642440914E+02  0.65238733863E+01  0.33356281010E+02  0.00000000000E+00 0. -1.
        -12    1    4    4    0    0  0.25885609491E+01 -0.41793927059E+02 -0.41807394319E+02  0.59171709512E+02  0.00000000000E+00 0.  1.
</event>
<event>
12    1  0.1030140E-001  0.2035584E+03  0.7818608E-02  0.1146933E+00
         21   -1    0    0  503  502  0.00000000000E+00  0.00000000000E+00  0.32966430257E+03  0.32966430257E+03  0.00000000000E+00 0. -1.
         21   -1    0    0  501  503 -0.00000000000E+00 -0.00000000000E+00 -0.25463437201E+03  0.25463437201E+03  0.00000000000E+00 0.  1.
          6    2    1    2  501    0  0.10315085661E+03  0.32988674256E+02 -0.17073482055E+03  0.26568099139E+03  0.17235909720E+03 0.  0.
         24    2    3    3    0    0  0.40444660831E+02  0.83592346507E+02 -0.99805966615E+02  0.15822964912E+03  0.80323968431E+02 0.  0.
         -6    2    1    2    0  502 -0.10315085661E+03 -0.32988674256E+02  0.24576475111E+03  0.31861768319E+03  0.17143092866E+03 0.  0.
        -24    2    5    5    0    0 -0.11574557380E+03 -0.35751375603E+02  0.26102301458E+03  0.29809540203E+03  0.77798816585E+02 0.  0.
          5    1    3    3  501    0  0.62706195784E+02 -0.50603672251E+02 -0.70928853933E+02  0.10745134227E+03  0.47000000000E+01 0. -1.
        -11    1    4    4    0    0  0.29001211636E+02 -0.82774648900E+01 -0.22744195456E+02  0.37774133059E+02  0.00000000000E+00 0.  1.
         12    1    4    4    0    0  0.11443449195E+02  0.91869811397E+02 -0.77061771158E+02  0.12045551606E+03  0.00000000000E+00 0. -1.
         -5    1    5    5    0  502  0.12594717184E+02  0.27627013466E+01 -0.15258263469E+02  0.20522281154E+02  0.47000000000E+01 0.  1.
         11    1    6    6    0    0 -0.81382948658E+02 -0.42208224785E+02  0.11056939780E+03  0.14363255307E+03  0.00000000000E+00 0. -1.
        -12    1    6    6    0    0 -0.34362625141E+02  0.64568491825E+01  0.15045361678E+03  0.15446284896E+03  0.00000000000E+00 0.  1.
</event>
<event>
12    1  0.1030140E-001  0.2059671E+03  0.7818608E-02  0.1145223E+00
         21   -1    0    0  503  502  0.00000000000E+00  0.00000000000E+00  0.33220460778E+03  0.33220460778E+03  0.00000000000E+00 0. -1.
         21   -1    0    0  501  503 -0.00000000000E+00 -0.00000000000E+00 -0.22169122562E+03  0.22169122562E+03  0.00000000000E+00 0. -1.
          6    2    1    2  501    0 -0.90271672378E+02  0.67006228760E+02 -0.12645669640E+03  0.23992567574E+03  0.17010062988E+03 0.  0.
         24    2    3    3    0    0 -0.83424836202E+01  0.78997762602E+02 -0.35231273407E+02  0.11663594926E+03  0.77797548196E+02 0.  0.
         -6    2    1    2    0  502  0.90271672378E+02 -0.67006228760E+02  0.23697007855E+03  0.31397015767E+03  0.17257935059E+03 0.  0.
        -24    2    5    5    0    0  0.11220226924E+03 -0.96519165748E+02  0.20946484614E+03  0.26781181781E+03  0.77086635731E+02 0.  0.
          5    1    3    3  501    0 -0.81929188758E+02 -0.11991533841E+02 -0.91225422989E+02  0.12328972647E+03  0.47000000000E+01 0. -1.
        -11    1    4    4    0    0  0.19763921182E+02  0.48420042442E+02 -0.50195828990E+02  0.72489546409E+02  0.00000000000E+00 0.  1.
         12    1    4    4    0    0 -0.28106404802E+02  0.30577720160E+02  0.14964555583E+02  0.44146402853E+02  0.00000000000E+00 0. -1.
         -5    1    5    5    0  502 -0.21930596865E+02  0.29512936987E+02  0.27505232410E+02  0.46158339858E+02  0.47000000000E+01 0.  1.
         13    1    6    6    0    0  0.35004211335E+02 -0.69255288114E+02  0.62733444666E+02  0.99785143296E+02  0.00000000000E+00 0. -1.
        -14    1    6    6    0    0  0.77198057908E+02 -0.27263877634E+02  0.14673140148E+03  0.16802667451E+03  0.00000000000E+00 0.  1.
</event>
<event>
12    1  0.1030140E-001  0.1937520E+03  0.7818608E-02  0.1155350E+00
         21   -1    0    0  501  502  0.00000000000E+00  0.00000000000E+00  0.11755989245E+04  0.11755989245E+04  0.00000000000E+00 0.  1.
         21   -1    0    0  502  503 -0.00000000000E+00 -0.00000000000E+00 -0.87256629724E+02  0.87256629724E+02  0.00000000000E+00 0. -1.
         -6    2    1    2    0  503 -0.22928931941E+02  0.83709044491E+02  0.40076123413E+02  0.19683407874E+03  0.17205992804E+03 0.  0.
        -24    2    3    3    0    0  0.13584378746E+01 -0.15482092889E+01  0.66235561425E+02  0.10428635131E+03  0.80524848135E+02 0.  0.
          6    2    1    2  501    0  0.22928931941E+02 -0.83709044491E+02  0.10482661714E+04  0.10660214755E+04  0.17322494081E+03 0.  0.
         24    2    5    5    0    0  0.78504557730E+02 -0.73705753740E+02  0.66376642417E+03  0.67736885218E+03  0.81530315424E+02 0.  0.
          5    1    5    5  501    0 -0.55575625789E+02 -0.10003290751E+02  0.38449974719E+03  0.38865262330E+03  0.47000000000E+01 0. -1.
        -11    1    6    6    0    0 -0.43793342291E+01 -0.17403284451E+02  0.28528459122E+03  0.28584847536E+03  0.00000000000E+00 0.  1.
         12    1    6    6    0    0  0.82883891959E+02 -0.56302469290E+02  0.37848183295E+03  0.39152037682E+03  0.00000000000E+00 0. -1.
         -5    1    3    3    0  503 -0.24287369815E+02  0.85257253780E+02 -0.26159438012E+02  0.92547727427E+02  0.47000000000E+01 0.  1.
         11    1    4    4    0    0  0.19539837733E+02  0.13134625613E+02 -0.92272895305E+01  0.25287675273E+02  0.00000000000E+00 0. -1.
        -12    1    4    4    0    0 -0.18181399859E+02 -0.14682834902E+02  0.75462850956E+02  0.78998676039E+02  0.00000000000E+00 0.  1.
</event>
<event>
12    1  0.1030140E-001  0.2090817E+03  0.7818608E-02  0.1144223E+00
         21   -1    0    0  501  502  0.00000000000E+00  0.00000000000E+00  0.60701792746E+03  0.60701792746E+03  0.00000000000E+00 0.  1.
         21   -1    0    0  502  503 -0.00000000000E+00 -0.00000000000E+00 -0.16675207246E+03  0.16675207246E+03  0.00000000000E+00 0. -1.
         -6    2    1    2    0  503 -0.33503090433E+02  0.95524375777E+02 -0.74255212526E+02  0.22187605873E+03  0.18294202747E+03 0.  0.
        -24    2    3    3    0    0  0.39586297410E+02  0.26299400192E+02  0.79573846222E+01  0.91817775679E+02  0.78156577250E+02 0.  0.
          6    2    1    2  501    0  0.33503090433E+02 -0.95524375777E+02  0.51452106753E+03  0.55189394119E+03  0.17206867802E+03 0.  0.
         24    2    5    5    0    0 -0.33947421366E+02 -0.55483866828E+02  0.39721275502E+03  0.41069853021E+03  0.81635917755E+02 0.  0.
          5    1    5    5  501    0  0.67450511799E+02 -0.40040508949E+02  0.11730831250E+03  0.14119541098E+03  0.47000000000E+01 0. -1.
        -13    1    6    6    0    0 -0.24131576690E+02  0.67226511735E+01  0.34936982816E+02  0.42989763906E+02  0.00000000000E+00 0.  1.
         14    1    6    6    0    0 -0.98158446756E+01 -0.62206518002E+02  0.36227577221E+03  0.36770876630E+03  0.00000000000E+00 0. -1.
         -5    1    3    3    0  503 -0.73089387844E+02  0.69224975585E+02 -0.82212597149E+02  0.13005828305E+03  0.47000000000E+01 0.  1.
         13    1    4    4    0    0 -0.15480106854E+02  0.31343587501E+02  0.10384197069E+02  0.36467598418E+02  0.00000000000E+00 0. -1.
        -14    1    4    4    0    0  0.55066404264E+02 -0.50441873084E+01 -0.24268124470E+01  0.55350177261E+02  0.00000000000E+00 0.  1.
</event>
<event>
12    1  0.1030140E-001  0.2421402E+03  0.7818608E-02  0.1118553E+00
         21   -1    0    0  503  502  0.00000000000E+00  0.00000000000E+00  0.63999527016E+03  0.63999527016E+03  0.00000000000E+00 0. -1.
         21   -1    0    0  501  503 -0.00000000000E+00 -0.00000000000E+00 -0.12962710293E+03  0.12962710293E+03  0.00000000000E+00 0.  1.
          6    2    1    2  501    0 -0.17186620233E+03 -0.51717230998E+01  0.46084226472E+02  0.24648653277E+03  0.17049081114E+03 0.  0.
         24    2    3    3    0    0 -0.99089871694E+02 -0.68338745435E+02  0.39172514664E+02  0.14975841497E+03  0.80025684316E+02 0.  0.
         -6    2    1    2    0  502  0.17186620233E+03  0.51717230998E+01  0.46428394076E+03  0.52313584032E+03  0.16895795796E+03 0.  0.
        -24    2    5    5    0    0  0.11367606021E+03  0.17401331008E+02  0.43453944018E+03  0.45648389913E+03  0.79548551886E+02 0.  0.
          5    1    3    3  501    0 -0.72776330639E+02  0.63167022335E+02  0.69117118081E+01  0.96728117795E+02  0.47000000000E+01 0. -1.
        -11    1    4    4    0    0 -0.63935181473E+02 -0.30263713335E+02 -0.17597640865E+02  0.72892226875E+02  0.00000000000E+00 0.  1.
         12    1    4    4    0    0 -0.35154690221E+02 -0.38075032100E+02  0.56770155529E+02  0.76866188098E+02  0.00000000000E+00 0. -1.
         -5    1    5    5    0  502  0.58190142125E+02 -0.12229607908E+02  0.29744500579E+02  0.66651941193E+02  0.47000000000E+01 0.  1.
         11    1    6    6    0    0  0.77034416913E+02 -0.18874965229E+02  0.17884906272E+03  0.19564649993E+03  0.00000000000E+00 0. -1.
        -12    1    6    6    0    0  0.36641643295E+02  0.36276296237E+02  0.25569037746E+03  0.26083739919E+03  0.00000000000E+00 0.  1.
</event>
<event>
12    1  0.1030140E-001  0.2080121E+03  0.7818608E-02  0.1143929E+00
         21   -1    0    0  501  502  0.00000000000E+00  0.00000000000E+00  0.13754834216E+03  0.13754834216E+03  0.00000000000E+00 0.  1.
         21   -1    0    0  502  503 -0.00000000000E+00 -0.00000000000E+00 -0.32224984436E+03  0.32224984436E+03  0.00000000000E+00 0.  1.
         -6    2    1    2    0  503 -0.93580059233E+02  0.67429102861E+02 -0.14017309178E+03  0.25083364581E+03  0.17310433504E+03 0.  0.
        -24    2    3    3    0    0 -0.12741959323E+03  0.54627365026E+02 -0.76146439783E+02  0.17714171464E+03  0.79755909027E+02 0.  0.
          6    2    1    2  501    0  0.93580059233E+02 -0.67429102861E+02 -0.44528410413E+02  0.20896454072E+03  0.16846212792E+03 0.  0.
         24    2    5    5    0    0  0.43215785513E+02  0.29201333861E+02 -0.24639189276E+02  0.98096725342E+02  0.79344538929E+02 0.  0.
          5    1    5    5  501    0  0.50364273720E+02 -0.96630436722E+02 -0.19889221137E+02  0.11086781537E+03  0.47000000000E+01 0. -1.
        -11    1    6    6    0    0 -0.18917005942E+02  0.80436495402E+01 -0.25119869210E+02  0.32458608116E+02  0.00000000000E+00 0.  1.
         12    1    6    6    0    0  0.62132791455E+02  0.21157684321E+02  0.48067993390E+00  0.65638117226E+02  0.00000000000E+00 0. -1.
         -5    1    3    3    0  503  0.33839533999E+02  0.12801737835E+02 -0.64026651999E+02  0.73691931167E+02  0.47000000000E+01 0.  1.
         11    1    4    4    0    0 -0.17401712716E+02  0.53633682879E+00 -0.48412567565E+02  0.51447876155E+02  0.00000000000E+00 0. -1.
        -12    1    4    4    0    0 -0.11001788052E+03  0.54091028197E+02 -0.27733872218E+02  0.12569383848E+03  0.00000000000E+00 0.  1.
</event>
<event>
12    1  0.1030140E-001  0.1837015E+03  0.7818608E-02  0.1164693E+00
         21   -1    0    0  501  502  0.00000000000E+00  0.00000000000E+00  0.74202461843E+03  0.74202461843E+03  0.00000000000E+00 0. -1.
         21   -1    0    0  502  503 -0.00000000000E+00 -0.00000000000E+00 -0.45217536163E+02  0.45217536163E+02  0.00000000000E+00 0. -1.
         -6    2    1    2    0  503 -0.78194534729E+01  0.61842895383E+02  0.32175074570E+03  0.36961373635E+03  0.17089495071E+03 0.  0.
        -24    2    3    3    0    0 -0.65670205346E+02  0.10946917989E+02  0.18214195332E+03  0.21008375510E+03  0.80790359042E+02 0.  0.
          6    2    1    2  501    0  0.78194534729E+01 -0.61842895383E+02  0.37505633656E+03  0.41762841824E+03  0.17280206181E+03 0.  0.
         24    2    5    5    0    0 -0.35700357977E+02 -0.10374230588E+02  0.31561875214E+03  0.32764000851E+03  0.79690891904E+02 0.  0.
          5    1    5    5  501    0  0.43519811450E+02 -0.51468664795E+02  0.59437584425E+02  0.89988409736E+02  0.47000000000E+01 0. -1.
        -11    1    6    6    0    0 -0.29242648390E+02  0.32989137627E+02  0.15571871904E+03  0.16183860832E+03  0.00000000000E+00 0.  1.
         12    1    6    6    0    0 -0.64577095873E+01 -0.43363368214E+02  0.15990003310E+03  0.16580140018E+03  0.00000000000E+00 0. -1.
         -5    1    3    3    0  503  0.57850751873E+02  0.50895977394E+02  0.13960879239E+03  0.15952998125E+03  0.47000000000E+01 0.  1.
         13    1    4    4    0    0  0.96285805531E+01  0.92911042225E+01  0.90403715593E+02  0.91388543999E+02  0.00000000000E+00 0. -1.
        -14    1    4    4    0    0 -0.75298785899E+02  0.16558137662E+01  0.91738237723E+02  0.11869521110E+03  0.00000000000E+00 0.  1.
</event>
<event>
12    1  0.1030140E-001  0.2614549E+03  0.7818608E-02  0.1107011E+00
         21   -1    0    0  501  502  0.00000000000E+00  0.00000000000E+00  0.30868840742E+02  0.30868840742E+02  0.00000000000E+00 0.  1.
         21   -1    0    0  502  503 -0.00000000000E+00 -0.00000000000E+00 -0.21829054406E+04  0.21829054406E+04  0.00000000000E+00 0. -1.
         -6    2    1    2    0  503  0.19722003341E+03 -0.83687439771E+00 -0.11602504715E+04  0.11893442738E+04  0.17164557371E+03 0.  0.
        -24    2    3    3    0    0  0.35811692123E+02 -0.34475579500E+02 -0.26366288607E+03  0.27771079288E+03  0.71652802567E+02 0.  0.
          6    2    1    2  501    0 -0.19722003341E+03  0.83687439771E+00 -0.99178612835E+03  0.10244300076E+04  0.16407520865E+03 0.  0.
         24    2    5    5    0    0 -0.21792393704E+03  0.77694174479E+01 -0.90680318481E+03  0.93656134154E+03  0.85462999571E+02 0.  0.
          5    1    5    5  501    0  0.20703903627E+02 -0.69325430502E+01 -0.84982943534E+02  0.87868666032E+02  0.47000000000E+01 0. -1.
        -13    1    6    6    0    0 -0.64983270104E+02  0.13265141718E+02 -0.14374977692E+03  0.15831231077E+03  0.00000000000E+00 0.  1.
         14    1    6    6    0    0 -0.15294066694E+03 -0.54957242699E+01 -0.76305340790E+03  0.77824903077E+03  0.00000000000E+00 0. -1.
         -5    1    3    3    0  503  0.16140834129E+03  0.33638705103E+02 -0.89658758544E+03  0.91163348089E+03  0.47000000000E+01 0.  1.
         11    1    4    4    0    0  0.31149796748E+02 -0.56396117366E+02 -0.20627242545E+03  0.21609985052E+03  0.00000000000E+00 0. -1.
        -12    1    4    4    0    0  0.46618953758E+01  0.21920537865E+02 -0.57390460622E+02  0.61610942366E+02  0.00000000000E+00 0.  1.
</event>
<event>
12    1  0.1030140E-001  0.2114268E+03  0.7818608E-02  0.1140511E+00
         21   -1    0    0  503  502  0.00000000000E+00  0.00000000000E+00  0.37356441194E+03  0.37356441194E+03  0.00000000000E+00 0. -1.
         21   -1    0    0  501  503 -0.00000000000E+00 -0.00000000000E+00 -0.12768728289E+03  0.12768728289E+03  0.00000000000E+00 0. -1.
          6    2    1    2  501    0  0.15928784250E+02 -0.12101300217E+03  0.59420777792E+02  0.21961810034E+03  0.17263663661E+03 0.  0.
         24    2    3    3    0    0 -0.47005719992E+02 -0.79246515580E+02  0.97613444659E+01  0.12910102712E+03  0.89901298171E+02 0.  0.
         -6    2    1    2    0  502 -0.15928784250E+02  0.12101300217E+03  0.18645635125E+03  0.28163359450E+03  0.17220231637E+03 0.  0.
        -24    2    5    5    0    0  0.24295015245E+02  0.13969240742E+03  0.12784929483E+03  0.20798747248E+03  0.82517453083E+02 0.  0.
          5    1    3    3  501    0  0.62934504242E+02 -0.41766486592E+02  0.49659433326E+02  0.90517073222E+02  0.47000000000E+01 0. -1.
        -13    1    4    4    0    0  0.57257192229E+01 -0.38706662110E+02 -0.32014512568E+02  0.50556093275E+02  0.00000000000E+00 0.  1.
         14    1    4    4    0    0 -0.52731439215E+02 -0.40539853470E+02  0.41775857034E+02  0.78544933840E+02  0.00000000000E+00 0. -1.
         -5    1    5    5    0  502 -0.40223799495E+02 -0.18679405244E+02  0.58607056426E+02  0.73646122022E+02  0.47000000000E+01 0.  1.
         13    1    6    6    0    0  0.30811866849E+02  0.36449589677E+02  0.59309424920E+01  0.48094904150E+02  0.00000000000E+00 0. -1.
        -14    1    6    6    0    0 -0.65168516036E+01  0.10324281774E+03  0.12191835234E+03  0.15989256833E+03  0.00000000000E+00 0.  1.
</event>
<event>
12    1  0.1030140E-001  0.2708375E+03  0.7818608E-02  0.1100968E+00
         21   -1    0    0  503  502  0.00000000000E+00  0.00000000000E+00  0.36047549732E+03  0.36047549732E+03  0.00000000000E+00 0.  1.
         21   -1    0    0  501  503 -0.00000000000E+00 -0.00000000000E+00 -0.25925941984E+03  0.25925941984E+03  0.00000000000E+00 0.  1.
          6    2    1    2  501    0 -0.19807263972E+03 -0.67259167193E+02 -0.94321728456E+02  0.28568700319E+03  0.17018786430E+03 0.  0.
         24    2    3    3    0    0 -0.18149286528E+03 -0.25524671739E+02 -0.12175237597E+03  0.23285531332E+03  0.76202276040E+02 0.  0.
         -6    2    1    2    0  502  0.19807263972E+03  0.67259167193E+02  0.19553780593E+03  0.33404791397E+03  0.17203606919E+03 0.  0.
        -24    2    5    5    0    0  0.10910713687E+03  0.95672721078E+02  0.71328804535E+02  0.17857393940E+03  0.75784012835E+02 0.  0.
          5    1    3    3  501    0 -0.16579774448E+02 -0.41734495455E+02  0.27430647512E+02  0.52831689870E+02  0.47000000000E+01 0. -1.
        -13    1    4    4    0    0 -0.10235990029E+02 -0.25021224085E+02 -0.13119001197E+02  0.30049048887E+02  0.00000000000E+00 0.  1.
         14    1    4    4    0    0 -0.17125687525E+03 -0.50344765348E+00 -0.10863337477E+03  0.20280626443E+03  0.00000000000E+00 0. -1.
         -5    1    5    5    0  502  0.88965502851E+02 -0.28413553885E+02  0.12420900140E+03  0.15547397457E+03  0.47000000000E+01 0.  1.
         13    1    6    6    0    0  0.61091298165E+02  0.76861461289E+01  0.14155204867E+02  0.63179058070E+02  0.00000000000E+00 0. -1.
        -14    1    6    6    0    0  0.48015838708E+02  0.87986574949E+02  0.57173599669E+02  0.11539488133E+03  0.00000000000E+00 0.  1.
</event>
<event>
12    1  0.1030140E-001  0.2233470E+03  0.7818608E-02  0.1131928E+00
         21   -1    0    0  503  502  0.00000000000E+00  0.00000000000E+00  0.21004167306E+03  0.21004167306E+03  0.00000000000E+00 0. -1.
         21   -1    0    0  501  503 -0.00000000000E+00 -0.00000000000E+00 -0.26560587776E+03  0.26560587776E+03  0.00000000000E+00 0.  1.
          6    2    1    2  501    0 -0.80526473043E+02 -0.11458775941E+03 -0.10929368064E+03  0.24865433528E+03  0.17397989067E+03 0.  0.
         24    2    3    3    0    0 -0.75757683547E+02 -0.13035870890E+03 -0.13351545310E+03  0.21898535380E+03  0.85997612537E+02 0.  0.
         -6    2    1    2    0  502  0.80526473043E+02  0.11458775941E+03  0.53729475932E+02  0.22699321554E+03  0.17036489031E+03 0.  0.
        -24    2    5    5    0    0  0.26377273999E+02  0.40080726203E+02  0.90792940526E+02  0.12759892918E+03  0.75735747709E+02 0.  0.
          5    1    3    3  501    0 -0.47687894957E+01  0.15770949490E+02  0.24221772455E+02  0.29668981478E+02  0.47000000000E+01 0. -1.
        -13    1    4    4    0    0 -0.17938631415E+02 -0.63650778837E+02 -0.10878596997E+03  0.12730908611E+03  0.00000000000E+00 0.  1.
         14    1    4    4    0    0 -0.57819052132E+02 -0.66707930062E+02 -0.24729483128E+02  0.91676267694E+02  0.00000000000E+00 0. -1.
         -5    1    5    5    0  502  0.54149199043E+02  0.74507033205E+02 -0.37063464594E+02  0.99394286364E+02  0.47000000000E+01 0.  1.
         11    1    6    6    0    0 -0.12993197150E+02  0.38869114391E+02  0.17853084358E+02  0.44703063059E+02  0.00000000000E+00 0. -1.
        -12    1    6    6    0    0  0.39370471149E+02  0.12116118122E+01  0.72939856167E+02  0.82895866118E+02  0.00000000000E+00 0.  1.
</event>
<event>
12    1  0.1030140E-001  0.2082118E+03  0.7818608E-02  0.1143050E+00
         21   -1    0    0  501  502  0.00000000000E+00  0.00000000000E+00  0.11700510422E+04  0.11700510422E+04  0.00000000000E+00 0.  1.
         21   -1    0    0  502  503 -0.00000000000E+00 -0.00000000000E+00 -0.39093143079E+02  0.39093143079E+02  0.00000000000E+00 0. -1.
         -6    2    1    2    0  503  0.89602934906E+02  0.75440926944E+02  0.70504087815E+03  0.73505828389E+03  0.17177899014E+03 0.  0.
        -24    2    3    3    0    0  0.45198275507E+02  0.11306567042E+03  0.55678267907E+03  0.57571595213E+03  0.81333731534E+02 0.  0.
          6    2    1    2  501    0 -0.89602934906E+02 -0.75440926944E+02  0.42591702098E+03  0.47408590140E+03  0.17213980870E+03 0.  0.
         24    2    5    5    0    0 -0.28286740423E+01 -0.57151547798E+02  0.32674582073E+03  0.34096456315E+03  0.78865081912E+02 0.  0.
          5    1    5    5  501    0 -0.86774260863E+02 -0.18289379146E+02  0.99171200251E+02  0.13312133825E+03  0.47000000000E+01 0. -1.
        -13    1    6    6    0    0 -0.21396353482E+02 -0.31600729444E+02  0.29004108873E+03  0.29254101114E+03  0.00000000000E+00 0.  1.
         14    1    6    6    0    0  0.18567679440E+02 -0.25550818354E+02  0.36704731999E+02  0.48423552012E+02  0.00000000000E+00 0. -1.
         -5    1    3    3    0  503  0.44404659398E+02 -0.37624743476E+02  0.14825819908E+03  0.15934233176E+03  0.47000000000E+01 0.  1.
         11    1    4    4    0    0  0.28149762957E+02  0.74977546642E+02  0.18490239986E+03  0.20150170999E+03  0.00000000000E+00 0. -1.
        -12    1    4    4    0    0  0.17048512550E+02  0.38088123778E+02  0.37188027921E+03  0.37421424214E+03  0.00000000000E+00 0.  1.
</event>
<event>
12    1  0.1030140E-001  0.2545957E+03  0.7818608E-02  0.1110666E+00
         21   -1    0    0  503  502  0.00000000000E+00  0.00000000000E+00  0.23816848760E+03  0.23816848760E+03  0.00000000000E+00 0.  1.
         21   -1    0    0  501  503 -0.00000000000E+00 -0.00000000000E+00 -0.27603658862E+03  0.27603658862E+03  0.00000000000E+00 0. -1.
          6    2    1    2  501    0 -0.63768515376E+02 -0.17581884999E+03  0.17232742151E+02  0.25517822324E+03  0.17274335487E+03 0.  0.
         24    2    3    3    0    0 -0.63008979779E+02 -0.76548995585E+02 -0.47082796278E+02  0.13679892028E+03  0.81653380982E+02 0.  0.
         -6    2    1    2    0  502  0.63768515376E+02  0.17581884999E+03 -0.55100843167E+02  0.25902685297E+03  0.17052893033E+03 0.  0.
        -24    2    5    5    0    0  0.31982857336E+02  0.16360742154E+03 -0.94325932206E+02  0.20687184696E+03  0.78155537444E+02 0.  0.
          5    1    3    3  501    0 -0.75953559648E+00 -0.99269854402E+02  0.64315538429E+02  0.11837930297E+03  0.47000000000E+01 0. -1.
        -13    1    4    4    0    0 -0.58830057158E+02 -0.29202198862E+02  0.55106836123E+01  0.65909875417E+02  0.00000000000E+00 0.  1.
         14    1    4    4    0    0 -0.41789226210E+01 -0.47346796724E+02 -0.52593479890E+02  0.70889044861E+02  0.00000000000E+00 0. -1.
         -5    1    5    5    0  502  0.31785658040E+02  0.12211428449E+02  0.39225089039E+02  0.52155006010E+02  0.47000000000E+01 0.  1.
         13    1    6    6    0    0  0.57051447581E+02  0.12714379680E+03 -0.64877885437E+02  0.15371907089E+03  0.00000000000E+00 0. -1.
        -14    1    6    6    0    0 -0.25068590244E+02  0.36463624738E+02 -0.29448046769E+02  0.53152776074E+02  0.00000000000E+00 0.  1.
</event>
<event>
12    1  0.1030140E-001  0.1802915E+03  0.7818608E-02  0.1168069E+00
         21   -1    0    0  503  502  0.00000000000E+00  0.00000000000E+00  0.59836636846E+02  0.59836636846E+02  0.00000000000E+00 0.  1.
         21   -1    0    0  501  503 -0.00000000000E+00 -0.00000000000E+00 -0.10081172051E+04  0.10081172051E+04  0.00000000000E+00 0.  1.
          6    2    1    2  501    0  0.42983512574E+02 -0.29491421187E+02 -0.83779148675E+03  0.85649964628E+03  0.17023437532E+03 0.  0.
         24    2    3    3    0    0  0.88232807191E+02 -0.56116995701E+01 -0.66641502031E+03  0.67758703349E+03  0.84845089560E+02 0.  0.
         -6    2    1    2    0  502 -0.42983512574E+02  0.29491421187E+02 -0.11048908150E+03  0.21145419565E+03  0.17259117432E+03 0.  0.
        -24    2    5    5    0    0 -0.67034288005E+02 -0.36306681763E+02 -0.74484939286E+02  0.13254780550E+03  0.78798119603E+02 0.  0.
          5    1    3    3  501    0 -0.45249294618E+02 -0.23879721617E+02 -0.17137646644E+03  0.17891261280E+03  0.47000000000E+01 0. -1.
        -13    1    4    4    0    0  0.42692873400E+02  0.38736652322E+02 -0.36687997692E+03  0.37138137694E+03  0.00000000000E+00 0.  1.
         14    1    4    4    0    0  0.45539933791E+02 -0.44348351892E+02 -0.29953504338E+03  0.30620565654E+03  0.00000000000E+00 0. -1.
         -5    1    5    5    0  502  0.24050775431E+02  0.65798102950E+02 -0.36004142209E+02  0.78906390153E+02  0.47000000000E+01 0.  1.
         11    1    6    6    0    0  0.12128637777E+02 -0.93496917870E+00 -0.35414736240E+02  0.37445714903E+02  0.00000000000E+00 0. -1.
        -12    1    6    6    0    0 -0.79162925782E+02 -0.35371712584E+02 -0.39070203046E+02  0.95102090595E+02  0.00000000000E+00 0.  1.
</event>
<event>
12    1  0.1030140E-001  0.2453251E+03  0.7818608E-02  0.1116896E+00
         21   -1    0    0  501  502  0.00000000000E+00  0.00000000000E+00  0.28078212956E+03  0.28078212956E+03  0.00000000000E+00 0.  1.
         21   -1    0    0  502  503 -0.00000000000E+00 -0.00000000000E+00 -0.33492244462E+03  0.33492244462E+03  0.00000000000E+00 0. -1.
         -6    2    1    2    0  503  0.14306616819E+01 -0.17560500037E+03 -0.21409175015E+03  0.32284133779E+03  0.16598821932E+03 0.  0.
        -24    2    3    3    0    0 -0.49834218274E+02 -0.74372984780E+02 -0.15276570701E+03  0.19377165713E+03  0.78710251509E+02 0.  0.
          6    2    1    2  501    0 -0.14306616819E+01  0.17560500037E+03  0.15995143509E+03  0.29286323639E+03  0.17130455537E+03 0.  0.
         24    2    5    5    0    0 -0.15684958302E+02  0.91212436235E+02  0.11543382863E+01  0.11240853900E+03  0.63785740592E+02 0.  0.
          5    1    5    5  501    0  0.14254296620E+02  0.84392564137E+02  0.15879709681E+03  0.18045469738E+03  0.47000000000E+01 0. -1.
        -11    1    6    6    0    0 -0.21105971910E+02  0.54617983978E+01  0.13442627239E+02  0.25612448518E+02  0.00000000000E+00 0.  1.
         12    1    6    6    0    0  0.54210136075E+01  0.85750637837E+02 -0.12288288952E+02  0.86796090485E+02  0.00000000000E+00 0. -1.
         -5    1    3    3    0  503  0.51264879956E+02 -0.10123201559E+03 -0.61326043144E+02  0.12906968066E+03  0.47000000000E+01 0.  1.
         11    1    4    4    0    0 -0.23894632691E+02 -0.70962574863E+02 -0.14976140656E+03  0.16743691169E+03  0.00000000000E+00 0. -1.
        -12    1    4    4    0    0 -0.25939585582E+02 -0.34104099164E+01 -0.30043004494E+01  0.26334745436E+02  0.00000000000E+00 0.  1.
</event>
<event>
12    1  0.1030140E-001  0.1775578E+03  0.7818608E-02  0.1170268E+00
         21   -1    0    0  501  502  0.00000000000E+00  0.00000000000E+00  0.30332024721E+02  0.30332024721E+02  0.00000000000E+00 0.  1.
         21   -1    0    0  502  503 -0.00000000000E+00 -0.00000000000E+00 -0.15734673186E+04  0.15734673186E+04  0.00000000000E+00 0.  1.
         -6    2    1    2    0  503  0.34726572227E+02 -0.19682130918E+02 -0.12391216746E+04  0.12517325028E+04  0.17268008851E+03 0.  0.
        -24    2    3    3    0    0  0.67869087980E+02  0.15972647487E+01 -0.11429678068E+04  0.11477185839E+04  0.79207171867E+02 0.  0.
          6    2    1    2  501    0 -0.34726572227E+02  0.19682130918E+02 -0.30401361931E+03  0.35206684057E+03  0.17301288508E+03 0.  0.
         24    2    5    5    0    0  0.18223918331E+02  0.31029467942E+02 -0.62700985985E+02  0.10470800505E+03  0.75745716693E+02 0.  0.
          5    1    5    5  501    0 -0.52950490558E+02 -0.11347337024E+02 -0.24131263333E+03  0.24735883552E+03  0.47000000000E+01 0. -1.
        -13    1    6    6    0    0 -0.18348970012E+02 -0.15426754074E+02 -0.11935274863E+02  0.26779100579E+02  0.00000000000E+00 0.  1.
         14    1    6    6    0    0  0.36572888343E+02  0.46456222017E+02 -0.50765711122E+02  0.77928904468E+02  0.00000000000E+00 0. -1.
         -5    1    3    3    0  503 -0.33142515753E+02 -0.21279395667E+02 -0.96153867811E+02  0.10401391890E+03  0.47000000000E+01 0.  1.
         13    1    4    4    0    0 -0.52550997774E+01  0.25352609138E+01 -0.58870473144E+01  0.82886034803E+01  0.00000000000E+00 0. -1.
        -14    1    4    4    0    0  0.73124187758E+02 -0.93799616512E+00 -0.11370807595E+04  0.11394299804E+04  0.00000000000E+00 0.  1.
</event>
<event>
12    1  0.1030140E-001  0.1722243E+03  0.7818608E-02  0.1175644E+00
         21   -1    0    0  501  502  0.00000000000E+00  0.00000000000E+00  0.70603518189E+03  0.70603518189E+03  0.00000000000E+00 0.  1.
         21   -1    0    0  502  503 -0.00000000000E+00 -0.00000000000E+00 -0.84213309142E+02  0.84213309142E+02  0.00000000000E+00 0.  1.
         -6    2    1    2    0  503 -0.10902673739E+01  0.57021255327E+01  0.30725614393E+02  0.17457325981E+03  0.17174998323E+03 0.  0.
        -24    2    3    3    0    0 -0.34298059465E+01 -0.39529070668E+02  0.72587800197E+02  0.11271966532E+03  0.76566462734E+02 0.  0.
          6    2    1    2  501    0  0.10902673739E+01 -0.57021255327E+01  0.59109625835E+03  0.61567523122E+03  0.17212640932E+03 0.  0.
         24    2    5    5    0    0  0.92332539236E+01 -0.69019499503E+02  0.41687391584E+03  0.43006566060E+03  0.79521484077E+02 0.  0.
          5    1    5    5  501    0 -0.81429865497E+01  0.63317373970E+02  0.17422234251E+03  0.18560957062E+03  0.47000000000E+01 0. -1.
        -13    1    6    6    0    0 -0.49652330497E+01  0.10022439782E+02  0.17192076862E+03  0.17228422308E+03  0.00000000000E+00 0.  1.
         14    1    6    6    0    0  0.14198486973E+02 -0.79041939285E+02  0.24495314722E+03  0.25778143752E+03  0.00000000000E+00 0. -1.
         -5    1    3    3    0  503  0.23395385726E+01  0.45231196201E+02 -0.41862185804E+02  0.61853594486E+02  0.47000000000E+01 0.  1.
         11    1    4    4    0    0 -0.33869141917E+02 -0.42370132997E+02  0.55891677938E+02  0.77885984665E+02  0.00000000000E+00 0. -1.
        -12    1    4    4    0    0  0.30439335971E+02  0.28410623292E+01  0.16696122259E+02  0.34833680655E+02  0.00000000000E+00 0.  1.
</event>
<event>
12    1  0.1030140E-001  0.1826629E+03  0.7818608E-02  0.1165954E+00
         21   -1    0    0  503  502  0.00000000000E+00  0.00000000000E+00  0.10730034847E+04  0.10730034847E+04  0.00000000000E+00 0.  1.
         21   -1    0    0  501  503 -0.00000000000E+00 -0.00000000000E+00 -0.31198651319E+02  0.31198651319E+02  0.00000000000E+00 0.  1.
          6    2    1    2  501    0 -0.27673520110E+01 -0.55138698594E+02  0.59338790653E+03  0.62000849553E+03  0.17103623183E+03 0.  0.
         24    2    3    3    0    0 -0.29645481321E+02 -0.68803965812E+02  0.57274231045E+03  0.58316417439E+03  0.80211344795E+02 0.  0.
         -6    2    1    2    0  502  0.27673520110E+01  0.55138698594E+02  0.44841692687E+03  0.48419364050E+03  0.17412009327E+03 0.  0.
        -24    2    5    5    0    0 -0.20119607988E+02  0.45906434886E+02  0.10975540707E+03  0.14460158727E+03  0.79694229832E+02 0.  0.
          5    1    3    3  501    0  0.26878129310E+02  0.13665267218E+02  0.20645596078E+02  0.36844321147E+02  0.47000000000E+01 0. -1.
        -13    1    4    4    0    0 -0.42968246655E+01 -0.79472370902E+02  0.36273507300E+03  0.37136377533E+03  0.00000000000E+00 0.  1.
         14    1    4    4    0    0 -0.25348656655E+02  0.10668405090E+02  0.21000723744E+03  0.21180039906E+03  0.00000000000E+00 0. -1.
         -5    1    5    5    0  502  0.22886959999E+02  0.92322637082E+01  0.33866151980E+03  0.33959205324E+03  0.47000000000E+01 0.  1.
         13    1    6    6    0    0 -0.42482456417E+02  0.13468459812E+01  0.64643958774E+02  0.77365460661E+02  0.00000000000E+00 0. -1.
        -14    1    6    6    0    0  0.22362848429E+02  0.44559588905E+02  0.45111448300E+02  0.67236126605E+02  0.00000000000E+00 0.  1.
</event>
<event>
12    1  0.1030140E-001  0.2069830E+03  0.7818608E-02  0.1144026E+00
         21   -1    0    0  503  502  0.00000000000E+00  0.00000000000E+00  0.52986453260E+02  0.52986453260E+02  0.00000000000E+00 0. -1.
         21   -1    0    0  501  503 -0.00000000000E+00 -0.00000000000E+00 -0.14557493165E+04  0.14557493165E+04  0.00000000000E+00 0.  1.
          6    2    1    2  501    0  0.11974408797E+02 -0.11514087139E+03 -0.12045111830E+04  0.12221250430E+04  0.17129397003E+03 0.  0.
         24    2    3    3    0    0  0.50650854754E+02 -0.66171753608E+02 -0.41651004331E+03  0.43164308367E+03  0.76752364384E+02 0.  0.
         -6    2    1    2    0  502 -0.11974408797E+02  0.11514087139E+03 -0.19825168032E+03  0.28661072678E+03  0.17158430355E+03 0.  0.
        -24    2    5    5    0    0  0.12160212540E+02  0.79552310551E+02 -0.31503486218E+02  0.11434327238E+03  0.74869709570E+02 0.  0.
          5    1    3    3  501    0 -0.38676445957E+02 -0.48969117786E+02 -0.78800113965E+03  0.79048195935E+03  0.47000000000E+01 0. -1.
        -11    1    4    4    0    0  0.16125956585E+02 -0.75246154338E+02 -0.26233105622E+03  0.27338546647E+03  0.00000000000E+00 0.  1.
         12    1    4    4    0    0  0.34524898169E+02  0.90744007293E+01 -0.15417898709E+03  0.15825761720E+03  0.00000000000E+00 0. -1.
         -5    1    5    5    0  502 -0.24134621337E+02  0.35588560844E+02 -0.16674819410E+03  0.17226745440E+03  0.47000000000E+01 0.  1.
         13    1    6    6    0    0  0.29151016790E+02  0.85146386933E+02 -0.34151869331E+02  0.96260267849E+02  0.00000000000E+00 0. -1.
        -14    1    6    6    0    0 -0.16990804250E+02 -0.55940763820E+01  0.26483831132E+01  0.18083004528E+02  0.00000000000E+00 0.  1.
</event>
<event>
12    1  0.1030140E-001  0.1840145E+03  0.7818608E-02  0.1164679E+00
         21   -1    0    0  503  502  0.00000000000E+00  0.00000000000E+00  0.36246551411E+03  0.36246551411E+03  0.00000000000E+00 0.  1.
         21   -1    0    0  501  503 -0.00000000000E+00 -0.00000000000E+00 -0.92042295775E+02  0.92042295775E+02  0.00000000000E+00 0.  1.
          6    2    1    2  501    0 -0.56410157122E+02  0.10843537303E+02  0.12789551312E+03  0.22409509643E+03  0.17481894017E+03 0.  0.
         24    2    3    3    0    0 -0.24430226945E+02 -0.40512520252E+02  0.12988054728E+02  0.94149051569E+02  0.80357041135E+02 0.  0.
         -6    2    1    2    0  502  0.56410157122E+02 -0.10843537303E+02  0.14252770522E+03  0.23041271346E+03  0.17168629427E+03 0.  0.
        -24    2    5    5    0    0  0.46527227378E+02  0.52223875946E+02  0.12506536039E+03  0.16406367879E+03  0.79896371765E+02 0.  0.
          5    1    3    3  501    0 -0.31979930177E+02  0.51356057555E+02  0.11490745839E+03  0.12994604487E+03  0.47000000000E+01 0. -1.
        -13    1    4    4    0    0  0.19338538349E+02  0.30508354140E+01 -0.16604936971E+02  0.25671201647E+02  0.00000000000E+00 0.  1.
         14    1    4    4    0    0 -0.43768765294E+02 -0.43563355666E+02  0.29592991699E+02  0.68477849922E+02  0.00000000000E+00 0. -1.
         -5    1    5    5    0  502  0.98829297444E+01 -0.63067413249E+02  0.17462344823E+02  0.66349034665E+02  0.47000000000E+01 0.  1.
         11    1    6    6    0    0 -0.19655845389E+02  0.22928805756E+02  0.57999622555E+02  0.65391426104E+02  0.00000000000E+00 0. -1.
        -12    1    6    6    0    0  0.66183072767E+02  0.29295070190E+02  0.67065737839E+02  0.98672252686E+02  0.00000000000E+00 0.  1.
</event>
<event>
12    1  0.1030140E-001  0.2173355E+03  0.7818608E-02  0.1136445E+00
         21   -1    0    0  503  502  0.00000000000E+00  0.00000000000E+00  0.27425912250E+02  0.27425912250E+02  0.00000000000E+00 0.  1.
         21   -1    0    0  501  503 -0.00000000000E+00 -0.00000000000E+00 -0.17219462935E+04  0.17219462935E+04  0.00000000000E+00 0.  1.
          6    2    1    2  501    0 -0.12340741347E+03 -0.47822007212E+02 -0.95376171157E+03  0.97821068110E+03  0.17239025516E+03 0.  0.
         24    2    3    3    0    0 -0.89277399080E+02  0.38283478837E+02 -0.59014822171E+03  0.60295627057E+03  0.76454312454E+02 0.  0.
         -6    2    1    2    0  502  0.12340741347E+03  0.47822007212E+02 -0.74075866972E+03  0.77116152469E+03  0.16867233422E+03 0.  0.
        -24    2    5    5    0    0  0.14869830472E+03  0.51461027920E+02 -0.70624343681E+03  0.72796125902E+03  0.79927338044E+02 0.  0.
          5    1    3    3  501    0 -0.34130014390E+02 -0.86105486049E+02 -0.36361348986E+03  0.37525441052E+03  0.47000000000E+01 0. -1.
        -11    1    4    4    0    0 -0.85026286211E+02  0.92486277220E+01 -0.32048487261E+03  0.33170101000E+03  0.00000000000E+00 0.  1.
         12    1    4    4    0    0 -0.42511128690E+01  0.29034851115E+02 -0.26966334911E+03  0.27125526058E+03  0.00000000000E+00 0. -1.
         -5    1    5    5    0  502 -0.25290891251E+02 -0.36390207080E+01 -0.34515232903E+02  0.43200265674E+02  0.47000000000E+01 0.  1.
         11    1    6    6    0    0  0.46554721262E+01 -0.12920524166E+02 -0.12264208178E+03  0.12340864471E+03  0.00000000000E+00 0. -1.
        -12    1    6    6    0    0  0.14404283260E+03  0.64381552085E+02 -0.58360135503E+03  0.60455261431E+03  0.00000000000E+00 0.  1.
</event>
<event>
12    1  0.1030140E-001  0.2811271E+03  0.7818608E-02  0.1095262E+00
         21   -1    0    0  501  502  0.00000000000E+00  0.00000000000E+00  0.10823598661E+03  0.10823598661E+03  0.00000000000E+00 0. -1.
         21   -1    0    0  502  503 -0.00000000000E+00 -0.00000000000E+00 -0.98374343788E+03  0.98374343788E+03  0.00000000000E+00 0.  1.
         -6    2    1    2    0  503  0.23664904194E+02 -0.21957078712E+03 -0.71767205468E+03  0.77076949314E+03  0.17395710749E+03 0.  0.
        -24    2    3    3    0    0 -0.36482194953E+02 -0.19949135298E+03 -0.56240121729E+03  0.60298397483E+03  0.78528938837E+02 0.  0.
          6    2    1    2  501    0 -0.23664904194E+02  0.21957078712E+03 -0.15783539659E+03  0.32120993135E+03  0.17173365813E+03 0.  0.
         24    2    5    5    0    0 -0.51296232937E+02  0.12745080780E+03 -0.31215068277E+02  0.16213643117E+03  0.80242319889E+02 0.  0.
          5    1    5    5  501    0  0.27631328743E+02  0.92119979311E+02 -0.12662032832E+03  0.15907350018E+03  0.47000000000E+01 0. -1.
        -13    1    6    6    0    0 -0.22709048597E+02  0.80763811551E+02 -0.57198589639E+02  0.10153902108E+03  0.00000000000E+00 0.  1.
         14    1    6    6    0    0 -0.28587184340E+02  0.46686996253E+02  0.25983521361E+02  0.60597410093E+02  0.00000000000E+00 0. -1.
         -5    1    3    3    0  503  0.60147099147E+02 -0.20079434139E+02 -0.15527083739E+03  0.16778551831E+03  0.47000000000E+01 0.  1.
         11    1    4    4    0    0 -0.32151642947E+02 -0.18154103651E+03 -0.41095679848E+03  0.45041799065E+03  0.00000000000E+00 0. -1.
        -12    1    4    4    0    0 -0.43305520060E+01 -0.17950316465E+02 -0.15144441880E+03  0.15256598418E+03  0.00000000000E+00 0.  1.
</event>
<event>
12    1  0.1030140E-001  0.1774294E+03  0.7818608E-02  0.1170351E+00
         21   -1    0    0  503  502  0.00000000000E+00  0.00000000000E+00  0.12967683408E+04  0.12967683408E+04  0.00000000000E+00 0.  1.
         21   -1    0    0  501  503 -0.00000000000E+00 -0.00000000000E+00 -0.12861318113E+03  0.12861318113E+03  0.00000000000E+00 0.  1.
          6    2    1    2  501    0  0.19148171195E+01 -0.48475124466E+02 -0.57945708637E+02  0.18650923848E+03  0.17051242381E+03 0.  0.
         24    2    3    3    0    0 -0.37894153772E+02 -0.56880203693E+02  0.12757278880E+02  0.10479998586E+03  0.78415332744E+02 0.  0.
         -6    2    1    2    0  502 -0.19148171195E+01  0.48475124466E+02  0.12261008683E+04  0.12388722835E+04  0.17066836615E+03 0.  0.
        -24    2    5    5    0    0  0.62356183243E+02  0.48662316168E+02  0.78357146230E+03  0.79167527796E+03  0.80679579852E+02 0.  0.
          5    1    3    3  501    0  0.39808970891E+02  0.84050792272E+01 -0.70702987517E+02  0.81709252622E+02  0.47000000000E+01 0. -1.
        -11    1    4    4    0    0 -0.60842656002E+02 -0.47667354371E+02  0.71510436759E+00  0.77294998779E+02  0.00000000000E+00 0.  1.
         12    1    4    4    0    0  0.22948502230E+02 -0.92128493227E+01  0.12042174512E+02  0.27504987079E+02  0.00000000000E+00 0. -1.
         -5    1    5    5    0  502 -0.64271000363E+02 -0.18719170244E+00  0.44252940604E+03  0.44719700551E+03  0.47000000000E+01 0.  1.
         13    1    6    6    0    0 -0.78479334801E+01 -0.31393109547E+01  0.95549153668E+01  0.12757027116E+02  0.00000000000E+00 0. -1.
        -14    1    6    6    0    0  0.70204116724E+02  0.51801627123E+02  0.77401654693E+03  0.77891825085E+03  0.00000000000E+00 0.  1.
</event>
<event>
12    1  0.1030140E-001  0.2528712E+03  0.7818608E-02  0.1111523E+00
         21   -1    0    0  503  502  0.00000000000E+00  0.00000000000E+00  0.65933971618E+02  0.65933971618E+02  0.00000000000E+00 0. -1.
         21   -1    0    0  501  503 -0.00000000000E+00 -0.00000000000E+00 -0.98750318988E+03  0.98750318988E+03  0.00000000000E+00 0. -1.
          6    2    1    2  501    0  0.11214168952E+03  0.14717352058E+03 -0.38922015137E+03  0.46408211293E+03  0.17217455569E+03 0.  0.
         24    2    3    3    0    0  0.48382876050E+01  0.63978647563E+02 -0.18189690425E+03  0.21621031995E+03  0.97692079047E+02 0.  0.
         -6    2    1    2    0  502 -0.11214168952E+03 -0.14717352058E+03 -0.53234906690E+03  0.58935504857E+03  0.17236020585E+03 0.  0.
        -24    2    5    5    0    0  0.59639447010E+01 -0.73679075429E+02 -0.28975248503E+03  0.30966671160E+03  0.80453681708E+02 0.  0.
          5    1    3    3  501    0  0.10730340191E+03  0.83194873015E+02 -0.20732324712E+03  0.24787179298E+03  0.47000000000E+01 0. -1.
        -13    1    4    4    0    0  0.19183924497E+02  0.15062683479E+02 -0.15806965775E+03  0.15994037668E+03  0.00000000000E+00 0.  1.
         14    1    4    4    0    0 -0.14345636892E+02  0.48915964084E+02 -0.23827246502E+02  0.56269943274E+02  0.00000000000E+00 0. -1.
         -5    1    5    5    0  502 -0.11810563422E+03 -0.73494445149E+02 -0.24259658187E+03  0.27968833697E+03  0.47000000000E+01 0.  1.
         11    1    6    6    0    0 -0.29020730019E+02 -0.45092297901E+02 -0.22089682758E+03  0.22731239856E+03  0.00000000000E+00 0. -1.
        -12    1    6    6    0    0  0.34984674720E+02 -0.28586777529E+02 -0.68855657443E+02  0.82354313042E+02  0.00000000000E+00 0.  1.
</event>
<event>
12    1  0.1030140E-001  0.1746976E+03  0.7818608E-02  0.1173040E+00
         21   -1    0    0  503  502  0.00000000000E+00  0.00000000000E+00  0.69748648522E+03  0.69748648522E+03  0.00000000000E+00 0.  1.
         21   -1    0    0  501  503 -0.00000000000E+00 -0.00000000000E+00 -0.12328128997E+03  0.12328128997E+03  0.00000000000E+00 0.  1.
          6    2    1    2  501    0 -0.33160690247E+01  0.26340513817E+02 -0.42507022909E+02  0.17979459032E+03  0.17266855166E+03 0.  0.
         24    2    3    3    0    0 -0.15013295863E+02 -0.51122522406E+02 -0.19882701695E+02  0.98116582226E+02  0.79953927553E+02 0.  0.
         -6    2    1    2    0  502  0.33160690247E+01 -0.26340513817E+02  0.61671221815E+03  0.64097318487E+03  0.17264948515E+03 0.  0.
        -24    2    5    5    0    0 -0.21717462613E+02 -0.59504876833E+02  0.56543532516E+03  0.57480701197E+03  0.81691587867E+02 0.  0.
          5    1    3    3  501    0  0.11697226838E+02  0.77463036223E+02 -0.22624321213E+02  0.81678008099E+02  0.47000000000E+01 0. -1.
        -13    1    4    4    0    0 -0.42683391045E+02 -0.51062982964E+02 -0.22665954055E+02  0.70306796069E+02  0.00000000000E+00 0.  1.
         14    1    4    4    0    0  0.27670095182E+02 -0.59539441560E-01  0.27832523597E+01  0.27809786156E+02  0.00000000000E+00 0. -1.
         -5    1    5    5    0  502  0.25033531638E+02  0.33164363016E+02  0.51276892994E+02  0.66166172895E+02  0.47000000000E+01 0.  1.
         13    1    6    6    0    0 -0.36687257106E+02 -0.15715855342E+02  0.42658273109E+03  0.42844576017E+03  0.00000000000E+00 0. -1.
        -14    1    6    6    0    0  0.14969794492E+02 -0.43789021491E+02  0.13885259407E+03  0.14636125180E+03  0.00000000000E+00 0.  1.
</event>
<event>
12    1  0.1030140E-001  0.1791030E+03  0.7818608E-02  0.1169751E+00
         21   -1    0    0  503  502  0.00000000000E+00  0.00000000000E+00  0.15198395138E+03  0.15198395138E+03  0.00000000000E+00 0.  1.
         21   -1    0    0  501  503 -0.00000000000E+00 -0.00000000000E+00 -0.27607371140E+03  0.27607371140E+03  0.00000000000E+00 0.  1.
          6    2    1    2  501    0  0.59604056851E+01 -0.40806440798E+02 -0.17047848138E+03  0.24726662966E+03  0.17429050888E+03 0.  0.
         24    2    3    3    0    0  0.55776480469E+02 -0.12150251216E+02 -0.16474604425E+03  0.18932036711E+03  0.73771931851E+02 0.  0.
         -6    2    1    2    0  502 -0.59604056851E+01  0.40806440798E+02  0.46388721352E+02  0.18079103312E+03  0.16980221477E+03 0.  0.
        -24    2    5    5    0    0  0.50682803918E+02 -0.11305684095E+02  0.12327773806E+02  0.96491775098E+02  0.80387334504E+02 0.  0.
          5    1    3    3  501    0 -0.49816074784E+02 -0.28656189581E+02 -0.57324371296E+01  0.57946262551E+02  0.47000000000E+01 0. -1.
        -11    1    4    4    0    0  0.15474910097E+02 -0.37694842027E+02 -0.10647673267E+03  0.11400731800E+03  0.00000000000E+00 0.  1.
         12    1    4    4    0    0  0.40301570372E+02  0.25544590811E+02 -0.58269311582E+02  0.75313049111E+02  0.00000000000E+00 0. -1.
         -5    1    5    5    0  502 -0.56643209603E+02  0.52112124892E+02  0.34060947547E+02  0.84299258020E+02  0.47000000000E+01 0.  1.
         11    1    6    6    0    0  0.34570127086E+02  0.31225830116E+02 -0.69373140104E+01  0.47098540093E+02  0.00000000000E+00 0. -1.
        -12    1    6    6    0    0  0.16112676832E+02 -0.42531514211E+02  0.19265087816E+02  0.49393235005E+02  0.00000000000E+00 0.  1.
</event>
<event>
12    1  0.1030140E-001  0.2226498E+03  0.7818608E-02  0.1132566E+00
         21   -1    0    0  503  502  0.00000000000E+00  0.00000000000E+00  0.11783231911E+04  0.11783231911E+04  0.00000000000E+00 0.  1.
         21   -1    0    0  501  503 -0.00000000000E+00 -0.00000000000E+00 -0.43080035697E+02  0.43080035697E+02  0.00000000000E+00 0. -1.
          6    2    1    2  501    0  0.13682835363E+03 -0.40590181593E+02  0.69189451486E+03  0.72683626958E+03  0.17088997010E+03 0.  0.
         24    2    3    3    0    0  0.99876066679E+02 -0.52926481120E+02  0.66381526559E+03  0.67858494798E+03  0.83966562927E+02 0.  0.
         -6    2    1    2    0  502 -0.13682835363E+03  0.40590181593E+02  0.44334864053E+03  0.49456695720E+03  0.16633970333E+03 0.  0.
        -24    2    5    5    0    0 -0.16139333498E+03  0.38251092828E+02  0.42504534516E+03  0.46348625152E+03  0.81516901460E+02 0.  0.
          5    1    3    3  501    0  0.36952286949E+02  0.12336299527E+02  0.28079249275E+02  0.48251321605E+02  0.47000000000E+01 0. -1.
        -13    1    4    4    0    0  0.79070097126E+02 -0.60742757913E+02  0.34838323691E+03  0.36237086342E+03  0.00000000000E+00 0.  1.
         14    1    4    4    0    0  0.20805969553E+02  0.78162767926E+01  0.31543202868E+03  0.31621408455E+03  0.00000000000E+00 0. -1.
         -5    1    5    5    0  502  0.24564981348E+02  0.23390887657E+01  0.18303295365E+02  0.31080705688E+02  0.47000000000E+01 0.  1.
         13    1    6    6    0    0 -0.10619236038E+03  0.37652877236E+02  0.18043245609E+03  0.21272147936E+03  0.00000000000E+00 0. -1.
        -14    1    6    6    0    0 -0.55200974593E+02  0.59821559147E+00  0.24461288907E+03  0.25076477216E+03  0.00000000000E+00 0.  1.
</event>
<event>
12    1  0.1030140E-001  0.2738610E+03  0.7818608E-02  0.1099334E+00
         21   -1    0    0  501  502  0.00000000000E+00  0.00000000000E+00  0.25134238556E+03  0.25134238556E+03  0.00000000000E+00 0. -1.
         21   -1    0    0  502  503 -0.00000000000E+00 -0.00000000000E+00 -0.32002643414E+03  0.32002643414E+03  0.00000000000E+00 0.  1.
         -6    2    1    2    0  503 -0.19607843924E+03 -0.83598248481E+02 -0.11187891558E+03  0.29583232524E+03  0.17194316335E+03 0.  0.
        -24    2    3    3    0    0 -0.14999071992E+03 -0.11356973939E+03 -0.46373946641E+02  0.21018561430E+03  0.81437999506E+02 0.  0.
          6    2    1    2  501    0  0.19607843924E+03  0.83598248481E+02  0.43194866999E+02  0.27553649446E+03  0.16917192960E+03 0.  0.
         24    2    5    5    0    0  0.11088437290E+03 -0.11353204916E+00 -0.22665440026E+02  0.13906173057E+03  0.80802757966E+02 0.  0.
          5    1    5    5  501    0  0.85194066337E+02  0.83711780530E+02  0.65860307025E+02  0.13647476389E+03  0.47000000000E+01 0. -1.
        -13    1    6    6    0    0  0.21054064026E+02  0.25249571171E+02 -0.31208032072E+02  0.45329413433E+02  0.00000000000E+00 0.  1.
         14    1    6    6    0    0  0.89830308872E+02 -0.25363103221E+02  0.85425920461E+01  0.93732317137E+02  0.00000000000E+00 0. -1.
         -5    1    3    3    0  503 -0.46087719313E+02  0.29971490910E+02 -0.65504968940E+02  0.85646710939E+02  0.47000000000E+01 0.  1.
         13    1    4    4    0    0 -0.99954794028E+02 -0.25051890866E+02 -0.28819093948E+02  0.10700045916E+03  0.00000000000E+00 0. -1.
        -14    1    4    4    0    0 -0.50035925895E+02 -0.88517848526E+02 -0.17554852693E+02  0.10318515514E+03  0.00000000000E+00 0.  1.
</event>
<event>
12    1  0.1030140E-001  0.1981828E+03  0.7818608E-02  0.1151997E+00
         21   -1    0    0  501  502  0.00000000000E+00  0.00000000000E+00  0.22447645860E+03  0.22447645860E+03  0.00000000000E+00 0. -1.
         21   -1    0    0  502  503 -0.00000000000E+00 -0.00000000000E+00 -0.17316864768E+03  0.17316864768E+03  0.00000000000E+00 0. -1.
         -6    2    1    2    0  503  0.86686914121E+02 -0.34726728427E+02  0.94494393301E+01  0.19509005788E+03  0.17102710906E+03 0.  0.
        -24    2    3    3    0    0  0.82257836017E+02  0.23261296345E+02 -0.35539884059E+02  0.12141267350E+03  0.78552622072E+02 0.  0.
          6    2    1    2  501    0 -0.86686914121E+02  0.34726728427E+02  0.41858371591E+02  0.20255504840E+03  0.17480233869E+03 0.  0.
         24    2    5    5    0    0 -0.71161067237E+02  0.38592409717E+02  0.93062088427E+02  0.14870427281E+03  0.83061043047E+02 0.  0.
          5    1    5    5  501    0 -0.15525846884E+02 -0.38656812891E+01 -0.51203716836E+02  0.53850775585E+02  0.47000000000E+01 0. -1.
        -11    1    6    6    0    0  0.23617860104E+01  0.32147712462E+02  0.31616370604E+01  0.32389032072E+02  0.00000000000E+00 0.  1.
         12    1    6    6    0    0 -0.73522853247E+02  0.64446972548E+01  0.89900451366E+02  0.11631524074E+03  0.00000000000E+00 0. -1.
         -5    1    3    3    0  503  0.44290781035E+01 -0.57988024773E+02  0.44989323389E+02  0.73677384379E+02  0.47000000000E+01 0.  1.
         11    1    4    4    0    0  0.19245748875E+02  0.13071268602E+02  0.24496975312E+02  0.33784000829E+02  0.00000000000E+00 0. -1.
        -12    1    4    4    0    0  0.63012087143E+02  0.10190027743E+02 -0.60036859371E+02  0.87628672674E+02  0.00000000000E+00 0.  1.
</event>
<event>
12    1  0.1030140E-001  0.2168197E+03  0.7818608E-02  0.1136519E+00
         21   -1    0    0  501  502  0.00000000000E+00  0.00000000000E+00  0.61122751087E+03  0.61122751087E+03  0.00000000000E+00 0. -1.
         21   -1    0    0  502  503 -0.00000000000E+00 -0.00000000000E+00 -0.99172521486E+02  0.99172521486E+02  0.00000000000E+00 0.  1.
         -6    2    1    2    0  503 -0.11904576960E+03 -0.56667383488E+02  0.85462924867E+02  0.23186938981E+03  0.17051807761E+03 0.  0.
        -24    2    3    3    0    0 -0.14819873051E+03 -0.28113413160E+02  0.71265299329E+02  0.18840806306E+03  0.87553569951E+02 0.  0.
          6    2    1    2  501    0  0.11904576960E+03  0.56667383488E+02  0.42659206452E+03  0.47853064256E+03  0.17212698435E+03 0.  0.
         24    2    5    5    0    0  0.25133738696E+02  0.32001565898E+02  0.84716912777E+02  0.12310332019E+03  0.79508912017E+02 0.  0.
          5    1    5    5  501    0  0.93912030899E+02  0.24665817590E+02  0.34187515174E+03  0.35542732237E+03  0.47000000000E+01 0. -1.
        -11    1    6    6    0    0  0.29364171596E+02 -0.18931602959E+02  0.51200614958E+02  0.61985184812E+02  0.00000000000E+00 0.  1.
         12    1    6    6    0    0 -0.42304328995E+01  0.50933168857E+02  0.33516297819E+02  0.61118135376E+02  0.00000000000E+00 0. -1.
         -5    1    3    3    0  503  0.29152960918E+02 -0.28553970327E+02  0.14197625538E+02  0.43461326748E+02  0.47000000000E+01 0.  1.
         11    1    4    4    0    0 -0.99030885009E+02 -0.59105909172E+02  0.37926709940E+02  0.12140453044E+03  0.00000000000E+00 0. -1.
        -12    1    4    4    0    0 -0.49167845505E+02  0.30992496012E+02  0.33338589389E+02  0.67003532616E+02  0.00000000000E+00 0.  1.
</event>
<event>
12    1  0.1030140E-001  0.2506987E+03  0.7818608E-02  0.1112869E+00
         21   -1    0    0  501  502  0.00000000000E+00  0.00000000000E+00  0.39703283487E+03  0.39703283487E+03  0.00000000000E+00 0.  1.
         21   -1    0    0  502  503 -0.00000000000E+00 -0.00000000000E+00 -0.15843786252E+03  0.15843786252E+03  0.00000000000E+00 0. -1.
         -6    2    1    2    0  503  0.17834358854E+03  0.34042819308E+02  0.11052439847E+03  0.27398082754E+03  0.17287134547E+03 0.  0.
        -24    2    3    3    0    0  0.64882734788E+02  0.24821078880E+02  0.11596041429E+03  0.15991923849E+03  0.85448756144E+02 0.  0.
          6    2    1    2  501    0 -0.17834358854E+03 -0.34042819308E+02  0.12807057388E+03  0.28148986984E+03  0.17282686658E+03 0.  0.
         24    2    5    5    0    0 -0.67415006887E+02 -0.67261179404E+01 -0.69756921888E+01  0.10454090438E+03  0.79310255268E+02 0.  0.
          5    1    5    5  501    0 -0.11092858165E+03 -0.27316701368E+02  0.13504626607E+03  0.17694896546E+03  0.47000000000E+01 0. -1.
        -11    1    6    6    0    0 -0.37807821125E+02  0.32193342247E+01  0.35403397755E+02  0.51896011635E+02  0.00000000000E+00 0.  1.
         12    1    6    6    0    0 -0.29607185762E+02 -0.99454521651E+01 -0.42379089943E+02  0.52644892743E+02  0.00000000000E+00 0. -1.
         -5    1    3    3    0  503  0.11346085375E+03  0.92217404283E+01 -0.54360158133E+01  0.11406158906E+03  0.47000000000E+01 0.  1.
         11    1    4    4    0    0  0.28058621451E+02  0.50985782520E+01 -0.75793433739E+01  0.29508103699E+02  0.00000000000E+00 0. -1.
        -12    1    4    4    0    0  0.36824113337E+02  0.19722500628E+02  0.12353975766E+03  0.13041113479E+03  0.00000000000E+00 0.  1.
</event>
<event>
12    1  0.1030140E-001  0.1906670E+03  0.7818608E-02  0.1158091E+00
         21   -1    0    0  501  502  0.00000000000E+00  0.00000000000E+00  0.51666958617E+03  0.51666958617E+03  0.00000000000E+00 0.  1.
         21   -1    0    0  502  503 -0.00000000000E+00 -0.00000000000E+00 -0.10865499704E+03  0.10865499704E+03  0.00000000000E+00 0.  1.
         -6    2    1    2    0  503  0.67024554218E+02  0.47326077939E+02  0.17129027466E+02  0.19041604035E+03  0.17097606943E+03 0.  0.
        -24    2    3    3    0    0  0.65686978335E+02 -0.28720227189E+02 -0.73895433659E+01  0.11036555660E+03  0.83584209990E+02 0.  0.
          6    2    1    2  501    0 -0.67024554218E+02 -0.47326077939E+02  0.39088556167E+03  0.43490854286E+03  0.17211005146E+03 0.  0.
         24    2    5    5    0    0 -0.10302391860E+03 -0.29776625389E+02  0.36176918331E+03  0.38517132330E+03  0.77326781118E+02 0.  0.
          5    1    5    5  501    0  0.35999364382E+02 -0.17549452550E+02  0.29116378357E+02  0.49737219558E+02  0.47000000000E+01 0. -1.
        -13    1    6    6    0    0 -0.69131513367E+02 -0.43540632487E+02  0.15522805358E+03  0.17541579586E+03  0.00000000000E+00 0.  1.
         14    1    6    6    0    0 -0.33892405233E+02  0.13764007098E+02  0.20654112973E+03  0.20975552744E+03  0.00000000000E+00 0. -1.
         -5    1    3    3    0  503  0.13375758825E+01  0.76046305128E+02  0.24518570832E+02  0.80050483750E+02  0.47000000000E+01 0.  1.
         11    1    4    4    0    0 -0.17100024054E+02  0.48201575268E+00  0.11443792046E+02  0.20581631088E+02  0.00000000000E+00 0. -1.
        -12    1    4    4    0    0  0.82787002389E+02 -0.29202242942E+02 -0.18833335412E+02  0.89783925511E+02  0.00000000000E+00 0.  1.
</event>
<event>
12    1  0.1030140E-001  0.1797917E+03  0.7818608E-02  0.1168503E+00
         21   -1    0    0  501  502  0.00000000000E+00  0.00000000000E+00  0.69732840192E+03  0.69732840192E+03  0.00000000000E+00 0.  1.
         21   -1    0    0  502  503 -0.00000000000E+00 -0.00000000000E+00 -0.58865890064E+02  0.58865890064E+02  0.00000000000E+00 0.  1.
         -6    2    1    2    0  503  0.48626453256E+02 -0.75588843268E+01  0.14272903278E+03  0.22955746901E+03  0.17292595552E+03 0.  0.
        -24    2    3    3    0    0  0.33205338247E+02  0.53096018400E+02  0.44787686388E+02  0.11323281407E+03  0.83029823996E+02 0.  0.
          6    2    1    2  501    0 -0.48626453256E+02  0.75588843268E+01  0.49573347908E+03  0.52663682298E+03  0.17080103147E+03 0.  0.
         24    2    5    5    0    0 -0.34256248166E+02  0.66566756493E+02  0.38931429622E+03  0.40401723135E+03  0.77843936018E+02 0.  0.
          5    1    5    5  501    0 -0.14370205090E+02 -0.59007872167E+02  0.10641918286E+03  0.12261959163E+03  0.47000000000E+01 0. -1.
        -13    1    6    6    0    0 -0.36613669844E+02  0.19813262175E+02  0.71205712271E+02  0.82482602029E+02  0.00000000000E+00 0.  1.
         14    1    6    6    0    0  0.23574216779E+01  0.46753494318E+02  0.31810858395E+03  0.32153462932E+03  0.00000000000E+00 0. -1.
         -5    1    3    3    0  503  0.15421115008E+02 -0.60654902726E+02  0.97941346394E+02  0.11632465494E+03  0.47000000000E+01 0.  1.
         13    1    4    4    0    0  0.26623035183E+02  0.12608063752E+02 -0.20668850728E+02  0.35985422942E+02  0.00000000000E+00 0. -1.
        -14    1    4    4    0    0  0.65823030645E+01  0.40487954648E+02  0.65456537116E+02  0.77247391130E+02  0.00000000000E+00 0.  1.
</event>
<event>
12    1  0.1030140E-001  0.2029144E+03  0.7818608E-02  0.1147347E+00
         21   -1    0    0  503  502  0.00000000000E+00  0.00000000000E+00  0.45994837429E+03  0.45994837429E+03  0.00000000000E+00 0. -1.
         21   -1    0    0  501  503 -0.00000000000E+00 -0.00000000000E+00 -0.29885893263E+03  0.29885893263E+03  0.00000000000E+00 0. -1.
          6    2    1    2  501    0  0.77815001448E+01 -0.10884607915E+03 -0.23707556341E+03  0.31191849545E+03  0.17082243513E+03 0.  0.
         24    2    3    3    0    0  0.11604991318E+02  0.13137705733E+02 -0.94758641195E+02  0.12437954160E+03  0.78637110535E+02 0.  0.
         -6    2    1    2    0  502 -0.77815001448E+01  0.10884607915E+03  0.39816500507E+03  0.44688881148E+03  0.17107372058E+03 0.  0.
        -24    2    5    5    0    0 -0.44009550422E+02  0.79452118875E+02  0.14472854622E+03  0.18915133806E+03  0.81131971987E+02 0.  0.
          5    1    3    3  501    0 -0.38234911730E+01 -0.12198378488E+03 -0.14231692222E+03  0.18753895384E+03  0.47000000000E+01 0. -1.
        -13    1    4    4    0    0  0.45191364196E+02  0.27663028467E+01 -0.56958296270E+02  0.72760974041E+02  0.00000000000E+00 0.  1.
         14    1    4    4    0    0 -0.33586372878E+02  0.10371402886E+02 -0.37800344924E+02  0.51618567564E+02  0.00000000000E+00 0. -1.
         -5    1    5    5    0  502  0.36228050277E+02  0.29393960274E+02  0.25343645885E+03  0.25773747342E+03  0.47000000000E+01 0.  1.
         13    1    6    6    0    0 -0.35117310434E+02  0.20783736847E+02  0.11650111222E+03  0.12344107241E+03  0.00000000000E+00 0. -1.
        -14    1    6    6    0    0 -0.88922399882E+01  0.58668382028E+02  0.28227433996E+02  0.65710265650E+02  0.00000000000E+00 0.  1.
</event>
<event>
12    1  0.1030140E-001  0.2043202E+03  0.7818608E-02  0.1146940E+00
         21   -1    0    0  501  502  0.00000000000E+00  0.00000000000E+00  0.51464564171E+02  0.51464564171E+02  0.00000000000E+00 0. -1.
         21   -1    0    0  502  503 -0.00000000000E+00 -0.00000000000E+00 -0.82524250992E+03  0.82524250992E+03  0.00000000000E+00 0. -1.
         -6    2    1    2    0  503  0.97256105912E+02  0.48780129678E+02 -0.30793089837E+03  0.36955133925E+03  0.17294074992E+03 0.  0.
        -24    2    3    3    0    0  0.79113803570E+02  0.93630398876E+02 -0.27326064986E+03  0.30984534363E+03  0.79417307292E+02 0.  0.
          6    2    1    2  501    0 -0.97256105912E+02 -0.48780129678E+02 -0.46584704738E+03  0.50715573484E+03  0.16839007287E+03 0.  0.
         24    2    5    5    0    0 -0.44609728827E+01 -0.66979796269E+02 -0.21596557834E+03  0.23993858878E+03  0.80144881138E+02 0.  0.
          5    1    5    5  501    0 -0.92795133030E+02  0.18199666591E+02 -0.24988146904E+03  0.26721714606E+03  0.47000000000E+01 0. -1.
        -11    1    6    6    0    0 -0.82377023729E+01  0.48377265228E+01  0.25542303558E+01  0.98887527527E+01  0.00000000000E+00 0.  1.
         12    1    6    6    0    0  0.37767294902E+01 -0.71817522792E+02 -0.21851980869E+03  0.23004983603E+03  0.00000000000E+00 0. -1.
         -5    1    3    3    0  503  0.18142302342E+02 -0.44850269198E+02 -0.34670248512E+02  0.59705995622E+02  0.47000000000E+01 0.  1.
         13    1    4    4    0    0  0.23377312387E+02  0.11694666892E+02 -0.90489731067E+01  0.27661306593E+02  0.00000000000E+00 0. -1.
        -14    1    4    4    0    0  0.55736491183E+02  0.81935731984E+02 -0.26421167675E+03  0.28218403703E+03  0.00000000000E+00 0.  1.
</event>
<event>
12    1  0.1030140E-001  0.1801633E+03  0.7818608E-02  0.1168500E+00
         21   -1    0    0  503  502  0.00000000000E+00  0.00000000000E+00  0.26644928551E+03  0.26644928551E+03  0.00000000000E+00 0.  1.
         21   -1    0    0  501  503 -0.00000000000E+00 -0.00000000000E+00 -0.16965763517E+03  0.16965763517E+03  0.00000000000E+00 0.  1.
          6    2    1    2  501    0  0.16624496086E+02 -0.45085888098E+02 -0.69870921988E+02  0.19323761597E+03  0.17363674527E+03 0.  0.
         24    2    3    3    0    0 -0.49902220001E+02  0.95718325217E+01 -0.35862297529E+02  0.10054486051E+03  0.79001981315E+02 0.  0.
         -6    2    1    2    0  502 -0.16624496086E+02  0.45085888098E+02  0.16666257232E+03  0.24286930471E+03  0.16999992642E+03 0.  0.
        -24    2    5    5    0    0  0.27819375202E+02  0.82128338278E+02  0.12301263245E+03  0.17024143086E+03  0.79567929797E+02 0.  0.
          5    1    3    3  501    0  0.66526716088E+02 -0.54657720620E+02 -0.34008624460E+02  0.92692755458E+02  0.47000000000E+01 0. -1.
        -11    1    4    4    0    0  0.42057739924E+01 -0.14217448394E+02 -0.38625742516E+02  0.41373570775E+02  0.00000000000E+00 0.  1.
         12    1    4    4    0    0 -0.54107993994E+02  0.23789280915E+02  0.27634449877E+01  0.59171289733E+02  0.00000000000E+00 0. -1.
         -5    1    5    5    0  502 -0.44443871288E+02 -0.37042450180E+02  0.43649939869E+02  0.72627873857E+02  0.47000000000E+01 0.  1.
         11    1    6    6    0    0 -0.19902132116E+02  0.63273863484E+02  0.67018760594E+02  0.94293111809E+02  0.00000000000E+00 0. -1.
        -12    1    6    6    0    0  0.47721507318E+02  0.18854474794E+02  0.55993871857E+02  0.75948319047E+02  0.00000000000E+00 0.  1.
</event>
<event>
12    1  0.1030140E-001  0.1821711E+03  0.7818608E-02  0.1166561E+00
         21   -1    0    0  503  502  0.00000000000E+00  0.00000000000E+00  0.47102947928E+02  0.47102947928E+02  0.00000000000E+00 0.  1.
         21   -1    0    0  501  503 -0.00000000000E+00 -0.00000000000E+00 -0.69695191924E+03  0.69695191924E+03  0.00000000000E+00 0. -1.
          6    2    1    2  501    0 -0.88675791551E+00  0.58667015645E+02 -0.36219898788E+03  0.40543115545E+03  0.17246364812E+03 0.  0.
         24    2    3    3    0    0  0.56443648250E+02  0.47507213744E+02 -0.30543354657E+03  0.32384854715E+03  0.78392661236E+02 0.  0.
         -6    2    1    2    0  502  0.88675791551E+00 -0.58667015645E+02 -0.28764998343E+03  0.33862371171E+03  0.16876285168E+03 0.  0.
        -24    2    5    5    0    0  0.58439842468E+00  0.22595124735E+02 -0.21058689567E+03  0.22653251502E+03  0.80369512584E+02 0.  0.
          5    1    3    3  501    0 -0.57330406165E+02  0.11159801901E+02 -0.56765441308E+02  0.81582608297E+02  0.47000000000E+01 0. -1.
        -11    1    4    4    0    0  0.39877357869E+02 -0.11575289477E+02 -0.17264182556E+03  0.17756517375E+03  0.00000000000E+00 0.  1.
         12    1    4    4    0    0  0.16566290381E+02  0.59082503221E+02 -0.13279172101E+03  0.14628337340E+03  0.00000000000E+00 0. -1.
         -5    1    5    5    0  502  0.30235949084E+00 -0.81262140380E+02 -0.77063087759E+02  0.11209119669E+03  0.47000000000E+01 0.  1.
         13    1    6    6    0    0 -0.30517025939E+02 -0.12993457472E+02 -0.11809465795E+03  0.12266404137E+03  0.00000000000E+00 0. -1.
        -14    1    6    6    0    0  0.31101424364E+02  0.35588582207E+02 -0.92492237721E+02  0.10386847366E+03  0.00000000000E+00 0.  1.
</event>
<event>
12    1  0.1030140E-001  0.1825990E+03  0.7818608E-02  0.1166253E+00
         21   -1    0    0  501  502  0.00000000000E+00  0.00000000000E+00  0.21304107381E+03  0.21304107381E+03  0.00000000000E+00 0.  1.
         21   -1    0    0  502  503 -0.00000000000E+00 -0.00000000000E+00 -0.19209575308E+03  0.19209575308E+03  0.00000000000E+00 0.  1.
         -6    2    1    2    0  503  0.21387341671E+02 -0.46337630262E+02 -0.80623987760E+02  0.19960614289E+03  0.17532196244E+03 0.  0.
        -24    2    3    3    0    0  0.31367607643E+02 -0.31115578985E+02  0.23563436873E+02  0.93736288799E+02  0.79241089188E+02 0.  0.
          6    2    1    2  501    0 -0.21387341671E+02  0.46337630262E+02  0.10156930849E+03  0.20553068399E+03  0.17123651268E+03 0.  0.
         24    2    5    5    0    0 -0.50743294190E+02  0.83613119823E+02  0.92098243930E+02  0.15691972706E+03  0.81090557359E+02 0.  0.
          5    1    5    5  501    0  0.29355952519E+02 -0.37275489561E+02  0.94710645599E+01  0.48610956936E+02  0.47000000000E+01 0. -1.
        -13    1    6    6    0    0  0.38574959407E+00  0.59419384990E+02  0.79010892454E+02  0.98861181672E+02  0.00000000000E+00 0.  1.
         14    1    6    6    0    0 -0.51129043784E+02  0.24193734833E+02  0.13087351476E+02  0.58058545384E+02  0.00000000000E+00 0. -1.
         -5    1    3    3    0  503 -0.99802659726E+01 -0.15222051277E+02 -0.10418742463E+03  0.10586985409E+03  0.47000000000E+01 0.  1.
         11    1    4    4    0    0  0.32922325371E+02 -0.52870166025E+02  0.90880404181E+00  0.62289324030E+02  0.00000000000E+00 0. -1.
        -12    1    4    4    0    0 -0.15547177274E+01  0.21754587039E+02  0.22654632831E+02  0.31446964769E+02  0.00000000000E+00 0.  1.
</event>
<event>
12    1  0.1030140E-001  0.1831012E+03  0.7818608E-02  0.1164938E+00
         21   -1    0    0  501  502  0.00000000000E+00  0.00000000000E+00  0.12615600227E+03  0.12615600227E+03  0.00000000000E+00 0. -1.
         21   -1    0    0  502  503 -0.00000000000E+00 -0.00000000000E+00 -0.26912822693E+03  0.26912822693E+03  0.00000000000E+00 0. -1.
         -6    2    1    2    0  503 -0.28765952850E+02 -0.52058617388E+02 -0.47452284035E+02  0.18915016962E+03  0.17317184448E+03 0.  0.
        -24    2    3    3    0    0 -0.34766663299E+02 -0.18006065383E+02  0.39327147719E+02  0.95617583857E+02  0.77866286206E+02 0.  0.
          6    2    1    2  501    0  0.28765952850E+02  0.52058617388E+02 -0.95519940619E+02  0.20613405958E+03  0.17271251192E+03 0.  0.
         24    2    5    5    0    0  0.85034400071E+02  0.45807850081E+02 -0.74620164113E+02  0.14560224230E+03  0.79389141241E+02 0.  0.
          5    1    5    5  501    0 -0.56268447221E+02  0.62507673069E+01 -0.20899776506E+02  0.60531817275E+02  0.47000000000E+01 0. -1.
        -13    1    6    6    0    0  0.17554300091E+02 -0.21949415498E+02 -0.26162349547E+02  0.38397901325E+02  0.00000000000E+00 0.  1.
         14    1    6    6    0    0  0.67480099980E+02  0.67757265579E+02 -0.48457814566E+02  0.10720434098E+03  0.00000000000E+00 0. -1.
         -5    1    3    3    0  503  0.60007104488E+01 -0.34052552005E+02 -0.86779431754E+02  0.93532585763E+02  0.47000000000E+01 0.  1.
         11    1    4    4    0    0  0.15965859212E+02 -0.22820365700E+02 -0.47338037082E+01  0.28250427405E+02  0.00000000000E+00 0. -1.
        -12    1    4    4    0    0 -0.50732522510E+02  0.48143003164E+01  0.44060951427E+02  0.67367156452E+02  0.00000000000E+00 0.  1.
</event>
<event>
12    1  0.1030140E-001  0.2919973E+03  0.7818608E-02  0.1089333E+00
         21   -1    0    0  501  502  0.00000000000E+00  0.00000000000E+00  0.44132346031E+03  0.44132346031E+03  0.00000000000E+00 0. -1.
         21   -1    0    0  502  503 -0.00000000000E+00 -0.00000000000E+00 -0.34437020850E+03  0.34437020850E+03  0.00000000000E+00 0.  1.
         -6    2    1    2    0  503  0.22894446364E+03 -0.56697822196E+02 -0.21191233942E+03  0.36065202997E+03  0.17185120498E+03 0.  0.
        -24    2    3    3    0    0  0.21558089785E+03 -0.65161500533E+02 -0.12030162763E+03  0.26756695461E+03  0.79990305146E+02 0.  0.
          6    2    1    2  501    0 -0.22894446364E+03  0.56697822196E+02  0.30886559123E+03  0.42504163883E+03  0.17214014879E+03 0.  0.
         24    2    5    5    0    0 -0.22690845155E+03  0.39839393455E+01  0.24663269715E+03  0.34332308589E+03  0.74429408435E+02 0.  0.
          5    1    5    5  501    0 -0.20360120844E+01  0.52713882851E+02  0.62232894076E+02  0.81718552946E+02  0.47000000000E+01 0. -1.
        -11    1    6    6    0    0 -0.28123231823E+02 -0.20076843961E+02  0.16557519390E+02  0.38316410061E+02  0.00000000000E+00 0.  1.
         12    1    6    6    0    0 -0.19878521973E+03  0.24060783307E+02  0.23007517776E+03  0.30500667582E+03  0.00000000000E+00 0. -1.
         -5    1    3    3    0  503  0.13363565787E+02  0.84636783373E+01 -0.91610711790E+02  0.93085075368E+02  0.47000000000E+01 0.  1.
         13    1    4    4    0    0  0.10684365977E+02 -0.11223562240E+02  0.10360416470E+02  0.18640339458E+02  0.00000000000E+00 0. -1.
        -14    1    4    4    0    0  0.20489653187E+03 -0.53937938294E+02 -0.13066204410E+03  0.24892661515E+03  0.00000000000E+00 0.  1.
</event>
<event>
12    1  0.1030140E-001  0.2536354E+03  0.7818608E-02  0.1111301E+00
         21   -1    0    0  501  502  0.00000000000E+00  0.00000000000E+00  0.83837162798E+03  0.83837162798E+03  0.00000000000E+00 0.  1.
         21   -1    0    0  502  503 -0.00000000000E+00 -0.00000000000E+00 -0.78466913804E+02  0.78466913804E+02  0.00000000000E+00 0.  1.
         -6    2    1    2    0  503  0.21567069990E+01  0.18270281305E+03  0.30339666934E+03  0.39544970187E+03  0.17591463401E+03 0.  0.
        -24    2    3    3    0    0 -0.52123109384E+02  0.11130258753E+03  0.10638678112E+03  0.17893347447E+03  0.74792757441E+02 0.  0.
          6    2    1    2  501    0 -0.21567069990E+01 -0.18270281305E+03  0.45650804483E+03  0.52138883992E+03  0.17338326940E+03 0.  0.
         24    2    5    5    0    0  0.15674698542E+02 -0.18367228727E+03  0.28482999185E+03  0.34872053715E+03  0.80602006722E+02 0.  0.
          5    1    5    5  501    0 -0.17831405541E+02  0.96947421187E+00  0.17167805299E+03  0.17266830277E+03  0.47000000000E+01 0. -1.
        -11    1    6    6    0    0 -0.16095446098E+02 -0.14349075750E+01  0.24963294363E+02  0.29736987244E+02  0.00000000000E+00 0.  1.
         12    1    6    6    0    0  0.31770144640E+02 -0.18223737969E+03  0.25986669748E+03  0.31898354990E+03  0.00000000000E+00 0. -1.
         -5    1    3    3    0  503  0.54279816383E+02  0.71400225529E+02  0.19700988822E+03  0.21651622740E+03  0.47000000000E+01 0.  1.
         11    1    4    4    0    0 -0.41528275330E+01  0.27533107647E+02  0.70751984848E+02  0.76033948688E+02  0.00000000000E+00 0. -1.
        -12    1    4    4    0    0 -0.47970281851E+02  0.83769479879E+02  0.35634796275E+02  0.10289952578E+03  0.00000000000E+00 0.  1.
</event>
<event>
12    1  0.1030140E-001  0.2235399E+03  0.7818608E-02  0.1131313E+00
         21   -1    0    0  503  502  0.00000000000E+00  0.00000000000E+00  0.44092620276E+02  0.44092620276E+02  0.00000000000E+00 0.  1.
         21   -1    0    0  501  503 -0.00000000000E+00 -0.00000000000E+00 -0.11388242139E+04  0.11388242139E+04  0.00000000000E+00 0.  1.
          6    2    1    2  501    0 -0.83673919921E+01  0.14154605583E+03 -0.59243004423E+03  0.63311964941E+03  0.17251618472E+03 0.  0.
         24    2    3    3    0    0 -0.35010267636E+02  0.14597242150E+03 -0.57722756909E+03  0.60177254769E+03  0.80030406445E+02 0.  0.
         -6    2    1    2    0  502  0.83673919921E+01 -0.14154605583E+03 -0.50230154941E+03  0.54979718478E+03  0.17281434746E+03 0.  0.
        -24    2    5    5    0    0  0.29331927639E+02 -0.29061275801E+02 -0.33552082527E+03  0.34748495718E+03  0.80415493205E+02 0.  0.
          5    1    3    3  501    0  0.26642875644E+02 -0.44263656769E+01 -0.15202475137E+02  0.31347101716E+02  0.47000000000E+01 0. -1.
        -13    1    4    4    0    0  0.12250480548E+02  0.10730804083E+03 -0.39980045244E+03  0.41413221520E+03  0.00000000000E+00 0.  1.
         14    1    4    4    0    0 -0.47260748184E+02  0.38664380675E+02 -0.17742711666E+03  0.18764033249E+03  0.00000000000E+00 0. -1.
         -5    1    5    5    0  502 -0.20964535646E+02 -0.11248478003E+03 -0.16678072414E+03  0.20231222760E+03  0.47000000000E+01 0.  1.
         11    1    6    6    0    0  0.14993558106E+02  0.27469130056E+02 -0.13979377941E+03  0.14325383294E+03  0.00000000000E+00 0. -1.
        -12    1    6    6    0    0  0.14338369532E+02 -0.56530405857E+02 -0.19572704586E+03  0.20423112424E+03  0.00000000000E+00 0.  1.
</event>
<event>
12    1  0.1030140E-001  0.2080713E+03  0.7818608E-02  0.1146104E+00
         21   -1    0    0  503  502  0.00000000000E+00  0.00000000000E+00  0.70145313616E+03  0.70145313616E+03  0.00000000000E+00 0.  1.
         21   -1    0    0  501  503 -0.00000000000E+00 -0.00000000000E+00 -0.58135903773E+02  0.58135903773E+02  0.00000000000E+00 0.  1.
          6    2    1    2  501    0  0.84247613400E+02 -0.19934789042E+02  0.27107433624E+03  0.33314039428E+03  0.17322289213E+03 0.  0.
         24    2    3    3    0    0  0.97066910223E+02 -0.29997879259E+02  0.28423779785E+03  0.31167025508E+03  0.77623220487E+02 0.  0.
         -6    2    1    2    0  502 -0.84247613400E+02  0.19934789042E+02  0.37224289615E+03  0.42644864565E+03  0.18920522579E+03 0.  0.
        -24    2    5    5    0    0 -0.33029197179E+02  0.19506077399E+02  0.53370605322E+02  0.10345462433E+03  0.79893822416E+02 0.  0.
          5    1    3    3  501    0 -0.12819296823E+02  0.10063090218E+02 -0.13163461609E+02  0.21470139200E+02  0.47000000000E+01 0. -1.
        -13    1    4    4    0    0 -0.10588983925E+02 -0.13672913407E+02  0.24096742461E+02  0.29660211376E+02  0.00000000000E+00 0.  1.
         14    1    4    4    0    0  0.10765589415E+03 -0.16324965852E+02  0.26014105539E+03  0.28201004371E+03  0.00000000000E+00 0. -1.
         -5    1    5    5    0  502 -0.51218416221E+02  0.42871164323E+00  0.31887229083E+03  0.32299402133E+03  0.47000000000E+01 0.  1.
         13    1    6    6    0    0  0.54451600543E+00 -0.15957783636E+02  0.52219236333E+02  0.54605823860E+02  0.00000000000E+00 0. -1.
        -14    1    6    6    0    0 -0.33573713185E+02  0.35463861034E+02  0.11513689896E+01  0.48848800467E+02  0.00000000000E+00 0.  1.
</event>
<event>
12    1  0.1030140E-001  0.2177852E+03  0.7818608E-02  0.1137813E+00
         21   -1    0    0  501  502  0.00000000000E+00  0.00000000000E+00  0.65934240772E+02  0.65934240772E+02  0.00000000000E+00 0.  1.
         21   -1    0    0  502  503 -0.00000000000E+00 -0.00000000000E+00 -0.68272664169E+03  0.68272664169E+03  0.00000000000E+00 0. -1.
         -6    2    1    2    0  503 -0.10900356043E+03 -0.37674640009E+02 -0.28321038756E+03  0.35027997467E+03  0.17084139530E+03 0.  0.
        -24    2    3    3    0    0 -0.42311769158E+00 -0.49632390275E+02 -0.99764261124E+02  0.13672138402E+03  0.79222950325E+02 0.  0.
          6    2    1    2  501    0  0.10900356043E+03  0.37674640009E+02 -0.33358201336E+03  0.39838090779E+03  0.18474098995E+03 0.  0.
         24    2    5    5    0    0  0.63241342350E+02  0.72639432097E+01 -0.58830635467E+02  0.11814993031E+03  0.80287795528E+02 0.  0.
          5    1    5    5  501    0  0.45762218078E+02  0.30410696800E+02 -0.27475137789E+03  0.28023097747E+03  0.47000000000E+01 0. -1.
        -13    1    6    6    0    0 -0.34662858440E+01 -0.69373582701E+01  0.15462493611E+02  0.17298288528E+02  0.00000000000E+00 0.  1.
         14    1    6    6    0    0  0.66707628194E+02  0.14201301480E+02 -0.74293129078E+02  0.10085164179E+03  0.00000000000E+00 0. -1.
         -5    1    3    3    0  503 -0.10858044274E+03  0.11957750266E+02 -0.18344612643E+03  0.21355859065E+03  0.47000000000E+01 0.  1.
         11    1    4    4    0    0 -0.81581251723E+01  0.20913727518E+02 -0.26266052896E+02  0.34552055507E+02  0.00000000000E+00 0. -1.
        -12    1    4    4    0    0  0.77350074807E+01 -0.70546117793E+02 -0.73498208228E+02  0.10216932851E+03  0.00000000000E+00 0.  1.
</event>
<event>
12    1  0.1030140E-001  0.1891399E+03  0.7818608E-02  0.1160305E+00
         21   -1    0    0  503  502  0.00000000000E+00  0.00000000000E+00  0.12008815352E+03  0.12008815352E+03  0.00000000000E+00 0.  1.
         21   -1    0    0  501  503 -0.00000000000E+00 -0.00000000000E+00 -0.29122466932E+03  0.29122466932E+03  0.00000000000E+00 0.  1.
          6    2    1    2  501    0 -0.22134990110E+02  0.71014622871E+02 -0.77438023551E+02  0.20437843106E+03  0.17389899696E+03 0.  0.
         24    2    3    3    0    0  0.45249113678E+02  0.68022710833E+02 -0.74364834984E+02  0.13669458167E+03  0.80502847756E+02 0.  0.
         -6    2    1    2    0  502  0.22134990110E+02 -0.71014622871E+02 -0.93698492245E+02  0.20693439178E+03  0.16884727005E+03 0.  0.
        -24    2    5    5    0    0 -0.56474717495E+01 -0.71474454131E+01  0.70061951666E+01  0.84401108095E+02  0.83615072587E+02 0.  0.
          5    1    3    3  501    0 -0.67384103789E+02  0.29919120378E+01 -0.30731885668E+01  0.67683849396E+02  0.47000000000E+01 0. -1.
        -13    1    4    4    0    0 -0.20688682857E+02  0.35594415365E+02 -0.28564514105E+02  0.50109035807E+02  0.00000000000E+00 0.  1.
         14    1    4    4    0    0  0.65937796535E+02  0.32428295468E+02 -0.45800320879E+02  0.86585545858E+02  0.00000000000E+00 0. -1.
         -5    1    5    5    0  502  0.27782461860E+02 -0.63867177457E+02 -0.10070468741E+03  0.12253328368E+03  0.47000000000E+01 0.  1.
         11    1    6    6    0    0 -0.29595488083E+02 -0.79867948085E+01 -0.28307188265E+02  0.41725037012E+02  0.00000000000E+00 0. -1.
        -12    1    6    6    0    0  0.23948016334E+02  0.83934939540E+00  0.35313383431E+02  0.42676071083E+02  0.00000000000E+00 0.  1.
</event>
<event>
12    1  0.1030140E-001  0.2189860E+03  0.7818608E-02  0.1137986E+00
         21   -1    0    0  501  502  0.00000000000E+00  0.00000000000E+00  0.25893353431E+04  0.25893353431E+04  0.00000000000E+00 0. -1.
         21   -1    0    0  502  503 -0.00000000000E+00 -0.00000000000E+00 -0.17993204980E+02  0.17993204980E+02  0.00000000000E+00 0. -1.
         -6    2    1    2    0  503  0.13522089789E+03 -0.28434874633E+00  0.10456148958E+04  0.10683002214E+04  0.17225005264E+03 0.  0.
        -24    2    3    3    0    0  0.38109403306E+02 -0.19539592465E+02  0.77053487622E+03  0.77590919219E+03  0.80479542431E+02 0.  0.
          6    2    1    2  501    0 -0.13522089789E+03  0.28434874633E+00  0.15257272423E+04  0.15390283267E+04  0.14993265255E+03 0.  0.
         24    2    5    5    0    0 -0.13211432738E+03 -0.24183395471E+02  0.14650040554E+04  0.14733189916E+04  0.79955841352E+02 0.  0.
          5    1    5    5  501    0 -0.31065705094E+01  0.24467744217E+02  0.60723186953E+02  0.65709335115E+02  0.47000000000E+01 0. -1.
        -11    1    6    6    0    0 -0.13060255937E+03 -0.12653074044E+02  0.10520296233E+04  0.10601808606E+04  0.00000000000E+00 0.  1.
         12    1    6    6    0    0 -0.15117680144E+01 -0.11530321427E+02  0.41297443206E+03  0.41313813100E+03  0.00000000000E+00 0. -1.
         -5    1    3    3    0  503  0.97111494584E+02  0.19255243719E+02  0.27508001957E+03  0.29239102920E+03  0.47000000000E+01 0.  1.
         11    1    4    4    0    0  0.62964540821E+01  0.10518133665E+02  0.59062652640E+03  0.59075373055E+03  0.00000000000E+00 0. -1.
        -12    1    4    4    0    0  0.31812949224E+02 -0.30057726130E+02  0.17990834983E+03  0.18515546164E+03  0.00000000000E+00 0.  1.
</event>
<event>
12    1  0.1030140E-001  0.2158361E+03  0.7818608E-02  0.1137265E+00
         21   -1    0    0  503  502  0.00000000000E+00  0.00000000000E+00  0.52371167676E+03  0.52371167676E+03  0.00000000000E+00 0.  1.
         21   -1    0    0  501  503 -0.00000000000E+00 -0.00000000000E+00 -0.91131576516E+02  0.91131576516E+02  0.00000000000E+00 0.  1.
          6    2    1    2  501    0  0.44970644214E+02  0.11918282971E+03  0.26973480789E+03  0.34545922925E+03  0.17423635311E+03 0.  0.
         24    2    3    3    0    0  0.93709775352E+02  0.60925776632E+02  0.19661507751E+03  0.23992263792E+03  0.80074410576E+02 0.  0.
         -6    2    1    2    0  502 -0.44970644214E+02 -0.11918282971E+03  0.16284529235E+03  0.26938402403E+03  0.17269121987E+03 0.  0.
        -24    2    5    5    0    0 -0.22502758218E+02 -0.11123065052E+03  0.40544630483E+02  0.14469406874E+03  0.80086670085E+02 0.  0.
          5    1    3    3  501    0 -0.48739131138E+02  0.58257053079E+02  0.73119730378E+02  0.10553659132E+03  0.47000000000E+01 0. -1.
        -11    1    4    4    0    0  0.31426252914E+02  0.66630917575E+02  0.89895617470E+02  0.11622611836E+03  0.00000000000E+00 0.  1.
         12    1    4    4    0    0  0.62283522438E+02 -0.57051409429E+01  0.10671946004E+03  0.12369651956E+03  0.00000000000E+00 0. -1.
         -5    1    5    5    0  502 -0.22467885996E+02 -0.79521791870E+01  0.12230066187E+03  0.12468995528E+03  0.47000000000E+01 0.  1.
         13    1    6    6    0    0  0.78913776257E+01 -0.74570118439E+01 -0.18529927040E+02  0.21476476959E+02  0.00000000000E+00 0. -1.
        -14    1    6    6    0    0 -0.30394135844E+02 -0.10377363868E+03  0.59074557523E+02  0.12321759178E+03  0.00000000000E+00 0.  1.
</event>
<event>
12    1  0.1030140E-001  0.2087294E+03  0.7818608E-02  0.1142913E+00
         21   -1    0    0  501  502  0.00000000000E+00  0.00000000000E+00  0.46862072279E+03  0.46862072279E+03  0.00000000000E+00 0.  1.
         21   -1    0    0  502  503 -0.00000000000E+00 -0.00000000000E+00 -0.19117010183E+03  0.19117010183E+03  0.00000000000E+00 0.  1.
         -6    2    1    2    0  503 -0.11144643712E+03 -0.40366652166E+02 -0.98882754717E+02  0.22944819458E+03  0.16976130260E+03 0.  0.
        -24    2    3    3    0    0 -0.12209682883E+03 -0.78662967396E+02 -0.89643493869E+02  0.18836909351E+03  0.79696056037E+02 0.  0.
          6    2    1    2  501    0  0.11144643712E+03  0.40366652166E+02  0.37633337568E+03  0.43034263005E+03  0.17180859884E+03 0.  0.
         24    2    5    5    0    0  0.26225735371E+02 -0.28463623763E+02  0.23648166886E+03  0.25263285319E+03  0.80011322514E+02 0.  0.
          5    1    5    5  501    0  0.85220701752E+02  0.68830275929E+02  0.13985170682E+03  0.17770977686E+03  0.47000000000E+01 0. -1.
        -11    1    6    6    0    0 -0.21423218663E+02 -0.19826301493E+01  0.19937078990E+02  0.29332102530E+02  0.00000000000E+00 0.  1.
         12    1    6    6    0    0  0.47648954034E+02 -0.26480993613E+02  0.21654458987E+03  0.22330075066E+03  0.00000000000E+00 0. -1.
         -5    1    3    3    0  503  0.10650391703E+02  0.38296315229E+02 -0.92392608479E+01  0.41079101068E+02  0.47000000000E+01 0.  1.
         11    1    4    4    0    0 -0.75097928344E+02 -0.53468827697E+02 -0.10287112089E+02  0.92760115631E+02  0.00000000000E+00 0. -1.
        -12    1    4    4    0    0 -0.46998900482E+02 -0.25194139699E+02 -0.79356381780E+02  0.95608977879E+02  0.00000000000E+00 0.  1.
</event>
<event>
12    1  0.1030140E-001  0.1767788E+03  0.7818608E-02  0.1171274E+00
         21   -1    0    0  501  502  0.00000000000E+00  0.00000000000E+00  0.41100404887E+03  0.41100404887E+03  0.00000000000E+00 0. -1.
         21   -1    0    0  502  503 -0.00000000000E+00 -0.00000000000E+00 -0.93380229560E+02  0.93380229560E+02  0.00000000000E+00 0. -1.
         -6    2    1    2    0  503 -0.94601281405E+01 -0.36650804328E+02  0.47962220736E+02  0.18194342249E+03  0.17137753320E+03 0.  0.
        -24    2    3    3    0    0 -0.47674953765E+02 -0.33805453102E+02 -0.23469937084E+02  0.10074544165E+03  0.78632666180E+02 0.  0.
          6    2    1    2  501    0  0.94601281405E+01  0.36650804328E+02  0.26966159857E+03  0.32244085594E+03  0.17267875478E+03 0.  0.
         24    2    5    5    0    0  0.54292872024E+02 -0.10527028040E+02  0.12091007348E+03  0.16000678006E+03  0.89019040229E+02 0.  0.
          5    1    5    5  501    0 -0.44832743884E+02  0.47177832367E+02  0.14875152509E+03  0.16243407589E+03  0.47000000000E+01 0. -1.
        -13    1    6    6    0    0  0.36808272595E+02 -0.25682944278E+02  0.90596372050E+01  0.45787985154E+02  0.00000000000E+00 0.  1.
         14    1    6    6    0    0  0.17484599429E+02  0.15155916238E+02  0.11185043627E+03  0.11421879490E+03  0.00000000000E+00 0. -1.
         -5    1    3    3    0  503  0.38214825625E+02 -0.28453512251E+01  0.71432157820E+02  0.81197980836E+02  0.47000000000E+01 0.  1.
         11    1    4    4    0    0  0.12184631606E+02 -0.31623245982E+02 -0.22794680469E+02  0.40842286806E+02  0.00000000000E+00 0. -1.
        -12    1    4    4    0    0 -0.59859585372E+02 -0.21822071200E+01 -0.67525661466E+00  0.59903154844E+02  0.00000000000E+00 0.  1.
</event>
<event>
12    1  0.1030140E-001  0.2253457E+03  0.7818608E-02  0.1130066E+00
         21   -1    0    0  503  502  0.00000000000E+00  0.00000000000E+00  0.42622957213E+03  0.42622957213E+03  0.00000000000E+00 0.  1.
         21   -1    0    0  501  503 -0.00000000000E+00 -0.00000000000E+00 -0.13177312663E+03  0.13177312663E+03  0.00000000000E+00 0. -1.
          6    2    1    2  501    0  0.11663040246E+02 -0.14447307146E+03  0.59950132028E+02  0.23318381112E+03  0.17254615775E+03 0.  0.
         24    2    3    3    0    0 -0.41894584691E+02 -0.56278497206E+02  0.72606925792E+02  0.12912139454E+03  0.80486914338E+02 0.  0.
         -6    2    1    2    0  502 -0.11663040246E+02  0.14447307146E+03  0.23450631347E+03  0.32481888764E+03  0.17177195297E+03 0.  0.
        -24    2    5    5    0    0 -0.28424723847E+01  0.10917848691E+02  0.42278161831E+02  0.90535827586E+02  0.79259157449E+02 0.  0.
          5    1    3    3  501    0  0.53557624937E+02 -0.88194574256E+02 -0.12656793764E+02  0.10406241658E+03  0.47000000000E+01 0. -1.
        -11    1    4    4    0    0 -0.50487962878E+02 -0.41984994927E+02  0.12628560424E+02  0.66867441502E+02  0.00000000000E+00 0.  1.
         12    1    4    4    0    0  0.85933781876E+01 -0.14293502278E+02  0.59978365368E+02  0.62253953034E+02  0.00000000000E+00 0. -1.
         -5    1    5    5    0  502 -0.88205678616E+01  0.13355522277E+03  0.19222815164E+03  0.23428306005E+03  0.47000000000E+01 0.  1.
         13    1    6    6    0    0 -0.38270203451E+02  0.20159770436E+02  0.25989719042E+02  0.50462761638E+02  0.00000000000E+00 0. -1.
        -14    1    6    6    0    0  0.35427731066E+02 -0.92419217446E+01  0.16288442789E+02  0.40073065948E+02  0.00000000000E+00 0.  1.
</event>
<event>
12    1  0.1030140E-001  0.1955948E+03  0.7818608E-02  0.1153621E+00
         21   -1    0    0  503  502  0.00000000000E+00  0.00000000000E+00  0.72038108272E+03  0.72038108272E+03  0.00000000000E+00 0.  1.
         21   -1    0    0  501  503 -0.00000000000E+00 -0.00000000000E+00 -0.79868695548E+02  0.79868695548E+02  0.00000000000E+00 0.  1.
          6    2    1    2  501    0  0.16708115479E+02 -0.93661300806E+02  0.88322116950E+02  0.21461158799E+03  0.17089686061E+03 0.  0.
         24    2    3    3    0    0  0.27472405553E+02 -0.11643829079E+03  0.10998173627E+03  0.18105729881E+03  0.79832039369E+02 0.  0.
         -6    2    1    2    0  502 -0.16708115479E+02  0.93661300806E+02  0.55219027022E+03  0.58563819027E+03  0.17031263895E+03 0.  0.
        -24    2    5    5    0    0  0.29617565879E+01  0.11892402905E+03  0.32096381603E+03  0.35215827160E+03  0.82740439729E+02 0.  0.
          5    1    3    3  501    0 -0.10764290074E+02  0.22776989984E+02 -0.21659619322E+02  0.33554289185E+02  0.47000000000E+01 0. -1.
        -13    1    4    4    0    0  0.43260075658E+02 -0.10794203181E+03  0.66348905555E+02  0.13388462812E+03  0.00000000000E+00 0.  1.
         14    1    4    4    0    0 -0.15787670106E+02 -0.84962589795E+01  0.43632830718E+02  0.47172670694E+02  0.00000000000E+00 0. -1.
         -5    1    5    5    0  502 -0.19669872067E+02 -0.25262728249E+02  0.23122645419E+03  0.23347991868E+03  0.47000000000E+01 0.  1.
         13    1    6    6    0    0 -0.21905988010E+02  0.34600166778E+02  0.38052307178E+02  0.55901895615E+02  0.00000000000E+00 0. -1.
        -14    1    6    6    0    0  0.24867744598E+02  0.84323862276E+02  0.28291150885E+03  0.29625637598E+03  0.00000000000E+00 0.  1.
</event>
<event>
12    1  0.1030140E-001  0.2139499E+03  0.7818608E-02  0.1138773E+00
         21   -1    0    0  501  502  0.00000000000E+00  0.00000000000E+00  0.24724815904E+03  0.24724815904E+03  0.00000000000E+00 0. -1.
         21   -1    0    0  502  503 -0.00000000000E+00 -0.00000000000E+00 -0.19804103141E+03  0.19804103141E+03  0.00000000000E+00 0. -1.
         -6    2    1    2    0  503 -0.59739588733E+02 -0.10962887327E+03 -0.34988350410E+02  0.21679189546E+03  0.17374473505E+03 0.  0.
        -24    2    3    3    0    0 -0.42007677855E+02 -0.85063965060E+02 -0.89833318199E+02  0.15395945265E+03  0.81443015970E+02 0.  0.
          6    2    1    2  501    0  0.59739588733E+02  0.10962887327E+03  0.84195478043E+02  0.22849729498E+03  0.17185699571E+03 0.  0.
         24    2    5    5    0    0 -0.15668309364E+02  0.24262378911E+02 -0.35332347816E+01  0.84649436088E+02  0.79491410437E+02 0.  0.
          5    1    5    5  501    0  0.75407898097E+02  0.85366494356E+02  0.87728712824E+02  0.14384785889E+03  0.47000000000E+01 0. -1.
        -13    1    6    6    0    0 -0.71573981458E+01 -0.18063912904E+02  0.25914199765E+02  0.32389489763E+02  0.00000000000E+00 0.  1.
         14    1    6    6    0    0 -0.85109112178E+01  0.42326291815E+02 -0.29447434547E+02  0.52259946325E+02  0.00000000000E+00 0. -1.
         -5    1    3    3    0  503 -0.17731910878E+02 -0.24564908206E+02  0.54844967788E+02  0.62832442816E+02  0.47000000000E+01 0.  1.
         13    1    4    4    0    0 -0.75398343368E+00 -0.59086446853E+02 -0.92986097698E+01  0.59818398811E+02  0.00000000000E+00 0. -1.
        -14    1    4    4    0    0 -0.41253694421E+02 -0.25977518207E+02 -0.80534708429E+02  0.94141053836E+02  0.00000000000E+00 0.  1.
</event>
<event>
12    1  0.1030140E-001  0.2329628E+03  0.7818608E-02  0.1124574E+00
         21   -1    0    0  501  502  0.00000000000E+00  0.00000000000E+00  0.69291055484E+02  0.69291055484E+02  0.00000000000E+00 0. -1.
         21   -1    0    0  502  503 -0.00000000000E+00 -0.00000000000E+00 -0.11813482514E+04  0.11813482514E+04  0.00000000000E+00 0. -1.
         -6    2    1    2    0  503 -0.13547183351E+03 -0.78555836120E+02 -0.91904466566E+03  0.94810744966E+03  0.17245579593E+03 0.  0.
        -24    2    3    3    0    0  0.53978315043E+01 -0.45863845356E+02 -0.39960016538E+03  0.40888791398E+03  0.73323973789E+02 0.  0.
          6    2    1    2  501    0  0.13547183351E+03  0.78555836120E+02 -0.19301253028E+03  0.30253185726E+03  0.17247623241E+03 0.  0.
         24    2    5    5    0    0  0.34485288115E+02  0.87332888415E+02 -0.58003268987E+02  0.13363866724E+03  0.75356789169E+02 0.  0.
          5    1    5    5  501    0  0.10098654539E+03 -0.87770522957E+01 -0.13500926130E+03  0.16889319002E+03  0.47000000000E+01 0. -1.
        -11    1    6    6    0    0 -0.58528702452E+01  0.77616262223E+02 -0.46138396944E+02  0.90483655563E+02  0.00000000000E+00 0.  1.
         12    1    6    6    0    0  0.40338158360E+02  0.97166261927E+01 -0.11864872044E+02  0.43155011680E+02  0.00000000000E+00 0. -1.
         -5    1    3    3    0  503 -0.14086966501E+03 -0.32691990764E+02 -0.51944450029E+03  0.53921953568E+03  0.47000000000E+01 0.  1.
         13    1    4    4    0    0 -0.26841361059E+02 -0.46987380679E+02 -0.26598533950E+03  0.27143410514E+03  0.00000000000E+00 0. -1.
        -14    1    4    4    0    0  0.32239192563E+02  0.11235353235E+01 -0.13361482588E+03  0.13745380884E+03  0.00000000000E+00 0.  1.
</event>
<event>
12    1  0.1030140E-001  0.1896572E+03  0.7818608E-02  0.1160443E+00
         21   -1    0    0  503  502  0.00000000000E+00  0.00000000000E+00  0.69997945700E+02  0.69997945700E+02  0.00000000000E+00 0. -1.
         21   -1    0    0  501  503 -0.00000000000E+00 -0.00000000000E+00 -0.85101842772E+03  0.85101842772E+03  0.00000000000E+00 0. -1.
          6    2    1    2  501    0 -0.68215434111E+02 -0.22324461706E+02 -0.68415441632E+03  0.70805419785E+03  0.16769542237E+03 0.  0.
         24    2    3    3    0    0 -0.51565834936E+02 -0.44467227213E+02 -0.21595736585E+03  0.23901466936E+03  0.76511820506E+02 0.  0.
         -6    2    1    2    0  502  0.68215434111E+02  0.22324461706E+02 -0.96866065707E+02  0.21296217557E+03  0.17555092281E+03 0.  0.
        -24    2    5    5    0    0  0.48655445746E+02 -0.34285690388E+02 -0.37550913855E+01  0.10215131869E+03  0.82933287842E+02 0.  0.
          5    1    3    3  501    0 -0.16649599175E+02  0.22142765508E+02 -0.46819705047E+03  0.46903952849E+03  0.47000000000E+01 0. -1.
        -13    1    4    4    0    0  0.19906970124E+02 -0.15244126011E+02 -0.58323304350E+02  0.63484475801E+02  0.00000000000E+00 0.  1.
         14    1    4    4    0    0 -0.71472805060E+02 -0.29223101202E+02 -0.15763406150E+03  0.17553019356E+03  0.00000000000E+00 0. -1.
         -5    1    5    5    0  502  0.19559988365E+02  0.56610152093E+02 -0.93110974321E+02  0.11081085689E+03  0.47000000000E+01 0.  1.
         11    1    6    6    0    0  0.28932991164E+02 -0.59958123725E+02 -0.14321480723E+02  0.68096985164E+02  0.00000000000E+00 0. -1.
        -12    1    6    6    0    0  0.19722454581E+02  0.25672433337E+02  0.10566389337E+02  0.34054333524E+02  0.00000000000E+00 0.  1.
</event>
<event>
12    1  0.1030140E-001  0.1790847E+03  0.7818608E-02  0.1168751E+00
         21   -1    0    0  501  502  0.00000000000E+00  0.00000000000E+00  0.55732241705E+02  0.55732241705E+02  0.00000000000E+00 0. -1.
         21   -1    0    0  502  503 -0.00000000000E+00 -0.00000000000E+00 -0.18459105731E+04  0.18459105731E+04  0.00000000000E+00 0. -1.
         -6    2    1    2    0  503 -0.13429391052E+02 -0.46690801310E+02 -0.16839538730E+04  0.16934242455E+04  0.17211812635E+03 0.  0.
        -24    2    3    3    0    0  0.58705716424E+02 -0.19036734853E+02 -0.99276094831E+03  0.99791150640E+03  0.80276495324E+02 0.  0.
          6    2    1    2  501    0  0.13429391052E+02  0.46690801310E+02 -0.10622445837E+03  0.20821856927E+03  0.17236866758E+03 0.  0.
         24    2    5    5    0    0 -0.52083510468E+02  0.27734853826E+02 -0.31253181575E+02  0.10675896867E+03  0.83299470902E+02 0.  0.
          5    1    5    5  501    0  0.65512901521E+02  0.18955947484E+02 -0.74971276795E+02  0.10145960061E+03  0.47000000000E+01 0. -1.
        -11    1    6    6    0    0  0.66754371344E+01  0.24333383753E+02 -0.39961471278E+02  0.47260916331E+02  0.00000000000E+00 0.  1.
         12    1    6    6    0    0 -0.58758947603E+02  0.34014700729E+01  0.87082897027E+01  0.59498052335E+02  0.00000000000E+00 0. -1.
         -5    1    3    3    0  503 -0.72135107476E+02 -0.27654066458E+02 -0.69119292468E+03  0.69551273910E+03  0.47000000000E+01 0.  1.
         11    1    4    4    0    0  0.26980982283E+02  0.31439442116E+02 -0.43898987171E+03  0.44094049416E+03  0.00000000000E+00 0. -1.
        -12    1    4    4    0    0  0.31724734141E+02 -0.50476176969E+02 -0.55377107660E+03  0.55697101224E+03  0.00000000000E+00 0.  1.
</event>
<event>
12    1  0.1030140E-001  0.1772560E+03  0.7818608E-02  0.1170638E+00
         21   -1    0    0  503  502  0.00000000000E+00  0.00000000000E+00  0.31438358952E+03  0.31438358952E+03  0.00000000000E+00 0. -1.
         21   -1    0    0  501  503 -0.00000000000E+00 -0.00000000000E+00 -0.14221905882E+03  0.14221905882E+03  0.00000000000E+00 0. -1.
          6    2    1    2  501    0 -0.28065971543E+02 -0.30335240726E+02 -0.38800281759E+02  0.18145288679E+03  0.17237100299E+03 0.  0.
         24    2    3    3    0    0  0.55997412153E+01  0.47213854678E+02 -0.26576556515E+02  0.95903182688E+02  0.78934161922E+02 0.  0.
         -6    2    1    2    0  502  0.28065971543E+02  0.30335240726E+02  0.21096481246E+03  0.27514976155E+03  0.17173617441E+03 0.  0.
        -24    2    5    5    0    0  0.42634887481E+02 -0.15914632253E+02  0.20680085437E+03  0.22625464309E+03  0.79709227850E+02 0.  0.
          5    1    3    3  501    0 -0.33665712758E+02 -0.77549095404E+02 -0.12223725244E+02  0.85549704104E+02  0.47000000000E+01 0. -1.
        -11    1    4    4    0    0 -0.14152543173E+02  0.54395026018E+02 -0.41720825813E+02  0.69998147406E+02  0.00000000000E+00 0.  1.
         12    1    4    4    0    0  0.19752284388E+02 -0.71811713407E+01  0.15144269298E+02  0.25905035282E+02  0.00000000000E+00 0. -1.
         -5    1    5    5    0  502 -0.14568915938E+02  0.46249872979E+02  0.41639580892E+01  0.48895118460E+02  0.47000000000E+01 0.  1.
         13    1    6    6    0    0  0.17944831136E+02  0.16732825217E+02  0.16823920334E+03  0.17001892232E+03  0.00000000000E+00 0. -1.
        -14    1    6    6    0    0  0.24690056345E+02 -0.32647457471E+02  0.38561651023E+02  0.56235720777E+02  0.00000000000E+00 0.  1.
</event>
<event>
12    1  0.1030140E-001  0.1916810E+03  0.7818608E-02  0.1157230E+00
         21   -1    0    0  501  502  0.00000000000E+00  0.00000000000E+00  0.23747880289E+02  0.23747880289E+02  0.00000000000E+00 0. -1.
         21   -1    0    0  502  503 -0.00000000000E+00 -0.00000000000E+00 -0.15696408804E+04  0.15696408804E+04  0.00000000000E+00 0.  1.
         -6    2    1    2    0  503 -0.66649125008E+02 -0.50444260864E+02 -0.88991884540E+03  0.91032804265E+03  0.17249598407E+03 0.  0.
        -24    2    3    3    0    0 -0.69424025894E+02  0.58004415253E+01 -0.31120179002E+03  0.32885862229E+03  0.80300055119E+02 0.  0.
          6    2    1    2  501    0  0.66649125008E+02  0.50444260864E+02 -0.65597415472E+03  0.68306071804E+03  0.17112312398E+03 0.  0.
         24    2    5    5    0    0  0.10602475125E+03  0.65719208513E+02 -0.52325821160E+03  0.54370729854E+03  0.79108837961E+02 0.  0.
          5    1    5    5  501    0 -0.39375626242E+02 -0.15274947649E+02 -0.13271594312E+03  0.13935341950E+03  0.47000000000E+01 0. -1.
        -13    1    6    6    0    0  0.71671241190E+02 -0.15320621180E+01 -0.23240195159E+03  0.24320728018E+03  0.00000000000E+00 0.  1.
         14    1    6    6    0    0  0.34353510060E+02  0.67251270631E+02 -0.29085626000E+03  0.30050001837E+03  0.00000000000E+00 0. -1.
         -5    1    3    3    0  503  0.27749008861E+01 -0.56244702389E+02 -0.57871705538E+03  0.58146942036E+03  0.47000000000E+01 0.  1.
         11    1    4    4    0    0 -0.25774988499E+02 -0.37786734143E+01 -0.16606980603E+02  0.30893692069E+02  0.00000000000E+00 0. -1.
        -12    1    4    4    0    0 -0.43649037394E+02  0.95791149396E+01 -0.29459480942E+03  0.29796493022E+03  0.00000000000E+00 0.  1.
</event>
<event>
12    1  0.1030140E-001  0.2189836E+03  0.7818608E-02  0.1134666E+00
         21   -1    0    0  501  502  0.00000000000E+00  0.00000000000E+00  0.51245346023E+02  0.51245346023E+02  0.00000000000E+00 0.  1.
         21   -1    0    0  502  503 -0.00000000000E+00 -0.00000000000E+00 -0.11649525159E+04  0.11649525159E+04  0.00000000000E+00 0.  1.
         -6    2    1    2    0  503  0.29402666663E+02  0.13185977420E+03 -0.82700219885E+03  0.85550363847E+03  0.17234361512E+03 0.  0.
        -24    2    3    3    0    0  0.70419636322E+01  0.16591734565E+03 -0.69296675182E+03  0.71533406162E+03  0.62623843290E+02 0.  0.
          6    2    1    2  501    0 -0.29402666663E+02 -0.13185977420E+03 -0.28670497105E+03  0.36069422348E+03  0.17218904021E+03 0.  0.
         24    2    5    5    0    0 -0.62023914493E+02 -0.86170854501E+02 -0.10118377148E+03  0.16680810050E+03  0.79463228273E+02 0.  0.
          5    1    5    5  501    0  0.32621247830E+02 -0.45688919696E+02 -0.18552119957E+03  0.19388612298E+03  0.47000000000E+01 0. -1.
        -11    1    6    6    0    0 -0.30135816708E+02 -0.94836582111E+02 -0.78126085419E+02  0.12651414932E+03  0.00000000000E+00 0.  1.
         12    1    6    6    0    0 -0.31888097786E+02  0.86657276101E+01 -0.23057686062E+02  0.40293951183E+02  0.00000000000E+00 0. -1.
         -5    1    3    3    0  503  0.22360703031E+02 -0.34057571450E+02 -0.13403544703E+03  0.14016957685E+03  0.47000000000E+01 0.  1.
         11    1    4    4    0    0 -0.41202016790E+01  0.45960575052E+02 -0.98376435448E+02  0.10866127908E+03  0.00000000000E+00 0. -1.
        -12    1    4    4    0    0  0.11162165311E+02  0.11995677059E+03 -0.59459031637E+03  0.60667278253E+03  0.00000000000E+00 0.  1.
</event>
<event>
12    1  0.1030140E-001  0.1708377E+03  0.7818608E-02  0.1177709E+00
         21   -1    0    0  501  502  0.00000000000E+00  0.00000000000E+00  0.25675080651E+03  0.25675080651E+03  0.00000000000E+00 0. -1.
         21   -1    0    0  502  503 -0.00000000000E+00 -0.00000000000E+00 -0.11355371787E+03  0.11355371787E+03  0.00000000000E+00 0. -1.
         -6    2    1    2    0  503  0.72088591902E+01 -0.13872761732E+02  0.49277492076E+02  0.17780267231E+03  0.17012083319E+03 0.  0.
        -24    2    3    3    0    0  0.18402320071E+02 -0.26192786431E+02 -0.34920835440E+02  0.91846142997E+02  0.78686350726E+02 0.  0.
          6    2    1    2  501    0 -0.72088591902E+01  0.13872761732E+02  0.93919596564E+02  0.19250185207E+03  0.16730705682E+03 0.  0.
         24    2    5    5    0    0 -0.54776823723E+02 -0.86985563998E+01  0.10083310376E+03  0.13919085664E+03  0.78298240448E+02 0.  0.
          5    1    5    5  501    0  0.47567964533E+02  0.22571318132E+02 -0.69135071988E+01  0.53310995431E+02  0.47000000000E+01 0. -1.
        -11    1    6    6    0    0 -0.44172680462E+02  0.31568981072E+02  0.55739495812E+02  0.77812066278E+02  0.00000000000E+00 0.  1.
         12    1    6    6    0    0 -0.10604143261E+02 -0.40267537471E+02  0.45093607952E+02  0.61378790363E+02  0.00000000000E+00 0. -1.
         -5    1    3    3    0  503 -0.11193460881E+02  0.12320024699E+02  0.84198327516E+02  0.85956529313E+02  0.47000000000E+01 0.  1.
         13    1    4    4    0    0 -0.30152967215E+02 -0.37209841852E+01 -0.57968430987E+01  0.30929767945E+02  0.00000000000E+00 0. -1.
        -14    1    4    4    0    0  0.48555287286E+02 -0.22471802246E+02 -0.29123992341E+02  0.60916375053E+02  0.00000000000E+00 0.  1.
</event>
<event>
12    1  0.1030140E-001  0.1723515E+03  0.7818608E-02  0.1177248E+00
         21   -1    0    0  503  502  0.00000000000E+00  0.00000000000E+00  0.12446819855E+03  0.12446819855E+03  0.00000000000E+00 0. -1.
         21   -1    0    0  501  503 -0.00000000000E+00 -0.00000000000E+00 -0.24879045015E+03  0.24879045015E+03  0.00000000000E+00 0. -1.
          6    2    1    2  501    0 -0.57934244825E+01 -0.18732081897E+02 -0.11587835954E+03  0.20768444249E+03  0.17123252841E+03 0.  0.
         24    2    3    3    0    0 -0.14672987767E+01  0.51149305204E+02 -0.95852846620E+02  0.13471023613E+03  0.79628356283E+02 0.  0.
         -6    2    1    2    0  502  0.57934244825E+01  0.18732081897E+02 -0.84438920590E+01  0.16557420620E+03  0.16419215507E+03 0.  0.
        -24    2    5    5    0    0 -0.26047570296E+02  0.60249771124E+02 -0.31594099419E+02  0.10816698046E+03  0.79958725002E+02 0.  0.
          5    1    3    3  501    0 -0.43261257059E+01 -0.69881387101E+02 -0.20025512918E+02  0.72974206364E+02  0.47000000000E+01 0. -1.
        -11    1    4    4    0    0 -0.24890584848E+02  0.32114589238E+02 -0.74650002939E+01  0.41311188380E+02  0.00000000000E+00 0.  1.
         12    1    4    4    0    0  0.23423286071E+02  0.19034715967E+02 -0.88387846326E+02  0.93399047749E+02  0.00000000000E+00 0. -1.
         -5    1    5    5    0  502  0.31840994779E+02 -0.41517689227E+02  0.23150207360E+02  0.57407225748E+02  0.47000000000E+01 0.  1.
         11    1    6    6    0    0 -0.53669303084E+02  0.27645290851E+02 -0.22843869752E+02  0.64548420469E+02  0.00000000000E+00 0. -1.
        -12    1    6    6    0    0  0.27621732788E+02  0.32604480272E+02 -0.87502296667E+01  0.43618559986E+02  0.00000000000E+00 0.  1.
</event>
<event>
12    1  0.1030140E-001  0.2006350E+03  0.7818608E-02  0.1150041E+00
         21   -1    0    0  501  502  0.00000000000E+00  0.00000000000E+00  0.14321253628E+04  0.14321253628E+04  0.00000000000E+00 0. -1.
         21   -1    0    0  502  503 -0.00000000000E+00 -0.00000000000E+00 -0.31680658981E+02  0.31680658981E+02  0.00000000000E+00 0.  1.
         -6    2    1    2    0  503  0.34887986368E+02 -0.91039981973E+02  0.43018454437E+03  0.47301887220E+03  0.17082933393E+03 0.  0.
        -24    2    3    3    0    0  0.38082522599E+02  0.16186792264E+02  0.19909957448E+03  0.21820494109E+03  0.79123100221E+02 0.  0.
          6    2    1    2  501    0 -0.34887986368E+02  0.91039981973E+02  0.97026015946E+03  0.99078714959E+03  0.17535378199E+03 0.  0.
         24    2    5    5    0    0 -0.11718960803E+02  0.54281588311E+02  0.91628240427E+03  0.92133449446E+03  0.78739960822E+02 0.  0.
          5    1    5    5  501    0 -0.23169025565E+02  0.36758393662E+02  0.53977755188E+02  0.69452655136E+02  0.47000000000E+01 0. -1.
        -13    1    6    6    0    0  0.29831424026E+02  0.69554861078E+01  0.20591191958E+03  0.20817783569E+03  0.00000000000E+00 0.  1.
         14    1    6    6    0    0 -0.41550384828E+02  0.47326102203E+02  0.71037048469E+03  0.71315665877E+03  0.00000000000E+00 0. -1.
         -5    1    3    3    0  503 -0.31945362309E+01 -0.10722677424E+03  0.23108496989E+03  0.25481393111E+03  0.47000000000E+01 0.  1.
         13    1    4    4    0    0 -0.13169477407E+02  0.23991015213E+02  0.26915547994E+02  0.38385552881E+02  0.00000000000E+00 0. -1.
        -14    1    4    4    0    0  0.51252000007E+02 -0.78042229495E+01  0.17218402649E+03  0.17981938821E+03  0.00000000000E+00 0.  1.
</event>
<event>
12    1  0.1030140E-001  0.2184791E+03  0.7818608E-02  0.1135125E+00
         21   -1    0    0  501  502  0.00000000000E+00  0.00000000000E+00  0.95364223893E+03  0.95364223893E+03  0.00000000000E+00 0.  1.
         21   -1    0    0  502  503 -0.00000000000E+00 -0.00000000000E+00 -0.79402107504E+02  0.79402107504E+02  0.00000000000E+00 0.  1.
         -6    2    1    2    0  503 -0.97951165306E+02 -0.91791237500E+02  0.12276855883E+03  0.25060970069E+03  0.17237471096E+03 0.  0.
        -24    2    3    3    0    0  0.63624748472E+01 -0.37001192454E+02  0.14054104732E+02  0.90222023211E+02  0.80826519678E+02 0.  0.
          6    2    1    2  501    0  0.97951165306E+02  0.91791237500E+02  0.75147157259E+03  0.78243464574E+03  0.17168106585E+03 0.  0.
         24    2    5    5    0    0  0.73037019178E+02  0.50708159884E+02  0.70644873900E+03  0.71642192357E+03  0.79276907643E+02 0.  0.
          5    1    5    5  501    0  0.24914146127E+02  0.41083077616E+02  0.45022833595E+02  0.66012722172E+02  0.47000000000E+01 0. -1.
        -13    1    6    6    0    0  0.45177662069E+02  0.67434362845E+02  0.39308665961E+03  0.40137954159E+03  0.00000000000E+00 0.  1.
         14    1    6    6    0    0  0.27859357109E+02 -0.16726202961E+02  0.31336207939E+03  0.31504238198E+03  0.00000000000E+00 0. -1.
         -5    1    3    3    0  503 -0.10431364015E+03 -0.54790045046E+02  0.10871445410E+03  0.16038767748E+03  0.47000000000E+01 0.  1.
         13    1    4    4    0    0 -0.24985549900E+02  0.13707076225E+02 -0.17341198516E+01  0.28551161344E+02  0.00000000000E+00 0. -1.
        -14    1    4    4    0    0  0.31348024747E+02 -0.50708268679E+02  0.15788224584E+02  0.61670861867E+02  0.00000000000E+00 0.  1.
</event>
<event>
12    1  0.1030140E-001  0.2008478E+03  0.7818608E-02  0.1149225E+00
         21   -1    0    0  501  502  0.00000000000E+00  0.00000000000E+00  0.13678963340E+04  0.13678963340E+04  0.00000000000E+00 0.  1.
         21   -1    0    0  502  503 -0.00000000000E+00 -0.00000000000E+00 -0.29835157204E+02  0.29835157204E+02  0.00000000000E+00 0.  1.
         -6    2    1    2    0  503 -0.10316706194E+03 -0.89889835801E+01  0.75646721573E+03  0.78243368959E+03  0.17098416783E+03 0.  0.
        -24    2    3    3    0    0 -0.71530753924E+02  0.30282244969E+02  0.68750404486E+03  0.69687029606E+03  0.83263045338E+02 0.  0.
          6    2    1    2  501    0  0.10316706194E+03  0.89889835801E+01  0.58159396110E+03  0.61529780165E+03  0.17209184938E+03 0.  0.
         24    2    5    5    0    0  0.33261923718E+02  0.17382102229E+02  0.13324862359E+03  0.16143349984E+03  0.83048697353E+02 0.  0.
          5    1    5    5  501    0  0.69905138219E+02 -0.83931186488E+01  0.44834533751E+03  0.45386430181E+03  0.47000000000E+01 0. -1.
        -11    1    6    6    0    0  0.21437100093E+02  0.21668190485E+02  0.14256138864E+03  0.14578343277E+03  0.00000000000E+00 0.  1.
         12    1    6    6    0    0  0.11824823625E+02 -0.42860882557E+01 -0.93127650468E+01  0.15650067064E+02  0.00000000000E+00 0. -1.
         -5    1    3    3    0  503 -0.31636308013E+02 -0.39271228549E+02  0.68963170866E+02  0.85563393530E+02  0.47000000000E+01 0.  1.
         13    1    4    4    0    0  0.79956248338E+01 -0.10213299527E+01  0.29760571446E+03  0.29771485420E+03  0.00000000000E+00 0. -1.
        -14    1    4    4    0    0 -0.79526378758E+02  0.31303574922E+02  0.38989833040E+03  0.39915544186E+03  0.00000000000E+00 0.  1.
</event>
<event>
12    1  0.1030140E-001  0.2166003E+03  0.7818608E-02  0.1136889E+00
         21   -1    0    0  503  502  0.00000000000E+00  0.00000000000E+00  0.17492039433E+03  0.17492039433E+03  0.00000000000E+00 0. -1.
         21   -1    0    0  501  503 -0.00000000000E+00 -0.00000000000E+00 -0.37580106050E+03  0.37580106050E+03  0.00000000000E+00 0.  1.
          6    2    1    2  501    0  0.11436283041E+03 -0.67151035465E+02 -0.25011463370E+03  0.33086705987E+03  0.17125292047E+03 0.  0.
         24    2    3    3    0    0 -0.10391439222E+02 -0.29780266490E+02 -0.95874417667E+02  0.12894545030E+03  0.80250725290E+02 0.  0.
         -6    2    1    2    0  502 -0.11436283041E+03  0.67151035465E+02  0.49233967541E+02  0.21985439496E+03  0.16829691881E+03 0.  0.
        -24    2    5    5    0    0 -0.14427866317E+03  0.64268384724E+02  0.61215425322E+02  0.18716017444E+03  0.79591737497E+02 0.  0.
          5    1    3    3  501    0  0.12475426963E+03 -0.37370768975E+02 -0.15424021604E+03  0.20192160956E+03  0.47000000000E+01 0. -1.
        -11    1    4    4    0    0  0.15543704193E+02 -0.31668091972E+02 -0.96694644452E+02  0.10292875718E+03  0.00000000000E+00 0.  1.
         12    1    4    4    0    0 -0.25935143416E+02  0.18878254818E+01  0.82022678434E+00  0.26016693122E+02  0.00000000000E+00 0. -1.
         -5    1    5    5    0  502  0.29915832761E+02  0.28826507410E+01 -0.11981457781E+02  0.32694220523E+02  0.47000000000E+01 0.  1.
         13    1    6    6    0    0 -0.12070482724E+03  0.26548901797E+02  0.69683294717E+02  0.14188115121E+03  0.00000000000E+00 0. -1.
        -14    1    6    6    0    0 -0.23573835931E+02  0.37719482927E+02 -0.84678693953E+01  0.45279023232E+02  0.00000000000E+00 0.  1.
</event>
<event>
12    1  0.1030140E-001  0.2294453E+03  0.7818608E-02  0.1127381E+00
         21   -1    0    0  501  502  0.00000000000E+00  0.00000000000E+00  0.54646139697E+02  0.54646139697E+02  0.00000000000E+00 0.  1.
         21   -1    0    0  502  503 -0.00000000000E+00 -0.00000000000E+00 -0.26240203024E+04  0.26240203024E+04  0.00000000000E+00 0. -1.
         -6    2    1    2    0  503  0.14821893106E+03  0.18456760524E+02 -0.23507864319E+04  0.23617662344E+04  0.17156163213E+03 0.  0.
        -24    2    3    3    0    0  0.13008483676E+03  0.13235369013E+02 -0.23218662537E+04  0.23269154809E+04  0.79846825422E+02 0.  0.
          6    2    1    2  501    0 -0.14821893106E+03 -0.18456760524E+02 -0.21858773079E+03  0.31690020777E+03  0.17417130102E+03 0.  0.
         24    2    5    5    0    0 -0.10818191879E+03 -0.58742170286E+02 -0.80437792823E+02  0.16745666675E+03  0.80109466371E+02 0.  0.
          5    1    5    5  501    0 -0.40037012267E+02  0.40285409762E+02 -0.13814993797E+03  0.14944354102E+03  0.47000000000E+01 0. -1.
        -11    1    6    6    0    0 -0.43449376892E+02 -0.46871579376E+02 -0.79017334982E+02  0.10162938814E+03  0.00000000000E+00 0.  1.
         12    1    6    6    0    0 -0.64732541899E+02 -0.11870590910E+02 -0.14204578402E+01  0.65827278615E+02  0.00000000000E+00 0. -1.
         -5    1    3    3    0  503  0.18134094301E+02  0.52213915117E+01 -0.28920178226E+02  0.34850753421E+02  0.47000000000E+01 0.  1.
         13    1    4    4    0    0  0.15482190500E+02 -0.17310629084E+02 -0.83624435020E+03  0.83656677518E+03  0.00000000000E+00 0. -1.
        -14    1    4    4    0    0  0.11460264626E+03  0.30545998097E+02 -0.14856219035E+04  0.14903487058E+04  0.00000000000E+00 0.  1.
</event>
<event>
12    1  0.1030140E-001  0.3861309E+03  0.7818608E-02  0.1048857E+00
         21   -1    0    0  503  502  0.00000000000E+00  0.00000000000E+00  0.63804259347E+03  0.63804259347E+03  0.00000000000E+00 0. -1.
         21   -1    0    0  501  503 -0.00000000000E+00 -0.00000000000E+00 -0.33672769021E+03  0.33672769021E+03  0.00000000000E+00 0.  1.
          6    2    1    2  501    0 -0.14618428433E+03  0.31279866398E+03 -0.12065096916E+03  0.40279803853E+03  0.16875056832E+03 0.  0.
         24    2    3    3    0    0 -0.12560250176E+03  0.17358830930E+03 -0.12773968088E+03  0.26181764111E+03  0.79512021418E+02 0.  0.
         -6    2    1    2    0  502  0.14618428433E+03 -0.31279866398E+03  0.42196587243E+03  0.57197224516E+03  0.17287047916E+03 0.  0.
        -24    2    5    5    0    0  0.11925016508E+03 -0.19356554564E+03  0.36440984519E+03  0.43678064202E+03  0.79338336488E+02 0.  0.
          5    1    3    3  501    0 -0.20581782566E+02  0.13921035467E+03  0.70887117125E+01  0.14098039742E+03  0.47000000000E+01 0. -1.
        -13    1    4    4    0    0 -0.12178924518E+03  0.18204655370E+03 -0.12007469322E+03  0.24978290556E+03  0.00000000000E+00 0.  1.
         14    1    4    4    0    0 -0.38132565754E+01 -0.84582443974E+01 -0.76649876593E+01  0.12034735552E+02  0.00000000000E+00 0. -1.
         -5    1    5    5    0  502  0.26934119244E+02 -0.11923311834E+03  0.57556027236E+02  0.13519160314E+03  0.47000000000E+01 0.  1.
         13    1    6    6    0    0  0.35310472259E+02 -0.52362549855E+02  0.44813991654E+02  0.77440040847E+02  0.00000000000E+00 0. -1.
        -14    1    6    6    0    0  0.83939692822E+02 -0.14120299579E+03  0.31959585354E+03  0.35934060117E+03  0.00000000000E+00 0.  1.
</event>
<event>
12    1  0.1030140E-001  0.1786325E+03  0.7818608E-02  0.1169398E+00
         21   -1    0    0  503  502  0.00000000000E+00  0.00000000000E+00  0.73782587564E+03  0.73782587564E+03  0.00000000000E+00 0. -1.
         21   -1    0    0  501  503 -0.00000000000E+00 -0.00000000000E+00 -0.17972800729E+03  0.17972800729E+03  0.00000000000E+00 0. -1.
          6    2    1    2  501    0 -0.32798108303E+01 -0.40841202858E+02 -0.12132169355E+03  0.21504373076E+03  0.17276021475E+03 0.  0.
         24    2    3    3    0    0 -0.57270133376E+02 -0.66279217419E+02 -0.77053511850E+02  0.14058696864E+03  0.78451572484E+02 0.  0.
         -6    2    1    2    0  502  0.32798108303E+01  0.40841202858E+02  0.67941956190E+03  0.70251015217E+03  0.17387010036E+03 0.  0.
        -24    2    5    5    0    0 -0.26502963986E+02 -0.12685609306E+02  0.57511747817E+03  0.58145996437E+03  0.80450262174E+02 0.  0.
          5    1    3    3  501    0  0.53990322546E+02  0.25438014561E+02 -0.44268181700E+02  0.74456762113E+02  0.47000000000E+01 0. -1.
        -13    1    4    4    0    0  0.18305978514E+02 -0.26037231780E+02 -0.23967438905E+02  0.39843248057E+02  0.00000000000E+00 0.  1.
         14    1    4    4    0    0 -0.75576111890E+02 -0.40241985639E+02 -0.53086072945E+02  0.10074372059E+03  0.00000000000E+00 0. -1.
         -5    1    5    5    0  502  0.29782774816E+02  0.53526812164E+02  0.10430208373E+03  0.12105018780E+03  0.47000000000E+01 0.  1.
         11    1    6    6    0    0 -0.46636363158E+02 -0.22716724225E+02  0.23775381986E+03  0.24334723912E+03  0.00000000000E+00 0. -1.
        -12    1    6    6    0    0  0.20133399172E+02  0.10031114919E+02  0.33736365831E+03  0.33811272525E+03  0.00000000000E+00 0.  1.
</event>
<event>
12    1  0.1030140E-001  0.2539601E+03  0.7818608E-02  0.1111116E+00
         21   -1    0    0  501  502  0.00000000000E+00  0.00000000000E+00  0.10873311506E+03  0.10873311506E+03  0.00000000000E+00 0.  1.
         21   -1    0    0  502  503 -0.00000000000E+00 -0.00000000000E+00 -0.69207087199E+03  0.69207087199E+03  0.00000000000E+00 0.  1.
         -6    2    1    2    0  503 -0.91573961289E+02 -0.15835711675E+03 -0.13611256417E+03  0.28650242543E+03  0.17347692308E+03 0.  0.
        -24    2    3    3    0    0 -0.24156224228E+02 -0.11423970412E+02 -0.79007463503E+02  0.11498687720E+03  0.79156631872E+02 0.  0.
          6    2    1    2  501    0  0.91573961289E+02  0.15835711675E+03 -0.44722519277E+03  0.51430156162E+03  0.17616173374E+03 0.  0.
         24    2    5    5    0    0 -0.22808895417E+02  0.70814302994E+02 -0.18512925690E+03  0.21519697833E+03  0.80634896322E+02 0.  0.
          5    1    5    5  501    0  0.11438285671E+03  0.87542813756E+02 -0.26209593587E+03  0.29910458329E+03  0.47000000000E+01 0. -1.
        -13    1    6    6    0    0  0.80504384396E+01  0.23527914648E+02 -0.14195691389E+03  0.14411848503E+03  0.00000000000E+00 0.  1.
         14    1    6    6    0    0 -0.30859333856E+02  0.47286388346E+02 -0.43172343006E+02  0.71078493298E+02  0.00000000000E+00 0. -1.
         -5    1    3    3    0  503 -0.67417737061E+02 -0.14693314634E+03 -0.57105100663E+02  0.17151554823E+03  0.47000000000E+01 0.  1.
         11    1    4    4    0    0 -0.37476903890E+02 -0.37881261109E+02 -0.57403187486E+02  0.78323905687E+02  0.00000000000E+00 0. -1.
        -12    1    4    4    0    0  0.13320679662E+02  0.26457290698E+02 -0.21604276017E+02  0.36662971510E+02  0.00000000000E+00 0.  1.
</event>
<event>
12    1  0.1030140E-001  0.1762990E+03  0.7818608E-02  0.1171487E+00
         21   -1    0    0  501  502  0.00000000000E+00  0.00000000000E+00  0.40067035194E+03  0.40067035194E+03  0.00000000000E+00 0.  1.
         21   -1    0    0  502  503 -0.00000000000E+00 -0.00000000000E+00 -0.86496291998E+02  0.86496291998E+02  0.00000000000E+00 0.  1.
         -6    2    1    2    0  503  0.12530745301E+02 -0.35326428869E+02  0.78357605429E+02  0.19273375699E+03  0.17205060477E+03 0.  0.
        -24    2    3    3    0    0 -0.42666722547E+02 -0.29556375138E+01 -0.17486397075E+00  0.91323366304E+02  0.80689166867E+02 0.  0.
          6    2    1    2  501    0 -0.12530745301E+02  0.35326428869E+02  0.23581645452E+03  0.29443288695E+03  0.17226824589E+03 0.  0.
         24    2    5    5    0    0 -0.68434611167E+02  0.10005551212E+02  0.19363084752E+03  0.21981315429E+03  0.77727155023E+02 0.  0.
          5    1    5    5  501    0  0.55903865866E+02  0.25320877657E+02  0.42185606999E+02  0.74619732658E+02  0.47000000000E+01 0. -1.
        -11    1    6    6    0    0 -0.42109382859E+02  0.19068660777E+02  0.33022125452E+02  0.56809107703E+02  0.00000000000E+00 0.  1.
         12    1    6    6    0    0 -0.26325228307E+02 -0.90631095649E+01  0.16060872206E+03  0.16300404659E+03  0.00000000000E+00 0. -1.
         -5    1    3    3    0  503  0.55197467847E+02 -0.32370791355E+02  0.78532469400E+02  0.10141039069E+03  0.47000000000E+01 0.  1.
         11    1    4    4    0    0 -0.19442768099E+01  0.31000524793E+02 -0.17363043379E+02  0.35584940988E+02  0.00000000000E+00 0. -1.
        -12    1    4    4    0    0 -0.40722445737E+02 -0.33956162306E+02  0.17188179408E+02  0.55738425316E+02  0.00000000000E+00 0.  1.
</event>
<event>
12    1  0.1030140E-001  0.1999490E+03  0.7818608E-02  0.1149921E+00
         21   -1    0    0  503  502  0.00000000000E+00  0.00000000000E+00  0.47610375778E+03  0.47610375778E+03  0.00000000000E+00 0. -1.
         21   -1    0    0  501  503 -0.00000000000E+00 -0.00000000000E+00 -0.39898277983E+03  0.39898277983E+03  0.00000000000E+00 0. -1.
          6    2    1    2  501    0 -0.90415205003E+02  0.47503452303E+02 -0.35037833445E+03  0.40341614667E+03  0.17189567438E+03 0.  0.
         24    2    3    3    0    0 -0.65207678417E+02 -0.32132875234E+02 -0.12392830995E+03  0.16200556767E+03  0.74853289527E+02 0.  0.
         -6    2    1    2    0  502  0.90415205003E+02 -0.47503452303E+02  0.42749931240E+03  0.47167039094E+03  0.17113096829E+03 0.  0.
        -24    2    5    5    0    0  0.41503866748E+02 -0.87636474575E+02  0.35296678651E+03  0.37379206902E+03  0.75711530496E+02 0.  0.
          5    1    3    3  501    0 -0.25207526586E+02  0.79636327537E+02 -0.22645002450E+03  0.24141057901E+03  0.47000000000E+01 0. -1.
        -11    1    4    4    0    0  0.58633653209E+01 -0.28741081237E+02 -0.18053536030E+02  0.34443562051E+02  0.00000000000E+00 0.  1.
         12    1    4    4    0    0 -0.71071043738E+02 -0.33917939974E+01 -0.10587477392E+03  0.12756200562E+03  0.00000000000E+00 0. -1.
         -5    1    5    5    0  502  0.48911338256E+02  0.40133022272E+02  0.74532525894E+02  0.97878321925E+02  0.47000000000E+01 0.  1.
         11    1    6    6    0    0  0.12018600547E+02 -0.87087922865E+02  0.20731778988E+03  0.22518751979E+03  0.00000000000E+00 0. -1.
        -12    1    6    6    0    0  0.29485266201E+02 -0.54855170957E+00  0.14564899663E+03  0.14860454923E+03  0.00000000000E+00 0.  1.
</event>
<event>
12    1  0.1030140E-001  0.2419164E+03  0.7818608E-02  0.1118699E+00
         21   -1    0    0  501  502  0.00000000000E+00  0.00000000000E+00  0.16595972814E+03  0.16595972814E+03  0.00000000000E+00 0. -1.
         21   -1    0    0  502  503 -0.00000000000E+00 -0.00000000000E+00 -0.58214249947E+03  0.58214249947E+03  0.00000000000E+00 0.  1.
         -6    2    1    2    0  503  0.15275162758E+03  0.70171678347E+02 -0.44346959487E+03  0.50465174255E+03  0.17248471096E+03 0.  0.
        -24    2    3    3    0    0  0.17802586731E+03  0.41762170086E+02 -0.33857151125E+03  0.39297549037E+03  0.79760764288E+02 0.  0.
          6    2    1    2  501    0 -0.15275162758E+03 -0.70171678347E+02  0.27286823547E+02  0.24345048506E+03  0.17397253739E+03 0.  0.
         24    2    5    5    0    0 -0.15879084251E+03 -0.30338687751E+02  0.61675249048E+02  0.19027348754E+03  0.79152991573E+02 0.  0.
          5    1    5    5  501    0  0.60392149365E+01 -0.39832990596E+02 -0.34388425501E+02  0.53176997521E+02  0.47000000000E+01 0. -1.
        -11    1    6    6    0    0 -0.66854591290E+02  0.73248066449E+01  0.61182610756E+02  0.90920300416E+02  0.00000000000E+00 0.  1.
         12    1    6    6    0    0 -0.91936251222E+02 -0.37663494396E+02  0.49263829247E+00  0.99353187122E+02  0.00000000000E+00 0. -1.
         -5    1    3    3    0  503 -0.25274239731E+02  0.28409508261E+02 -0.10489808363E+03  0.11167625218E+03  0.47000000000E+01 0.  1.
         11    1    4    4    0    0 -0.12958916887E+01 -0.11533058654E+02 -0.12545521663E+02  0.17090374220E+02  0.00000000000E+00 0. -1.
        -12    1    4    4    0    0  0.17932175900E+03  0.53295228740E+02 -0.32602598959E+03  0.37588511615E+03  0.00000000000E+00 0.  1.
</event>
<event>
12    1  0.1030140E-001  0.2039528E+03  0.7818608E-02  0.1146617E+00
         21   -1    0    0  503  502  0.00000000000E+00  0.00000000000E+00  0.72760937959E+03  0.72760937959E+03  0.00000000000E+00 0. -1.
         21   -1    0    0  501  503 -0.00000000000E+00 -0.00000000000E+00 -0.82628928387E+02  0.82628928387E+02  0.00000000000E+00 0. -1.
          6    2    1    2  501    0  0.65423153358E+02 -0.86553387999E+02  0.54793848820E+03  0.58437578791E+03  0.17171719969E+03 0.  0.
         24    2    3    3    0    0  0.35670227592E+02 -0.51816958918E+02  0.13506751811E+03  0.16895264935E+03  0.79651747680E+02 0.  0.
         -6    2    1    2    0  502 -0.65423153358E+02  0.86553387999E+02  0.97041962999E+02  0.22586252007E+03  0.17269932663E+03 0.  0.
        -24    2    5    5    0    0  0.20704655842E+01  0.17792751079E+02 -0.14170409047E+02  0.78642631862E+02  0.75252868615E+02 0.  0.
          5    1    3    3  501    0  0.29752925765E+02 -0.34736429081E+02  0.41287097010E+03  0.41542313855E+03  0.47000000000E+01 0. -1.
        -11    1    4    4    0    0  0.20010986953E+02 -0.24869403750E+01  0.10928627782E+03  0.11113107122E+03  0.00000000000E+00 0.  1.
         12    1    4    4    0    0  0.15659240639E+02 -0.49330018543E+02  0.25781240285E+02  0.57821578130E+02  0.00000000000E+00 0. -1.
         -5    1    5    5    0  502 -0.67493618942E+02  0.68760636920E+02  0.11121237205E+03  0.14721988821E+03  0.47000000000E+01 0.  1.
         13    1    6    6    0    0  0.12311617618E+02  0.25532181587E+02 -0.40451420720E+02  0.49394186533E+02  0.00000000000E+00 0. -1.
        -14    1    6    6    0    0 -0.10241152034E+02 -0.77394305079E+01  0.26281011673E+02  0.29248445329E+02  0.00000000000E+00 0.  1.
</event>
<event>
12    1  0.1030140E-001  0.2279831E+03  0.7818608E-02  0.1128098E+00
         21   -1    0    0  503  502  0.00000000000E+00  0.00000000000E+00  0.27741149701E+03  0.27741149701E+03  0.00000000000E+00 0.  1.
         21   -1    0    0  501  503 -0.00000000000E+00 -0.00000000000E+00 -0.18840315952E+03  0.18840315952E+03  0.00000000000E+00 0.  1.
          6    2    1    2  501    0  0.10478143382E+03 -0.10676792283E+03  0.62947381157E+02  0.23634681899E+03  0.17181067439E+03 0.  0.
         24    2    3    3    0    0  0.10836659345E+03 -0.12202854980E+03  0.93203013160E+02  0.20194865955E+03  0.73906521302E+02 0.  0.
         -6    2    1    2    0  502 -0.10478143382E+03  0.10676792283E+03  0.26060956330E+02  0.22946783754E+03  0.17204004418E+03 0.  0.
        -24    2    5    5    0    0 -0.12723448931E+03  0.82747143359E+02 -0.21414156123E+02  0.17152723131E+03  0.76989090094E+02 0.  0.
          5    1    3    3  501    0 -0.35851596327E+01  0.15260626963E+02 -0.30255632003E+02  0.34398159439E+02  0.47000000000E+01 0. -1.
        -13    1    4    4    0    0  0.62937575464E+02 -0.10767551091E+03  0.41030284609E+02  0.13129599502E+03  0.00000000000E+00 0.  1.
         14    1    4    4    0    0  0.45429017985E+02 -0.14353038893E+02  0.52172728551E+02  0.70652664529E+02  0.00000000000E+00 0. -1.
         -5    1    5    5    0  502  0.22453055496E+02  0.24020779476E+02  0.47475112453E+02  0.57940606229E+02  0.47000000000E+01 0.  1.
         11    1    6    6    0    0 -0.77190660802E+02  0.46753417258E+01 -0.65430196766E+01  0.77608427647E+02  0.00000000000E+00 0. -1.
        -12    1    6    6    0    0 -0.50043828511E+02  0.78071801633E+02 -0.14871136446E+02  0.93918803663E+02  0.00000000000E+00 0.  1.
</event>
<event>
12    1  0.1030140E-001  0.1925351E+03  0.7818608E-02  0.1156818E+00
         21   -1    0    0  503  502  0.00000000000E+00  0.00000000000E+00  0.18862999185E+03  0.18862999185E+03  0.00000000000E+00 0.  1.
         21   -1    0    0  501  503 -0.00000000000E+00 -0.00000000000E+00 -0.23603166842E+03  0.23603166842E+03  0.00000000000E+00 0. -1.
          6    2    1    2  501    0  0.53442169660E+02 -0.63142545591E+02 -0.11349558424E+03  0.22109802328E+03  0.17076311573E+03 0.  0.
         24    2    3    3    0    0 -0.28759502198E+02 -0.38612176710E+02 -0.60165177688E+02  0.11997890483E+03  0.91962382748E+02 0.  0.
         -6    2    1    2    0  502 -0.53442169660E+02  0.63142545591E+02  0.66093907659E+02  0.20356363699E+03  0.17385828457E+03 0.  0.
        -24    2    5    5    0    0 -0.17061801234E+02  0.44248515150E+02  0.10987635277E+03  0.14340128919E+03  0.79006839517E+02 0.  0.
          5    1    3    3  501    0  0.82201671858E+02 -0.24530368881E+02 -0.53330406549E+02  0.10111911845E+03  0.47000000000E+01 0. -1.
        -13    1    4    4    0    0  0.31688575331E+02  0.44016727188E+00 -0.15497584194E+02  0.35277962945E+02  0.00000000000E+00 0.  1.
         14    1    4    4    0    0 -0.60448077529E+02 -0.39052343982E+02 -0.44667593494E+02  0.84700941883E+02  0.00000000000E+00 0. -1.
         -5    1    5    5    0  502 -0.36380368426E+02  0.18894030440E+02 -0.43782445107E+02  0.60162347799E+02  0.47000000000E+01 0.  1.
         13    1    6    6    0    0  0.49848789496E+01 -0.21877655726E+02  0.26164026613E+02  0.34467914454E+02  0.00000000000E+00 0. -1.
        -14    1    6    6    0    0 -0.22046680184E+02  0.66126170876E+02  0.83712326153E+02  0.10893337474E+03  0.00000000000E+00 0.  1.
</event>
<event>
12    1  0.1030140E-001  0.2437129E+03  0.7818608E-02  0.1117842E+00
         21   -1    0    0  503  502  0.00000000000E+00  0.00000000000E+00  0.13233482568E+03  0.13233482568E+03  0.00000000000E+00 0. -1.
         21   -1    0    0  501  503 -0.00000000000E+00 -0.00000000000E+00 -0.53106741960E+03  0.53106741960E+03  0.00000000000E+00 0.  1.
          6    2    1    2  501    0 -0.16761415269E+03  0.39254527086E+02 -0.65540580498E+02  0.25237183062E+03  0.17251246656E+03 0.  0.
         24    2    3    3    0    0 -0.44269629707E+02  0.72671165977E+02 -0.21787272182E+02  0.11721641973E+03  0.77615110291E+02 0.  0.
         -6    2    1    2    0  502  0.16761415269E+03 -0.39254527086E+02 -0.33319201342E+03  0.41103041466E+03  0.16820719927E+03 0.  0.
        -24    2    5    5    0    0  0.50509512546E+02  0.29512209081E+02 -0.18924811096E+03  0.21308017393E+03  0.78524720179E+02 0.  0.
          5    1    3    3  501    0 -0.12334452298E+03 -0.33416638892E+02 -0.43753308316E+02  0.13515541089E+03  0.47000000000E+01 0. -1.
        -11    1    4    4    0    0 -0.24895880469E+02 -0.10910932861E+02 -0.15255110926E+02  0.31170045390E+02  0.00000000000E+00 0.  1.
         12    1    4    4    0    0 -0.19373749238E+02  0.83582098839E+02 -0.65321612561E+01  0.86046374337E+02  0.00000000000E+00 0. -1.
         -5    1    5    5    0  502  0.11710464014E+03 -0.68766736166E+02 -0.14394390247E+03  0.19795024073E+03  0.47000000000E+01 0.  1.
         11    1    6    6    0    0  0.63802220902E+02  0.23969763419E+02 -0.90534612807E+02  0.11332161783E+03  0.00000000000E+00 0. -1.
        -12    1    6    6    0    0 -0.13292708356E+02  0.55424456615E+01 -0.98713498149E+02  0.99758556105E+02  0.00000000000E+00 0.  1.
</event>
<event>
12    1  0.1030140E-001  0.2078648E+03  0.7818608E-02  0.1143311E+00
         21   -1    0    0  503  502  0.00000000000E+00  0.00000000000E+00  0.27390531897E+03  0.27390531897E+03  0.00000000000E+00 0. -1.
         21   -1    0    0  501  503 -0.00000000000E+00 -0.00000000000E+00 -0.20967294764E+03  0.20967294764E+03  0.00000000000E+00 0. -1.
          6    2    1    2  501    0  0.79395595464E+02 -0.85965556390E+02 -0.88384836303E+02  0.22587530874E+03  0.17179650271E+03 0.  0.
         24    2    3    3    0    0 -0.27945566706E+02 -0.34481061958E+02 -0.26207910009E+02  0.91484689921E+02  0.75582376323E+02 0.  0.
         -6    2    1    2    0  502 -0.79395595464E+02  0.85965556390E+02  0.15261720764E+03  0.25770295788E+03  0.17153735735E+03 0.  0.
        -24    2    5    5    0    0  0.17658044274E+02  0.72084059406E+02  0.63423418173E+02  0.12507668965E+03  0.78190345777E+02 0.  0.
          5    1    3    3  501    0  0.10734116217E+03 -0.51484494432E+02 -0.62176926294E+02  0.13439061882E+03  0.47000000000E+01 0. -1.
        -13    1    4    4    0    0 -0.46700356567E+02 -0.32964697780E+02 -0.38581574606E+02  0.68964719258E+02  0.00000000000E+00 0.  1.
         14    1    4    4    0    0  0.18754789862E+02 -0.15163641780E+01  0.12373664597E+02  0.22519970663E+02  0.00000000000E+00 0. -1.
         -5    1    5    5    0  502 -0.97053639738E+02  0.13881496984E+02  0.89193789464E+02  0.13262626823E+03  0.47000000000E+01 0.  1.
         11    1    6    6    0    0 -0.27094957360E+02  0.10786313593E+02  0.56791505766E+01  0.29710840220E+02  0.00000000000E+00 0. -1.
        -12    1    6    6    0    0  0.44753001635E+02  0.61297745813E+02  0.57744267596E+02  0.95365849429E+02  0.00000000000E+00 0.  1.
</event>
<event>
12    1  0.1030140E-001  0.1945148E+03  0.7818608E-02  0.1155786E+00
         21   -1    0    0  503  502  0.00000000000E+00  0.00000000000E+00  0.76985272325E+03  0.76985272325E+03  0.00000000000E+00 0. -1.
         21   -1    0    0  501  503 -0.00000000000E+00 -0.00000000000E+00 -0.67751334025E+02  0.67751334025E+02  0.00000000000E+00 0. -1.
          6    2    1    2  501    0 -0.58123340759E+02  0.49823841880E+02  0.11904224979E+03  0.22295459955E+03  0.17227001557E+03 0.  0.
         24    2    3    3    0    0 -0.83291593640E+01  0.22542756589E+02  0.13810382124E+03  0.16287838444E+03  0.82940652934E+02 0.  0.
         -6    2    1    2    0  502  0.58123340759E+02 -0.49823841880E+02  0.58305913944E+03  0.61464945773E+03  0.17881626838E+03 0.  0.
        -24    2    5    5    0    0  0.27112594862E+01  0.38773709622E+02  0.31388632796E+03  0.32586559854E+03  0.78441124089E+02 0.  0.
          5    1    3    3  501    0 -0.49794181395E+02  0.27281085291E+02 -0.19061571449E+02  0.60076215107E+02  0.47000000000E+01 0. -1.
        -13    1    4    4    0    0  0.19050593303E+02 -0.86648825401E+01  0.25186780466E+01  0.21079588083E+02  0.00000000000E+00 0.  1.
         14    1    4    4    0    0 -0.27379752667E+02  0.31207639129E+02  0.13558514319E+03  0.14179879636E+03  0.00000000000E+00 0. -1.
         -5    1    5    5    0  502  0.55412081273E+02 -0.88597551502E+02  0.26917281148E+03  0.28878385918E+03  0.47000000000E+01 0.  1.
         11    1    6    6    0    0  0.28508496826E+02  0.41106019928E+02  0.11648659113E+03  0.12677367699E+03  0.00000000000E+00 0. -1.
        -12    1    6    6    0    0 -0.25797237340E+02 -0.23323103062E+01  0.19739973683E+03  0.19909192155E+03  0.00000000000E+00 0.  1.
</event>
<event>
12    1  0.1030140E-001  0.1735285E+03  0.7818608E-02  0.1174441E+00
         21   -1    0    0  503  502  0.00000000000E+00  0.00000000000E+00  0.54233120135E+02  0.54233120135E+02  0.00000000000E+00 0.  1.
         21   -1    0    0  501  503 -0.00000000000E+00 -0.00000000000E+00 -0.57845452973E+03  0.57845452973E+03  0.00000000000E+00 0.  1.
          6    2    1    2  501    0  0.16884618161E+02 -0.54575901773E+01 -0.32985115451E+03  0.37271160358E+03  0.17261888566E+03 0.  0.
         24    2    3    3    0    0 -0.17889480317E+02 -0.12145977045E+01 -0.61915606333E+02  0.10245470933E+03  0.79636150099E+02 0.  0.
         -6    2    1    2    0  502 -0.16884618161E+02  0.54575901773E+01 -0.19437025508E+03  0.25997604628E+03  0.17173489151E+03 0.  0.
        -24    2    5    5    0    0 -0.75012770837E+02  0.14729201440E+02 -0.15025221727E+03  0.18626487909E+03  0.79214968443E+02 0.  0.
          5    1    3    3  501    0  0.34774098479E+02 -0.42429924728E+01 -0.26793554818E+03  0.27025689425E+03  0.47000000000E+01 0. -1.
        -13    1    4    4    0    0 -0.16901969757E+02 -0.16909867982E+02 -0.77022520646E+02  0.80647931799E+02  0.00000000000E+00 0.  1.
         14    1    4    4    0    0 -0.98751056043E+00  0.15695270278E+02  0.15106914313E+02  0.21806777530E+02  0.00000000000E+00 0. -1.
         -5    1    5    5    0  502  0.58128152675E+02 -0.92716112622E+01 -0.44118037812E+02  0.73711167194E+02  0.47000000000E+01 0.  1.
         13    1    6    6    0    0 -0.86394970135E+01  0.19803287953E+02 -0.10144979894E+03  0.10372498651E+03  0.00000000000E+00 0. -1.
        -14    1    6    6    0    0 -0.66373273823E+02 -0.50740865135E+01 -0.48802418326E+02  0.82539892576E+02  0.00000000000E+00 0.  1.
</event>
<event>
12    1  0.1030140E-001  0.1871475E+03  0.7818608E-02  0.1161066E+00
         21   -1    0    0  501  502  0.00000000000E+00  0.00000000000E+00  0.80405555068E+02  0.80405555068E+02  0.00000000000E+00 0. -1.
         21   -1    0    0  502  503 -0.00000000000E+00 -0.00000000000E+00 -0.67651798331E+03  0.67651798331E+03  0.00000000000E+00 0.  1.
         -6    2    1    2    0  503  0.20493502812E+02  0.70534001684E+02 -0.52392350003E+03  0.55633580355E+03  0.17210073614E+03 0.  0.
        -24    2    3    3    0    0  0.29474357861E+02 -0.20030313679E+02 -0.17780825921E+03  0.19842464013E+03  0.80539490502E+02 0.  0.
          6    2    1    2  501    0 -0.20493502812E+02 -0.70534001684E+02 -0.72188928218E+02  0.20058773483E+03  0.17213125502E+03 0.  0.
         24    2    5    5    0    0  0.25768797040E+02 -0.92303329552E+02 -0.82934892128E+02  0.14813137426E+03  0.76686192770E+02 0.  0.
          5    1    5    5  501    0 -0.46262299852E+02  0.21769327868E+02  0.10745963910E+02  0.52456360566E+02  0.47000000000E+01 0. -1.
        -11    1    6    6    0    0  0.59706226433E+01 -0.62936619357E+02 -0.91948848213E+02  0.11158520098E+03  0.00000000000E+00 0.  1.
         12    1    6    6    0    0  0.19798174396E+02 -0.29366710195E+02  0.90139560849E+01  0.36546173280E+02  0.00000000000E+00 0. -1.
         -5    1    3    3    0  503 -0.89808550481E+01  0.90564315363E+02 -0.34611524082E+03  0.35791116342E+03  0.47000000000E+01 0.  1.
         13    1    4    4    0    0  0.19048050823E+02 -0.39172344008E+02 -0.16964675945E+03  0.17514943268E+03  0.00000000000E+00 0. -1.
        -14    1    4    4    0    0  0.10426307037E+02  0.19142030330E+02 -0.81614997565E+01  0.23275207450E+02  0.00000000000E+00 0.  1.
</event>
<event>
12    1  0.1030140E-001  0.1763779E+03  0.7818608E-02  0.1171470E+00
         21   -1    0    0  501  502  0.00000000000E+00  0.00000000000E+00  0.82076432205E+02  0.82076432205E+02  0.00000000000E+00 0.  1.
         21   -1    0    0  502  503 -0.00000000000E+00 -0.00000000000E+00 -0.63643038917E+03  0.63643038917E+03  0.00000000000E+00 0.  1.
         -6    2    1    2    0  503  0.13406270788E+02 -0.32770193444E+02 -0.50587301142E+03  0.53558721717E+03  0.17231526292E+03 0.  0.
        -24    2    3    3    0    0 -0.58862648623E+02 -0.29215326867E+02 -0.30004160767E+03  0.31735777241E+03  0.79828833445E+02 0.  0.
          6    2    1    2  501    0 -0.13406270788E+02  0.32770193444E+02 -0.48480945540E+02  0.18291960420E+03  0.17278763221E+03 0.  0.
         24    2    5    5    0    0  0.34426711101E+02  0.19669215112E+02  0.26883167917E+02  0.92578753051E+02  0.79221489123E+02 0.  0.
          5    1    5    5  501    0 -0.47832981889E+02  0.13100978331E+02 -0.75364113456E+02  0.90340851151E+02  0.47000000000E+01 0. -1.
        -13    1    6    6    0    0 -0.20660751343E+02  0.10020502327E+01  0.27500095285E+02  0.34411131795E+02  0.00000000000E+00 0.  1.
         14    1    6    6    0    0  0.55087462444E+02  0.18667164880E+02 -0.61692736803E+00  0.58167621256E+02  0.00000000000E+00 0. -1.
         -5    1    3    3    0  503  0.72268919411E+02 -0.35548665766E+01 -0.20583140376E+03  0.21822944476E+03  0.47000000000E+01 0.  1.
         11    1    4    4    0    0  0.20664281798E+00 -0.60725501759E+01  0.36650006081E+01  0.70958295040E+01  0.00000000000E+00 0. -1.
        -12    1    4    4    0    0 -0.59069291441E+02 -0.23142776691E+02 -0.30370660827E+03  0.31026194290E+03  0.00000000000E+00 0.  1.
</event>
<event>
12    1  0.1030140E-001  0.2133102E+03  0.7818608E-02  0.1138988E+00
         21   -1    0    0  503  502  0.00000000000E+00  0.00000000000E+00  0.10780261945E+04  0.10780261945E+04  0.00000000000E+00 0.  1.
         21   -1    0    0  501  503 -0.00000000000E+00 -0.00000000000E+00 -0.59354470351E+02  0.59354470351E+02  0.00000000000E+00 0.  1.
          6    2    1    2  501    0 -0.10580760085E+03  0.66328543223E+02  0.20359805149E+03  0.29487863675E+03  0.17293501611E+03 0.  0.
         24    2    3    3    0    0 -0.16649257538E+02  0.83839286473E+02  0.81958900167E+02  0.14297732192E+03  0.80118846314E+02 0.  0.
         -6    2    1    2    0  502  0.10580760085E+03 -0.66328543223E+02  0.81507367265E+03  0.84250202809E+03  0.17282896588E+03 0.  0.
        -24    2    5    5    0    0  0.10658995188E+03 -0.22432646472E+02  0.75962188456E+03  0.77161865468E+03  0.80655435448E+02 0.  0.
          5    1    3    3  501    0 -0.89158343316E+02 -0.17510743250E+02  0.12163915133E+03  0.15190131483E+03  0.47000000000E+01 0. -1.
        -11    1    4    4    0    0 -0.48466023141E+02  0.60944094691E+02  0.57146632262E+02  0.96586104879E+02  0.00000000000E+00 0.  1.
         12    1    4    4    0    0  0.31816765603E+02  0.22895191782E+02  0.24812267905E+02  0.46391217044E+02  0.00000000000E+00 0. -1.
         -5    1    5    5    0  502 -0.78235102907E+00 -0.43895896751E+02  0.55451788087E+02  0.70883373415E+02  0.47000000000E+01 0.  1.
         13    1    6    6    0    0  0.31853674240E+02  0.24216815068E+02  0.13471317385E+03  0.14053024551E+03  0.00000000000E+00 0. -1.
        -14    1    6    6    0    0  0.74736277643E+02 -0.46649461540E+02  0.62490871071E+03  0.63108840916E+03  0.00000000000E+00 0.  1.
</event>
<event>
12    1  0.1030140E-001  0.1850514E+03  0.7818608E-02  0.1163085E+00
         21   -1    0    0  503  502  0.00000000000E+00  0.00000000000E+00  0.95245843553E+02  0.95245843553E+02  0.00000000000E+00 0. -1.
         21   -1    0    0  501  503 -0.00000000000E+00 -0.00000000000E+00 -0.36025276218E+03  0.36025276218E+03  0.00000000000E+00 0. -1.
          6    2    1    2  501    0  0.67862425699E+02 -0.14264386375E+02 -0.14663224527E+03  0.23582482949E+03  0.17118280670E+03 0.  0.
         24    2    3    3    0    0  0.39304436966E+02  0.27897576231E+02 -0.14708243100E+02  0.94335528973E+02  0.79748016193E+02 0.  0.
         -6    2    1    2    0  502 -0.67862425699E+02  0.14264386375E+02 -0.11837467335E+03  0.21967377624E+03  0.17156696400E+03 0.  0.
        -24    2    5    5    0    0 -0.74680819471E+02  0.66416137997E+02 -0.68486661826E+02  0.14702944140E+03  0.83300093675E+02 0.  0.
          5    1    3    3  501    0  0.28557988732E+02 -0.42161962605E+02 -0.13192400217E+03  0.14148930051E+03  0.47000000000E+01 0. -1.
        -13    1    4    4    0    0 -0.24533844424E+02  0.12384964556E+02 -0.39831437369E+01  0.27769809206E+02  0.00000000000E+00 0.  1.
         14    1    4    4    0    0  0.63838281390E+02  0.15512611674E+02 -0.10725099363E+02  0.66565719768E+02  0.00000000000E+00 0. -1.
         -5    1    5    5    0  502  0.68183937727E+01 -0.52151751623E+02 -0.49888011526E+02  0.72644334844E+02  0.47000000000E+01 0.  1.
         11    1    6    6    0    0 -0.11294208932E+02  0.17922445240E+01  0.18330361279E+02  0.21604940187E+02  0.00000000000E+00 0. -1.
        -12    1    6    6    0    0 -0.63386610539E+02  0.64623893473E+02 -0.86817023105E+02  0.12542450121E+03  0.00000000000E+00 0.  1.
</event>
<event>
12    1  0.1030140E-001  0.1750181E+03  0.7818608E-02  0.1172853E+00
         21   -1    0    0  501  502  0.00000000000E+00  0.00000000000E+00  0.64660716799E+03  0.64660716799E+03  0.00000000000E+00 0.  1.
         21   -1    0    0  502  503 -0.00000000000E+00 -0.00000000000E+00 -0.24696155994E+03  0.24696155994E+03  0.00000000000E+00 0.  1.
         -6    2    1    2    0  503 -0.81712111720E+01  0.24016187374E+02 -0.20192075294E+03  0.26721402495E+03  0.17316985510E+03 0.  0.
        -24    2    3    3    0    0  0.51716815979E+02 -0.83826212672E+01 -0.16247261774E+03  0.18838189972E+03  0.79658591706E+02 0.  0.
          6    2    1    2  501    0  0.81712111720E+01 -0.24016187374E+02  0.60156636099E+03  0.62635470298E+03  0.17261106950E+03 0.  0.
         24    2    5    5    0    0  0.71665651132E+02 -0.22995175027E+02  0.37093057056E+03  0.38709011261E+03  0.81145076751E+02 0.  0.
          5    1    5    5  501    0 -0.63494439960E+02 -0.10210123472E+01  0.23063579043E+03  0.23926459036E+03  0.47000000000E+01 0. -1.
        -11    1    6    6    0    0  0.49434438254E+02 -0.31333904035E+02  0.35169682674E+03  0.35653363819E+03  0.00000000000E+00 0.  1.
         12    1    6    6    0    0  0.22231212878E+02  0.83387290080E+01  0.19233743823E+02  0.30556474420E+02  0.00000000000E+00 0. -1.
         -5    1    3    3    0  503 -0.59888027151E+02  0.32398808641E+02 -0.39448135200E+02  0.78832125229E+02  0.47000000000E+01 0.  1.
         13    1    4    4    0    0  0.51178523264E+02 -0.73038563237E+01 -0.38635848614E+02  0.64539262150E+02  0.00000000000E+00 0. -1.
        -14    1    4    4    0    0  0.53829271488E+00 -0.10787649435E+01 -0.12383676913E+03  0.12384263757E+03  0.00000000000E+00 0.  1.
</event>
<event>
12    1  0.1030140E-001  0.1772715E+03  0.7818608E-02  0.1171049E+00
         21   -1    0    0  503  502  0.00000000000E+00  0.00000000000E+00  0.24179657348E+04  0.24179657348E+04  0.00000000000E+00 0. -1.
         21   -1    0    0  501  503 -0.00000000000E+00 -0.00000000000E+00 -0.54544678965E+02  0.54544678965E+02  0.00000000000E+00 0. -1.
          6    2    1    2  501    0 -0.26475277019E+02 -0.25154902418E+02  0.98707089332E+02  0.20086903693E+03  0.17108936585E+03 0.  0.
         24    2    3    3    0    0  0.27786265303E+02  0.24315750689E+02  0.15145402550E+02  0.89530337499E+02  0.80143407984E+02 0.  0.
         -6    2    1    2    0  502  0.26475277019E+02  0.25154902418E+02  0.22647139665E+04  0.22716413769E+04  0.17346897546E+03 0.  0.
        -24    2    5    5    0    0  0.17882236674E+02  0.52569142216E+02  0.21783556934E+04  0.21805083849E+04  0.79372542710E+02 0.  0.
          5    1    3    3  501    0 -0.54261542321E+02 -0.49470653107E+02  0.83561686782E+02  0.11133869943E+03  0.47000000000E+01 0. -1.
        -11    1    4    4    0    0  0.10520968465E+02  0.15442482438E+02 -0.32830666344E+02  0.37775834787E+02  0.00000000000E+00 0.  1.
         12    1    4    4    0    0  0.17265296838E+02  0.88732682515E+01  0.47976068895E+02  0.51754502712E+02  0.00000000000E+00 0. -1.
         -5    1    5    5    0  502  0.85930403448E+01 -0.27414239798E+02  0.86358273171E+02  0.91132992002E+02  0.47000000000E+01 0.  1.
         11    1    6    6    0    0  0.34557201588E+02 -0.20791213213E+01  0.50944445926E+03  0.51061940817E+03  0.00000000000E+00 0. -1.
        -12    1    6    6    0    0 -0.16674964915E+02  0.54648263538E+02  0.16689112341E+04  0.16698889767E+04  0.00000000000E+00 0.  1.
</event>
<event>
12    1  0.1030140E-001  0.1974226E+03  0.7818608E-02  0.1152064E+00
         21   -1    0    0  503  502  0.00000000000E+00  0.00000000000E+00  0.12795284106E+03  0.12795284106E+03  0.00000000000E+00 0. -1.
         21   -1    0    0  501  503 -0.00000000000E+00 -0.00000000000E+00 -0.32341947907E+03  0.32341947907E+03  0.00000000000E+00 0. -1.
          6    2    1    2  501    0 -0.85503427902E+02 -0.42033898938E+02 -0.42098645348E+02  0.20186126209E+03  0.17291034772E+03 0.  0.
         24    2    3    3    0    0 -0.12754772451E+03 -0.26727249519E+02 -0.28668595346E+02  0.15490945023E+03  0.78691051050E+02 0.  0.
         -6    2    1    2    0  502  0.85503427902E+02  0.42033898938E+02 -0.15336799266E+03  0.24951105804E+03  0.17221016831E+03 0.  0.
        -24    2    5    5    0    0  0.10186377856E+03  0.78802510797E+02 -0.96555745083E+02  0.17973059253E+03  0.79962546813E+02 0.  0.
          5    1    3    3  501    0  0.42044296610E+02 -0.15306649419E+02 -0.13430050002E+02  0.46951811860E+02  0.47000000000E+01 0. -1.
        -11    1    4    4    0    0 -0.18117666930E+02  0.11330307409E+02  0.19976891483E+02  0.29252383054E+02  0.00000000000E+00 0.  1.
         12    1    4    4    0    0 -0.10943005758E+03 -0.38057556928E+02 -0.48645486830E+02  0.12565706717E+03  0.00000000000E+00 0. -1.
         -5    1    5    5    0  502 -0.16360350656E+02 -0.36768611859E+02 -0.56812247580E+02  0.69780465509E+02  0.47000000000E+01 0.  1.
         13    1    6    6    0    0  0.54782716655E+02  0.16369190431E+02 -0.22463100486E+01  0.57220121883E+02  0.00000000000E+00 0. -1.
        -14    1    6    6    0    0  0.47081061903E+02  0.62433320366E+02 -0.94309435035E+02  0.12251047065E+03  0.00000000000E+00 0.  1.
</event>
<event>
12    1  0.1030140E-001  0.1878698E+03  0.7818608E-02  0.1160606E+00
         21   -1    0    0  501  502  0.00000000000E+00  0.00000000000E+00  0.27014795408E+03  0.27014795408E+03  0.00000000000E+00 0. -1.
         21   -1    0    0  502  503 -0.00000000000E+00 -0.00000000000E+00 -0.14372590548E+03  0.14372590548E+03  0.00000000000E+00 0.  1.
         -6    2    1    2    0  503  0.76240012179E+02  0.88411128510E+01 -0.83818760861E+00  0.18695924901E+03  0.17047684153E+03 0.  0.
        -24    2    3    3    0    0  0.45631650228E+02  0.47946842538E+02  0.46957236185E+02  0.11787507969E+03  0.85489210833E+02 0.  0.
          6    2    1    2  501    0 -0.76240012179E+02 -0.88411128510E+01  0.12726023621E+03  0.22691461055E+03  0.17147701895E+03 0.  0.
         24    2    5    5    0    0 -0.94887616374E+02 -0.39006373234E+02  0.42649382637E+02  0.13505187263E+03  0.76778132097E+02 0.  0.
          5    1    5    5  501    0  0.18647604195E+02  0.30165260383E+02  0.84610853570E+02  0.91862737919E+02  0.47000000000E+01 0. -1.
        -11    1    6    6    0    0 -0.12902820275E+02  0.20370930788E+02 -0.24382971091E+01  0.24236395875E+02  0.00000000000E+00 0.  1.
         12    1    6    6    0    0 -0.81984796099E+02 -0.59377304022E+02  0.45087679746E+02  0.11081547676E+03  0.00000000000E+00 0. -1.
         -5    1    3    3    0  503  0.30608361951E+02 -0.39105729687E+02 -0.47795423793E+02  0.69084169325E+02  0.47000000000E+01 0.  1.
         13    1    4    4    0    0 -0.23210869567E+02  0.43347855995E+01 -0.40862229276E+00  0.23615710966E+02  0.00000000000E+00 0. -1.
        -14    1    4    4    0    0  0.68842519795E+02  0.43612056939E+02  0.47365858478E+02  0.94259368720E+02  0.00000000000E+00 0.  1.
</event>
<event>
12    1  0.1030140E-001  0.1779848E+03  0.7818608E-02  0.1170119E+00
         21   -1    0    0  503  502  0.00000000000E+00  0.00000000000E+00  0.31666355233E+02  0.31666355233E+02  0.00000000000E+00 0.  1.
         21   -1    0    0  501  503 -0.00000000000E+00 -0.00000000000E+00 -0.11897094662E+04  0.11897094662E+04  0.00000000000E+00 0.  1.
          6    2    1    2  501    0 -0.37684324179E+02  0.28245049415E+02 -0.82965440455E+03  0.84853109918E+03  0.17164120770E+03 0.  0.
         24    2    3    3    0    0 -0.11736510472E+02 -0.47000348313E+02 -0.52208641644E+03  0.53079643594E+03  0.82606608412E+02 0.  0.
         -6    2    1    2    0  502  0.37684324179E+02 -0.28245049415E+02 -0.32838870639E+03  0.37284472223E+03  0.17016507663E+03 0.  0.
        -24    2    5    5    0    0  0.20200315099E+02  0.35134642251E-01 -0.32898908606E+03  0.33926035325E+03  0.80347461550E+02 0.  0.
          5    1    3    3  501    0 -0.25947813707E+02  0.75245397728E+02 -0.30756798811E+03  0.31773466324E+03  0.47000000000E+01 0. -1.
        -11    1    4    4    0    0 -0.30665450104E+02 -0.10224140797E+02 -0.41083864802E+03  0.41210835661E+03  0.00000000000E+00 0.  1.
         12    1    4    4    0    0  0.18928939633E+02 -0.36776207516E+02 -0.11124776842E+03  0.11868807933E+03  0.00000000000E+00 0. -1.
         -5    1    5    5    0  502  0.17484009079E+02 -0.28280184057E+02  0.60037966880E+00  0.33584368977E+02  0.47000000000E+01 0.  1.
         13    1    6    6    0    0  0.15669729462E+01 -0.33156212554E+02 -0.24256045206E+03  0.24482108312E+03  0.00000000000E+00 0. -1.
        -14    1    6    6    0    0  0.18633342153E+02  0.33191347196E+02 -0.86428633999E+02  0.94439270134E+02  0.00000000000E+00 0.  1.
</event>
<event>
12    1  0.1030140E-001  0.7105711E+03  0.7818608E-02  0.9700714E-01
         21   -1    0    0  503  502  0.00000000000E+00  0.00000000000E+00  0.70713683060E+03  0.70713683060E+03  0.00000000000E+00 0.  1.
         21   -1    0    0  501  503 -0.00000000000E+00 -0.00000000000E+00 -0.83623575521E+03  0.83623575521E+03  0.00000000000E+00 0. -1.
          6    2    1    2  501    0  0.50154489982E+03  0.46775076738E+03 -0.36340971889E+03  0.79516616094E+03  0.17287143431E+03 0.  0.
         24    2    3    3    0    0  0.33767748784E+03  0.39968672905E+03 -0.25816226772E+03  0.58880638288E+03  0.79181013355E+02 0.  0.
         -6    2    1    2    0  502 -0.50154489982E+03 -0.46775076738E+03  0.23431079428E+03  0.74820642487E+03  0.18593880440E+03 0.  0.
        -24    2    5    5    0    0 -0.34666708777E+03 -0.40988602985E+03  0.20625558247E+03  0.58044275352E+03  0.78662555289E+02 0.  0.
          5    1    3    3  501    0  0.16386741198E+03  0.68064038332E+02 -0.10524745117E+03  0.20635977806E+03  0.47000000000E+01 0. -1.
        -11    1    4    4    0    0  0.23345925882E+03  0.23091331284E+03 -0.13310965336E+03  0.35431957806E+03  0.00000000000E+00 0.  1.
         12    1    4    4    0    0  0.10421822902E+03  0.16877341621E+03 -0.12505261436E+03  0.23448680482E+03  0.00000000000E+00 0. -1.
         -5    1    5    5    0  502 -0.15487781206E+03 -0.57864737531E+02  0.28055211806E+02  0.16776367136E+03  0.47000000000E+01 0.  1.
         11    1    6    6    0    0 -0.63707574774E+02 -0.10300959029E+03  0.17673944459E+02  0.12240097666E+03  0.00000000000E+00 0. -1.
        -12    1    6    6    0    0 -0.28295951299E+03 -0.30687643956E+03  0.18858163801E+03  0.45804177686E+03  0.00000000000E+00 0.  1.
</event>
<event>
12    1  0.1030140E-001  0.1816212E+03  0.7818608E-02  0.1166495E+00
         21   -1    0    0  501  502  0.00000000000E+00  0.00000000000E+00  0.34739665827E+03  0.34739665827E+03  0.00000000000E+00 0.  1.
         21   -1    0    0  502  503 -0.00000000000E+00 -0.00000000000E+00 -0.22676225225E+03  0.22676225225E+03  0.00000000000E+00 0.  1.
         -6    2    1    2    0  503  0.68672742996E+01 -0.56166960085E+02 -0.15893571495E+03  0.24134376363E+03  0.17258147031E+03 0.  0.
        -24    2    3    3    0    0 -0.25529145875E+02  0.38780267317E+01 -0.16037701225E+02  0.82923875958E+02  0.77151700973E+02 0.  0.
          6    2    1    2  501    0 -0.68672742996E+01  0.56166960085E+02  0.27957012098E+03  0.33281514689E+03  0.17147764459E+03 0.  0.
         24    2    5    5    0    0  0.44608694041E+02  0.69841166467E+02  0.23953930721E+03  0.26602206875E+03  0.80752320362E+02 0.  0.
          5    1    5    5  501    0 -0.51475968340E+02 -0.13674206382E+02  0.40030813770E+02  0.66793078144E+02  0.47000000000E+01 0. -1.
        -13    1    6    6    0    0  0.38474618979E+02  0.79552633550E+02  0.13822118761E+03  0.16405491311E+03  0.00000000000E+00 0.  1.
         14    1    6    6    0    0  0.61340750618E+01 -0.97114670836E+01  0.10131811960E+03  0.10196715564E+03  0.00000000000E+00 0. -1.
         -5    1    3    3    0  503  0.32396420175E+02 -0.60044986816E+02 -0.14289801373E+03  0.15841988767E+03  0.47000000000E+01 0.  1.
         13    1    4    4    0    0 -0.45483164670E+01 -0.21865484361E+02  0.22736998276E+02  0.31870953541E+02  0.00000000000E+00 0. -1.
        -14    1    4    4    0    0 -0.20980829408E+02  0.25743511092E+02 -0.38774699501E+02  0.51052922417E+02  0.00000000000E+00 0.  1.
</event>
<event>
12    1  0.1030140E-001  0.1778112E+03  0.7818608E-02  0.1170462E+00
         21   -1    0    0  501  502  0.00000000000E+00  0.00000000000E+00  0.22221392003E+03  0.22221392003E+03  0.00000000000E+00 0. -1.
         21   -1    0    0  502  503 -0.00000000000E+00 -0.00000000000E+00 -0.54606637095E+03  0.54606637095E+03  0.00000000000E+00 0. -1.
         -6    2    1    2    0  503  0.39065517626E+02  0.18965388715E+02 -0.49269081916E+03  0.52307996227E+03  0.17024277666E+03 0.  0.
        -24    2    3    3    0    0  0.28957813185E+02 -0.56836996107E+02 -0.28045492638E+03  0.29743791960E+03  0.75798095064E+02 0.  0.
          6    2    1    2  501    0 -0.39065517626E+02 -0.18965388715E+02  0.16883836825E+03  0.24520032871E+03  0.17242681338E+03 0.  0.
         24    2    5    5    0    0 -0.19960416453E+02 -0.28911096762E+02  0.12309522920E+02  0.87126638875E+02  0.78773454325E+02 0.  0.
          5    1    5    5  501    0 -0.19105101172E+02  0.99457080465E+01  0.15652884533E+03  0.15807368984E+03  0.47000000000E+01 0. -1.
        -13    1    6    6    0    0  0.19935611876E+02 -0.35855190879E+02 -0.80404620098E+01  0.41805171488E+02  0.00000000000E+00 0.  1.
         14    1    6    6    0    0 -0.39896028329E+02  0.69440941169E+01  0.20349984929E+02  0.45321467387E+02  0.00000000000E+00 0. -1.
         -5    1    3    3    0  503  0.10107704441E+02  0.75802384822E+02 -0.21223589278E+03  0.22564204267E+03  0.47000000000E+01 0.  1.
         13    1    4    4    0    0  0.52174034487E+02 -0.47773679825E+02 -0.16859562437E+03  0.18283582504E+03  0.00000000000E+00 0. -1.
        -14    1    4    4    0    0 -0.23216221302E+02 -0.90633162818E+01 -0.11185930200E+03  0.11460209456E+03  0.00000000000E+00 0.  1.
</event>
<event>
12    1  0.1030140E-001  0.1941341E+03  0.7818608E-02  0.1154928E+00
         21   -1    0    0  503  502  0.00000000000E+00  0.00000000000E+00  0.37476355532E+03  0.37476355532E+03  0.00000000000E+00 0. -1.
         21   -1    0    0  501  503 -0.00000000000E+00 -0.00000000000E+00 -0.33488753916E+03  0.33488753916E+03  0.00000000000E+00 0. -1.
          6    2    1    2  501    0 -0.60805978350E+02 -0.65679842767E+02 -0.27709175056E+03  0.33795682941E+03  0.17153358728E+03 0.  0.
         24    2    3    3    0    0  0.31470087716E+02 -0.49145590322E+02 -0.13413854897E+03  0.16694232208E+03  0.80442110311E+02 0.  0.
         -6    2    1    2    0  502  0.60805978350E+02  0.65679842767E+02  0.31696776672E+03  0.37169426507E+03  0.17226970945E+03 0.  0.
        -24    2    5    5    0    0  0.12370598420E+02  0.51066734376E+02  0.74835128366E+02  0.12428805350E+03  0.84180643499E+02 0.  0.
          5    1    3    3  501    0 -0.92276066067E+02 -0.16534252445E+02 -0.14295320159E+03  0.17101450733E+03  0.47000000000E+01 0. -1.
        -13    1    4    4    0    0 -0.10012176660E+02  0.10015834203E+02  0.46695017427E+00  0.14169638623E+02  0.00000000000E+00 0.  1.
         14    1    4    4    0    0  0.41482264376E+02 -0.59161424525E+02 -0.13460549914E+03  0.15277268345E+03  0.00000000000E+00 0. -1.
         -5    1    5    5    0  502  0.48435379931E+02  0.14613108391E+02  0.24213263836E+03  0.24740621157E+03  0.47000000000E+01 0.  1.
         11    1    6    6    0    0 -0.13081451327E+02  0.20191986556E+02  0.80370002410E+02  0.83893849460E+02  0.00000000000E+00 0. -1.
        -12    1    6    6    0    0  0.25452049747E+02  0.30874747820E+02 -0.55348740434E+01  0.40394204039E+02  0.00000000000E+00 0.  1.
</event>
<event>
12    1  0.1030140E-001  0.2485849E+03  0.7818608E-02  0.1114324E+00
         21   -1    0    0  501  502  0.00000000000E+00  0.00000000000E+00  0.10204210981E+03  0.10204210981E+03  0.00000000000E+00 0.  1.
         21   -1    0    0  502  503 -0.00000000000E+00 -0.00000000000E+00 -0.63586844093E+03  0.63586844093E+03  0.00000000000E+00 0.  1.
         -6    2    1    2    0  503  0.17797879997E+03 -0.13807686243E+02 -0.34947993273E+03  0.42843027638E+03  0.17189872861E+03 0.  0.
        -24    2    3    3    0    0  0.10221299587E+03 -0.74333175437E+02 -0.23564390611E+03  0.27881569531E+03  0.78976097440E+02 0.  0.
          6    2    1    2  501    0 -0.17797879997E+03  0.13807686243E+02 -0.18434639839E+03  0.30948027436E+03  0.17299520277E+03 0.  0.
         24    2    5    5    0    0 -0.13351563731E+03  0.68470257420E+02 -0.16569244865E+03  0.23643898904E+03  0.77037694933E+02 0.  0.
          5    1    5    5  501    0 -0.44463162651E+02 -0.54662571177E+02 -0.18653949749E+02  0.73041285325E+02  0.47000000000E+01 0. -1.
        -11    1    6    6    0    0 -0.13449294568E+03  0.40191601293E+02 -0.13728047730E+03  0.19634063945E+03  0.00000000000E+00 0.  1.
         12    1    6    6    0    0  0.97730836380E+00  0.28278656128E+02 -0.28411971347E+02  0.40098349590E+02  0.00000000000E+00 0. -1.
         -5    1    3    3    0  503  0.75765804098E+02  0.60525489194E+02 -0.11383602662E+03  0.14961458107E+03  0.47000000000E+01 0.  1.
         11    1    4    4    0    0  0.52532101786E+02 -0.47082472909E+02 -0.19950216549E+03  0.21160693516E+03  0.00000000000E+00 0. -1.
        -12    1    4    4    0    0  0.49680894081E+02 -0.27250702528E+02 -0.36141740621E+02  0.67208760143E+02  0.00000000000E+00 0.  1.
</event>
<event>
12    1  0.1030140E-001  0.3401888E+03  0.7818608E-02  0.1066760E+00
         21   -1    0    0  501  502  0.00000000000E+00  0.00000000000E+00  0.80604942677E+02  0.80604942677E+02  0.00000000000E+00 0.  1.
         21   -1    0    0  502  503 -0.00000000000E+00 -0.00000000000E+00 -0.15002586235E+04  0.15002586235E+04  0.00000000000E+00 0. -1.
         -6    2    1    2    0  503 -0.28874909613E+03 -0.52261024201E+02 -0.87553120937E+03  0.93914890808E+03  0.17128490242E+03 0.  0.
        -24    2    3    3    0    0 -0.10934426914E+03  0.21659541768E+02 -0.26406810650E+03  0.29761982986E+03  0.80126732839E+02 0.  0.
          6    2    1    2  501    0  0.28874909613E+03  0.52261024201E+02 -0.54412247145E+03  0.64171465809E+03  0.17210805708E+03 0.  0.
         24    2    5    5    0    0  0.57379678927E+02 -0.67016898585E+01 -0.19364551298E+03  0.21761019303E+03  0.80735811231E+02 0.  0.
          5    1    5    5  501    0  0.23136941720E+03  0.58962714060E+02 -0.35047695847E+03  0.42410446506E+03  0.47000000000E+01 0. -1.
        -13    1    6    6    0    0  0.51986031340E+01  0.31411313866E+02 -0.41460439173E+02  0.52274890050E+02  0.00000000000E+00 0.  1.
         14    1    6    6    0    0  0.52181075793E+02 -0.38113003724E+02 -0.15218507380E+03  0.16533530298E+03  0.00000000000E+00 0. -1.
         -5    1    3    3    0  503 -0.17940482699E+03 -0.73920565970E+02 -0.61146310287E+03  0.64152907821E+03  0.47000000000E+01 0.  1.
         13    1    4    4    0    0 -0.11495835441E+03  0.35961904273E+02 -0.24596864840E+03  0.27387818059E+03  0.00000000000E+00 0. -1.
        -14    1    4    4    0    0  0.56140852750E+01 -0.14302362505E+02 -0.18099458095E+02  0.23741649270E+02  0.00000000000E+00 0.  1.
</event>
<event>
12    1  0.1030140E-001  0.2127010E+03  0.7818608E-02  0.1140908E+00
         21   -1    0    0  503  502  0.00000000000E+00  0.00000000000E+00  0.24095666365E+03  0.24095666365E+03  0.00000000000E+00 0. -1.
         21   -1    0    0  501  503 -0.00000000000E+00 -0.00000000000E+00 -0.84541499951E+03  0.84541499951E+03  0.00000000000E+00 0.  1.
          6    2    1    2  501    0 -0.11662298100E+03 -0.70134230874E+01 -0.78250012268E+03  0.80899001938E+03  0.16884401577E+03 0.  0.
         24    2    3    3    0    0 -0.56041783642E+02 -0.17472294889E+01 -0.69790835153E+03  0.70470352929E+03  0.79920352466E+02 0.  0.
         -6    2    1    2    0  502  0.11662298100E+03  0.70134230874E+01  0.17804178682E+03  0.27738164379E+03  0.17774023364E+03 0.  0.
        -24    2    5    5    0    0  0.16782655490E+02 -0.23822527053E+02  0.14546583330E+03  0.16782695805E+03  0.78462786524E+02 0.  0.
          5    1    3    3  501    0 -0.60581197360E+02 -0.52661935984E+01 -0.84591771152E+02  0.10428649009E+03  0.47000000000E+01 0. -1.
        -13    1    4    4    0    0 -0.46665364993E+02 -0.28454304635E+02 -0.25015027789E+03  0.25605168477E+03  0.00000000000E+00 0.  1.
         14    1    4    4    0    0 -0.93764186489E+01  0.26707075146E+02 -0.44775807363E+03  0.44865184452E+03  0.00000000000E+00 0. -1.
         -5    1    5    5    0  502  0.99840325512E+02  0.30835950140E+02  0.32575953518E+02  0.10955468574E+03  0.47000000000E+01 0.  1.
         11    1    6    6    0    0  0.42956662622E+02 -0.19099609274E+02  0.12707214202E+03  0.13548948009E+03  0.00000000000E+00 0. -1.
        -12    1    6    6    0    0 -0.26174007132E+02 -0.47229177792E+01  0.18393691285E+02  0.32337477959E+02  0.00000000000E+00 0.  1.
</event>
<event>
12    1  0.1030140E-001  0.2429752E+03  0.7818608E-02  0.1118060E+00
         21   -1    0    0  501  502  0.00000000000E+00  0.00000000000E+00  0.33206099379E+03  0.33206099379E+03  0.00000000000E+00 0. -1.
         21   -1    0    0  502  503 -0.00000000000E+00 -0.00000000000E+00 -0.18629843202E+03  0.18629843202E+03  0.00000000000E+00 0. -1.
         -6    2    1    2    0  503 -0.15616607107E+03 -0.66066943791E+02  0.14005982748E+02  0.24195982405E+03  0.17203402596E+03 0.  0.
        -24    2    3    3    0    0 -0.13652902424E+03  0.52978146426E+01 -0.21578319512E+02  0.15969880703E+03  0.79811301175E+02 0.  0.
          6    2    1    2  501    0  0.15616607107E+03  0.66066943791E+02  0.13175657902E+03  0.27639960176E+03  0.17402373666E+03 0.  0.
         24    2    5    5    0    0  0.43125054662E+02  0.75385485981E+02  0.23482406846E+02  0.11952228352E+03  0.78685519567E+02 0.  0.
          5    1    5    5  501    0  0.11304101640E+03 -0.93185421902E+01  0.10827417217E+03  0.15687731824E+03  0.47000000000E+01 0. -1.
        -11    1    6    6    0    0 -0.16927620671E+02  0.25036794879E+02  0.27763392228E+02  0.41038900904E+02  0.00000000000E+00 0.  1.
         12    1    6    6    0    0  0.60052675334E+02  0.50348691102E+02 -0.42809853824E+01  0.78483382612E+02  0.00000000000E+00 0. -1.
         -5    1    3    3    0  503 -0.19637046830E+02 -0.71364758433E+02  0.35584302260E+02  0.82261017024E+02  0.47000000000E+01 0.  1.
         11    1    4    4    0    0 -0.75940497368E+02 -0.30627176100E+02 -0.33106172213E+02  0.88323279462E+02  0.00000000000E+00 0. -1.
        -12    1    4    4    0    0 -0.60588526867E+02  0.35924990742E+02  0.11527852700E+02  0.71375527568E+02  0.00000000000E+00 0.  1.
</event>
<event>
12    1  0.1030140E-001  0.2529849E+03  0.7818608E-02  0.1111825E+00
         21   -1    0    0  501  502  0.00000000000E+00  0.00000000000E+00  0.72257126990E+03  0.72257126990E+03  0.00000000000E+00 0. -1.
         21   -1    0    0  502  503 -0.00000000000E+00 -0.00000000000E+00 -0.43239196345E+03  0.43239196345E+03  0.00000000000E+00 0.  1.
         -6    2    1    2    0  503 -0.16111374792E+03 -0.92907208734E+02 -0.37065807641E+03  0.44735640548E+03  0.16778246249E+03 0.  0.
        -24    2    3    3    0    0 -0.36443729425E+02 -0.43344211256E+02 -0.79734100514E+02  0.12695360590E+03  0.80949522561E+02 0.  0.
          6    2    1    2  501    0  0.16111374792E+03  0.92907208734E+02  0.66083738286E+03  0.70760682786E+03  0.17149923337E+03 0.  0.
         24    2    5    5    0    0  0.85880308437E+01  0.11062360348E+01  0.23494681109E+03  0.24598319103E+03  0.72337737011E+02 0.  0.
          5    1    5    5  501    0  0.15252571707E+03  0.91800972699E+02  0.42589057177E+03  0.46162363683E+03  0.47000000000E+01 0. -1.
        -13    1    6    6    0    0  0.85938216324E+01  0.17279664308E+02  0.12597465423E+02  0.23046403276E+02  0.00000000000E+00 0.  1.
         14    1    6    6    0    0 -0.57907887111E-02 -0.16173428274E+02  0.22234934567E+03  0.22293678776E+03  0.00000000000E+00 0. -1.
         -5    1    3    3    0  503 -0.12467001849E+03 -0.49562997478E+02 -0.29092397589E+03  0.32040279958E+03  0.47000000000E+01 0.  1.
         11    1    4    4    0    0  0.15284373558E+02  0.11100324695E+02 -0.22104631655E+01  0.19018817808E+02  0.00000000000E+00 0. -1.
        -12    1    4    4    0    0 -0.51728102983E+02 -0.54444535951E+02 -0.77523637348E+02  0.10793478809E+03  0.00000000000E+00 0.  1.
</event>
<event>
12    1  0.1030140E-001  0.1872128E+03  0.7818608E-02  0.1161090E+00
         21   -1    0    0  501  502  0.00000000000E+00  0.00000000000E+00  0.31643359054E+03  0.31643359054E+03  0.00000000000E+00 0.  1.
         21   -1    0    0  502  503 -0.00000000000E+00 -0.00000000000E+00 -0.13193928862E+03  0.13193928862E+03  0.00000000000E+00 0.  1.
         -6    2    1    2    0  503 -0.48124678276E+02 -0.54993356009E+02  0.18546614188E+01  0.18682774771E+03  0.17193287551E+03 0.  0.
        -24    2    3    3    0    0 -0.75499667733E+02  0.12076113374E+02  0.10790520004E+02  0.11368649164E+03  0.83439503340E+02 0.  0.
          6    2    1    2  501    0  0.48124678276E+02  0.54993356009E+02  0.18263964050E+03  0.26154513144E+03  0.17236114305E+03 0.  0.
         24    2    5    5    0    0  0.92803976858E+02  0.51757579286E+02  0.16847164862E+03  0.21432721146E+03  0.79133002300E+02 0.  0.
          5    1    5    5  501    0 -0.44679298582E+02  0.32357767228E+01  0.14167991889E+02  0.47217919977E+02  0.47000000000E+01 0. -1.
        -11    1    6    6    0    0 -0.13308439267E+02  0.49734863414E+01  0.33436743383E+02  0.36329959127E+02  0.00000000000E+00 0.  1.
         12    1    6    6    0    0  0.10611241613E+03  0.46784092945E+02  0.13503490523E+03  0.17799725234E+03  0.00000000000E+00 0. -1.
         -5    1    3    3    0  503  0.27374989456E+02 -0.67069469383E+02 -0.89358585856E+01  0.73141256071E+02  0.47000000000E+01 0.  1.
         11    1    4    4    0    0 -0.68692428725E+01  0.38864957014E+02  0.50624394903E+01  0.39790698347E+02  0.00000000000E+00 0. -1.
        -12    1    4    4    0    0 -0.68630424860E+02 -0.26788843640E+02  0.57280805141E+01  0.73895793293E+02  0.00000000000E+00 0.  1.
</event>
<event>
12    1  0.1030140E-001  0.1957480E+03  0.7818608E-02  0.1153440E+00
         21   -1    0    0  503  502  0.00000000000E+00  0.00000000000E+00  0.28132690498E+03  0.28132690498E+03  0.00000000000E+00 0. -1.
         21   -1    0    0  501  503 -0.00000000000E+00 -0.00000000000E+00 -0.13805926928E+03  0.13805926928E+03  0.00000000000E+00 0. -1.
          6    2    1    2  501    0 -0.39091053783E+02  0.83532625024E+02  0.45962568333E+02  0.20078709528E+03  0.17232843646E+03 0.  0.
         24    2    3    3    0    0 -0.13529888748E+02  0.74144442841E+02 -0.35668657360E+02  0.11460555357E+03  0.78623937185E+02 0.  0.
         -6    2    1    2    0  502  0.39091053783E+02 -0.83532625024E+02  0.97305067367E+02  0.21859907898E+03  0.17265998745E+03 0.  0.
        -24    2    5    5    0    0  0.91164410963E+02 -0.70484752137E+02  0.81152465959E+02  0.16234183014E+03  0.80561138105E+02 0.  0.
          5    1    3    3  501    0 -0.25561165035E+02  0.93881821829E+01  0.81631225693E+02  0.86181541706E+02  0.47000000000E+01 0. -1.
        -13    1    4    4    0    0  0.32570265811E+02  0.23493954782E+02 -0.93461734171E+01  0.41232742861E+02  0.00000000000E+00 0.  1.
         14    1    4    4    0    0 -0.46100154559E+02  0.50650488059E+02 -0.26322483943E+02  0.73372810713E+02  0.00000000000E+00 0. -1.
         -5    1    5    5    0  502 -0.52073357180E+02 -0.13047872887E+02  0.16152601408E+02  0.56257248841E+02  0.47000000000E+01 0.  1.
         11    1    6    6    0    0  0.45065435163E+02 -0.13887353628E+02 -0.72353973982E+01  0.47708521385E+02  0.00000000000E+00 0. -1.
        -12    1    6    6    0    0  0.46098975800E+02 -0.56597398510E+02  0.88387863357E+02  0.11463330876E+03  0.00000000000E+00 0.  1.
</event>
<event>
12    1  0.1030140E-001  0.2000480E+03  0.7818608E-02  0.1150431E+00
         21   -1    0    0  503  502  0.00000000000E+00  0.00000000000E+00  0.11320444146E+04  0.11320444146E+04  0.00000000000E+00 0. -1.
         21   -1    0    0  501  503 -0.00000000000E+00 -0.00000000000E+00 -0.36552364062E+02  0.36552364062E+02  0.00000000000E+00 0. -1.
          6    2    1    2  501    0 -0.66196782186E+02 -0.66026816167E+02  0.41334752712E+03  0.45772381982E+03  0.17295479939E+03 0.  0.
         24    2    3    3    0    0  0.23020320247E+02 -0.72486437634E+02  0.23318153209E+03  0.25651921292E+03  0.75128296278E+02 0.  0.
         -6    2    1    2    0  502  0.66196782186E+02  0.66026816167E+02  0.68214452338E+03  0.71087295880E+03  0.17685490763E+03 0.  0.
        -24    2    5    5    0    0  0.53008852546E+02  0.92355671217E+02  0.66102400020E+03  0.67433124845E+03  0.80189745803E+02 0.  0.
          5    1    3    3  501    0 -0.89217102433E+02  0.64596214666E+01  0.18016599503E+03  0.20120460691E+03  0.47000000000E+01 0. -1.
        -11    1    4    4    0    0  0.24969297246E+02  0.75242509969E+01  0.44734170818E+02  0.51780558096E+02  0.00000000000E+00 0.  1.
         12    1    4    4    0    0 -0.19489769990E+01 -0.80010688630E+02  0.18844736127E+03  0.20473865482E+03  0.00000000000E+00 0. -1.
         -5    1    5    5    0  502  0.13187929640E+02 -0.26328855050E+02  0.21120523178E+02  0.36541710356E+02  0.47000000000E+01 0.  1.
         13    1    6    6    0    0 -0.17348939138E+02  0.37006161938E+02  0.14726298187E+03  0.15282940665E+03  0.00000000000E+00 0. -1.
        -14    1    6    6    0    0  0.70357791684E+02  0.55349509279E+02  0.51376101834E+03  0.52150184179E+03  0.00000000000E+00 0.  1.
</event>
<event>
12    1  0.1030140E-001  0.2251042E+03  0.7818608E-02  0.1130337E+00
         21   -1    0    0  503  502  0.00000000000E+00  0.00000000000E+00  0.71651653594E+02  0.71651653594E+02  0.00000000000E+00 0.  1.
         21   -1    0    0  501  503 -0.00000000000E+00 -0.00000000000E+00 -0.82384318384E+03  0.82384318384E+03  0.00000000000E+00 0.  1.
          6    2    1    2  501    0 -0.10704049181E+03  0.96687328032E+02 -0.54629196165E+03  0.59042677299E+03  0.17135565533E+03 0.  0.
         24    2    3    3    0    0 -0.13251160859E+03  0.42869615386E+02 -0.34409298934E+03  0.37959120107E+03  0.79324424260E+02 0.  0.
         -6    2    1    2    0  502  0.10704049181E+03 -0.96687328032E+02 -0.20589956859E+03  0.30506806444E+03  0.17281720199E+03 0.  0.
        -24    2    5    5    0    0  0.13851892231E+02 -0.89705444320E+02 -0.16398701218E+03  0.20254190106E+03  0.76762880756E+02 0.  0.
          5    1    3    3  501    0  0.25471116778E+02  0.53817712646E+02 -0.20219897231E+03  0.21083557192E+03  0.47000000000E+01 0. -1.
        -13    1    4    4    0    0 -0.12112744202E+03  0.63365733690E+02 -0.28803949123E+03  0.31883196503E+03  0.00000000000E+00 0.  1.
         14    1    4    4    0    0 -0.11384166565E+02 -0.20496118305E+02 -0.56053498105E+02  0.60759236036E+02  0.00000000000E+00 0. -1.
         -5    1    5    5    0  502  0.93188599579E+02 -0.69818837120E+01 -0.41912556410E+02  0.10252616338E+03  0.47000000000E+01 0.  1.
         11    1    6    6    0    0  0.24852206818E+02 -0.80365419360E+01 -0.82953314576E+02  0.86968215971E+02  0.00000000000E+00 0. -1.
        -12    1    6    6    0    0 -0.11000314587E+02 -0.81668902384E+02 -0.81033697608E+02  0.11557368509E+03  0.00000000000E+00 0.  1.
</event>
<event>
12    1  0.1030140E-001  0.1981386E+03  0.7818608E-02  0.1151675E+00
         21   -1    0    0  501  502  0.00000000000E+00  0.00000000000E+00  0.11095168173E+03  0.11095168173E+03  0.00000000000E+00 0.  1.
         21   -1    0    0  502  503 -0.00000000000E+00 -0.00000000000E+00 -0.38761367270E+03  0.38761367270E+03  0.00000000000E+00 0.  1.
         -6    2    1    2    0  503 -0.59522039776E+01 -0.98548391759E+02 -0.21559579693E+03  0.29281471221E+03  0.17178967892E+03 0.  0.
        -24    2    3    3    0    0 -0.68869547142E+02 -0.72839371401E+02 -0.12235987761E+03  0.17733929297E+03  0.80179153345E+02 0.  0.
          6    2    1    2  501    0  0.59522039776E+01  0.98548391759E+02 -0.61066194048E+02  0.20575064222E+03  0.16987357789E+03 0.  0.
         24    2    5    5    0    0  0.69889781765E+02  0.74866606829E+02 -0.53324804961E+02  0.13696939553E+03  0.73671501097E+02 0.  0.
          5    1    5    5  501    0 -0.63937577788E+02  0.23681784930E+02 -0.77413890870E+01  0.68781246687E+02  0.47000000000E+01 0. -1.
        -13    1    6    6    0    0  0.53492673628E+02  0.87138153008E+02 -0.31384802820E+02  0.10695573706E+03  0.00000000000E+00 0.  1.
         14    1    6    6    0    0  0.16397108137E+02 -0.12271546178E+02 -0.21940002141E+02  0.30013658471E+02  0.00000000000E+00 0. -1.
         -5    1    3    3    0  503  0.62917343165E+02 -0.25709020358E+02 -0.93235919315E+02  0.11547541924E+03  0.47000000000E+01 0.  1.
         11    1    4    4    0    0 -0.13569712936E+01  0.16027624675E+02 -0.98246778704E+01  0.18848087942E+02  0.00000000000E+00 0. -1.
        -12    1    4    4    0    0 -0.67512575849E+02 -0.88866996077E+02 -0.11253519974E+03  0.15849120502E+03  0.00000000000E+00 0.  1.
</event>
<event>
12    1  0.1030140E-001  0.1943235E+03  0.7818608E-02  0.1154950E+00
         21   -1    0    0  501  502  0.00000000000E+00  0.00000000000E+00  0.37558155827E+03  0.37558155827E+03  0.00000000000E+00 0. -1.
         21   -1    0    0  502  503 -0.00000000000E+00 -0.00000000000E+00 -0.29407300836E+03  0.29407300836E+03  0.00000000000E+00 0. -1.
         -6    2    1    2    0  503  0.60046224868E+02  0.62762079222E+02 -0.23136092618E+03  0.30214154393E+03  0.17383039636E+03 0.  0.
        -24    2    3    3    0    0  0.54016443179E+02  0.61382531732E+02 -0.25415696556E+03  0.27805812993E+03  0.77685063845E+02 0.  0.
          6    2    1    2  501    0 -0.60046224868E+02 -0.62762079222E+02  0.31286947610E+03  0.36751302270E+03  0.17214495366E+03 0.  0.
         24    2    5    5    0    0 -0.67416068567E+02  0.18455328271E+02  0.13156635697E+03  0.16865756544E+03  0.79057843705E+02 0.  0.
          5    1    5    5  501    0  0.73698436990E+01 -0.81217407493E+02  0.18130311912E+03  0.19885545725E+03  0.47000000000E+01 0. -1.
        -11    1    6    6    0    0 -0.67361510029E+02  0.26118367355E+01  0.45939228481E+02  0.81577003120E+02  0.00000000000E+00 0.  1.
         12    1    6    6    0    0 -0.54558538014E-01  0.15843491535E+02  0.85627128492E+02  0.87080562323E+02  0.00000000000E+00 0. -1.
         -5    1    3    3    0  503  0.60297816896E+01  0.13795474904E+01  0.22796039379E+02  0.24083413999E+02  0.47000000000E+01 0.  1.
         11    1    4    4    0    0  0.16211436311E+02  0.54995606851E+02 -0.72666973364E+02  0.92562500280E+02  0.00000000000E+00 0. -1.
        -12    1    4    4    0    0  0.37805006868E+02  0.63869248806E+01 -0.18148999220E+03  0.18549562965E+03  0.00000000000E+00 0.  1.
</event>
<event>
12    1  0.1030140E-001  0.1904381E+03  0.7818608E-02  0.1158181E+00
         21   -1    0    0  503  502  0.00000000000E+00  0.00000000000E+00  0.69795068438E+03  0.69795068438E+03  0.00000000000E+00 0. -1.
         21   -1    0    0  501  503 -0.00000000000E+00 -0.00000000000E+00 -0.61233406603E+02  0.61233406603E+02  0.00000000000E+00 0.  1.
          6    2    1    2  501    0 -0.40310043394E+01  0.83424795038E+02  0.16991478347E+03  0.25522088173E+03  0.17114531663E+03 0.  0.
         24    2    3    3    0    0  0.95269620144E+01  0.11229053527E+03  0.78002544089E+02  0.15781965402E+03  0.78247805046E+02 0.  0.
         -6    2    1    2    0  502  0.40310043394E+01 -0.83424795038E+02  0.46680249430E+03  0.50396320925E+03  0.17058253770E+03 0.  0.
        -24    2    5    5    0    0  0.58187928132E+02 -0.20144926995E+02  0.31294700514E+03  0.32894630824E+03  0.80487220193E+02 0.  0.
          5    1    3    3  501    0 -0.13557966354E+02 -0.28865740231E+02  0.91912239383E+02  0.97401227709E+02  0.47000000000E+01 0. -1.
        -13    1    4    4    0    0 -0.29122860458E+02  0.56386807884E+02  0.60404890699E+02  0.87614861325E+02  0.00000000000E+00 0.  1.
         14    1    4    4    0    0  0.38649822472E+02  0.55903727385E+02  0.17597653390E+02  0.70204792696E+02  0.00000000000E+00 0. -1.
         -5    1    5    5    0  502 -0.54156923793E+02 -0.63279868043E+02  0.15385548916E+03  0.17501690101E+03  0.47000000000E+01 0.  1.
         11    1    6    6    0    0 -0.61815300757E+01  0.20194000283E+02  0.35684018001E+02  0.41465143219E+02  0.00000000000E+00 0. -1.
        -12    1    6    6    0    0  0.64369458208E+02 -0.40338927278E+02  0.27726298714E+03  0.28748116502E+03  0.00000000000E+00 0.  1.
</event>
<event>
12    1  0.1030140E-001  0.2452903E+03  0.7818608E-02  0.1116417E+00
         21   -1    0    0  503  502  0.00000000000E+00  0.00000000000E+00  0.35010632575E+03  0.35010632575E+03  0.00000000000E+00 0. -1.
         21   -1    0    0  501  503 -0.00000000000E+00 -0.00000000000E+00 -0.17145423708E+03  0.17145423708E+03  0.00000000000E+00 0.  1.
          6    2    1    2  501    0  0.16766957538E+03  0.46659521601E+02  0.86034705973E+02  0.25994100136E+03  0.17285009718E+03 0.  0.
         24    2    3    3    0    0  0.16571955059E+03  0.81145694251E+02  0.40346747648E+02  0.20247293861E+03  0.72937217402E+02 0.  0.
         -6    2    1    2    0  502 -0.16766957538E+03 -0.46659521601E+02  0.92617382702E+02  0.26161956147E+03  0.17197853907E+03 0.  0.
        -24    2    5    5    0    0 -0.78422102523E+02 -0.49861941595E+02 -0.12866280404E+02  0.12332906979E+03  0.80051726406E+02 0.  0.
          5    1    3    3  501    0  0.19500247920E+01 -0.34486172649E+02  0.45687958325E+02  0.57468062753E+02  0.47000000000E+01 0. -1.
        -13    1    4    4    0    0  0.80233206041E+02  0.71926435100E+02  0.61562777363E+00  0.10775508533E+03  0.00000000000E+00 0.  1.
         14    1    4    4    0    0  0.85486344546E+02  0.92192591507E+01  0.39731119875E+02  0.94717853278E+02  0.00000000000E+00 0. -1.
         -5    1    5    5    0  502 -0.89247472856E+02  0.32024199934E+01  0.10548366311E+03  0.13829049167E+03  0.47000000000E+01 0.  1.
         11    1    6    6    0    0 -0.29803441935E+02  0.10000640014E+02 -0.30953368276E+02  0.44117671737E+02  0.00000000000E+00 0. -1.
        -12    1    6    6    0    0 -0.48618660588E+02 -0.59862581609E+02  0.18087087871E+02  0.79211398056E+02  0.00000000000E+00 0.  1.
</event>
<event>
12    1  0.1030140E-001  0.1825429E+03  0.7818608E-02  0.1165590E+00
         21   -1    0    0  501  502  0.00000000000E+00  0.00000000000E+00  0.31593637639E+03  0.31593637639E+03  0.00000000000E+00 0.  1.
         21   -1    0    0  502  503 -0.00000000000E+00 -0.00000000000E+00 -0.10690985764E+03  0.10690985764E+03  0.00000000000E+00 0.  1.
         -6    2    1    2    0  503  0.48837584032E+01  0.60642665888E+02  0.13359156724E+03  0.22620480129E+03  0.17210613373E+03 0.  0.
        -24    2    3    3    0    0 -0.89313160348E+00  0.64166805516E+02  0.16490585617E+03  0.19382476563E+03  0.79094385137E+02 0.  0.
          6    2    1    2  501    0 -0.48837584032E+01 -0.60642665888E+02  0.75434951516E+02  0.19664143274E+03  0.17110241710E+03 0.  0.
         24    2    5    5    0    0 -0.34669467384E+02 -0.40767737072E+02  0.10989845136E+03  0.14672125570E+03  0.81150951367E+02 0.  0.
          5    1    5    5  501    0  0.29785708981E+02 -0.19874928816E+02 -0.34463499841E+02  0.49920177046E+02  0.47000000000E+01 0. -1.
        -13    1    6    6    0    0 -0.23974449221E+02 -0.15552642682E+02 -0.46417896654E+01  0.28951772331E+02  0.00000000000E+00 0.  1.
         14    1    6    6    0    0 -0.10695018163E+02 -0.25215094390E+02  0.11454024102E+03  0.11776948337E+03  0.00000000000E+00 0. -1.
         -5    1    3    3    0  503  0.57768900067E+01 -0.35241396271E+01 -0.31314288928E+02  0.32380035659E+02  0.47000000000E+01 0.  1.
         13    1    4    4    0    0  0.15134098369E+02 -0.10941686136E+02  0.10625876131E+02  0.21486523044E+02  0.00000000000E+00 0. -1.
        -14    1    4    4    0    0 -0.16027229973E+02  0.75108491652E+02  0.15427998003E+03  0.17233824259E+03  0.00000000000E+00 0.  1.
</event>
<event>
12    1  0.1030140E-001  0.2352221E+03  0.7818608E-02  0.1123552E+00
         21   -1    0    0  501  502  0.00000000000E+00  0.00000000000E+00  0.42866915727E+03  0.42866915727E+03  0.00000000000E+00 0. -1.
         21   -1    0    0  502  503 -0.00000000000E+00 -0.00000000000E+00 -0.16200254888E+03  0.16200254888E+03  0.00000000000E+00 0. -1.
         -6    2    1    2    0  503 -0.98075434849E+01 -0.15591685039E+03 -0.25096776363E+01  0.23523544422E+03  0.17584983249E+03 0.  0.
        -24    2    3    3    0    0  0.58922218865E+02 -0.80701889073E+02 -0.28613439551E+02  0.12995217382E+03  0.78001383203E+02 0.  0.
          6    2    1    2  501    0  0.98075434849E+01  0.15591685039E+03  0.26917628603E+03  0.35543626193E+03  0.17167647244E+03 0.  0.
         24    2    5    5    0    0  0.34164883234E+02  0.11994131169E+03  0.94304784474E+02  0.17518740218E+03  0.79019466033E+02 0.  0.
          5    1    5    5  501    0 -0.24357339749E+02  0.35975538700E+02  0.17487150155E+03  0.18024885975E+03  0.47000000000E+01 0. -1.
        -13    1    6    6    0    0 -0.18424421811E+02  0.26279326135E+02 -0.23152169847E+00  0.32095418730E+02  0.00000000000E+00 0.  1.
         14    1    6    6    0    0  0.52589305045E+02  0.93661985558E+02  0.94536306173E+02  0.14309198345E+03  0.00000000000E+00 0. -1.
         -5    1    3    3    0  503 -0.68729762350E+02 -0.75214961320E+02  0.26103761915E+02  0.10528327040E+03  0.47000000000E+01 0.  1.
         11    1    4    4    0    0  0.18085805374E+02  0.69197769114E+01 -0.27052866744E+02  0.33269163915E+02  0.00000000000E+00 0. -1.
        -12    1    4    4    0    0  0.40836413492E+02 -0.87621665985E+02 -0.15605728071E+01  0.96683009905E+02  0.00000000000E+00 0.  1.
</event>
<event>
12    1  0.1030140E-001  0.2544007E+03  0.7818608E-02  0.1110686E+00
         21   -1    0    0  501  502  0.00000000000E+00  0.00000000000E+00  0.85199467363E+02  0.85199467363E+02  0.00000000000E+00 0. -1.
         21   -1    0    0  502  503 -0.00000000000E+00 -0.00000000000E+00 -0.11834699793E+04  0.11834699793E+04  0.00000000000E+00 0. -1.
         -6    2    1    2    0  503  0.17926255221E+03 -0.51460443064E+02 -0.92929531676E+03  0.96326424659E+03  0.17177014634E+03 0.  0.
        -24    2    3    3    0    0  0.55823290395E+02  0.31467957725E+02 -0.44103387817E+03  0.45283727489E+03  0.80276047039E+02 0.  0.
          6    2    1    2  501    0 -0.17926255221E+03  0.51460443064E+02 -0.16897519514E+03  0.30540520004E+03  0.17302161661E+03 0.  0.
         24    2    5    5    0    0 -0.17667451416E+03  0.82745997261E+02 -0.11537618127E+03  0.24311211752E+03  0.87926415051E+02 0.  0.
          5    1    5    5  501    0 -0.25880380466E+01 -0.31285554197E+02 -0.53599013869E+02  0.62293082522E+02  0.47000000000E+01 0. -1.
        -13    1    6    6    0    0 -0.46554238123E+00 -0.12834555866E+02 -0.11943622407E+02  0.17538320051E+02  0.00000000000E+00 0.  1.
         14    1    6    6    0    0 -0.17620897178E+03  0.95580553127E+02 -0.10343255886E+03  0.22557379747E+03  0.00000000000E+00 0. -1.
         -5    1    3    3    0  503  0.12343926181E+03 -0.82928400788E+02 -0.48826143860E+03  0.51042697170E+03  0.47000000000E+01 0.  1.
         11    1    4    4    0    0  0.64733719058E+02 -0.50058532799E+01 -0.26414951534E+03  0.27201191041E+03  0.00000000000E+00 0. -1.
        -12    1    4    4    0    0 -0.89104286639E+01  0.36473811005E+02 -0.17688436282E+03  0.18082536448E+03  0.00000000000E+00 0.  1.
</event>
<event>
12    1  0.1030140E-001  0.1764687E+03  0.7818608E-02  0.1172218E+00
         21   -1    0    0  503  502  0.00000000000E+00  0.00000000000E+00  0.36894061745E+03  0.36894061745E+03  0.00000000000E+00 0. -1.
         21   -1    0    0  501  503 -0.00000000000E+00 -0.00000000000E+00 -0.10530325255E+03  0.10530325255E+03  0.00000000000E+00 0.  1.
          6    2    1    2  501    0 -0.40504606222E+02 -0.84312771348E+01  0.22850961224E+02  0.17794205198E+03  0.17155027798E+03 0.  0.
         24    2    3    3    0    0  0.44956308482E+02  0.22513595620E+02 -0.53445679136E+01  0.82662300959E+02  0.65395412176E+02 0.  0.
         -6    2    1    2    0  502  0.40504606222E+02  0.84312771348E+01  0.24078640367E+03  0.29630181802E+03  0.16764535666E+03 0.  0.
        -24    2    5    5    0    0 -0.20039871743E+02  0.18747199386E+02  0.21256751981E+03  0.22854897697E+03  0.79351310332E+02 0.  0.
          5    1    3    3  501    0 -0.85460914703E+02 -0.30944872755E+02  0.28195529138E+02  0.95279751024E+02  0.47000000000E+01 0. -1.
        -11    1    4    4    0    0 -0.10026028595E+02  0.22431531323E+02 -0.11882332771E+02  0.27292575528E+02  0.00000000000E+00 0.  1.
         12    1    4    4    0    0  0.54982337077E+02  0.82064297763E-01  0.65377648579E+01  0.55369725431E+02  0.00000000000E+00 0. -1.
         -5    1    5    5    0  502  0.60544477965E+02 -0.10315922251E+02  0.28218883862E+02  0.67752841050E+02  0.47000000000E+01 0.  1.
         13    1    6    6    0    0  0.63475618597E+01 -0.22412702810E+02  0.13400953843E+03  0.13601903241E+03  0.00000000000E+00 0. -1.
        -14    1    6    6    0    0 -0.26387433603E+02  0.41159902195E+02  0.78557981381E+02  0.92529944556E+02  0.00000000000E+00 0.  1.
</event>
<event>
12    1  0.1030140E-001  0.1874760E+03  0.7818608E-02  0.1161152E+00
         21   -1    0    0  503  502  0.00000000000E+00  0.00000000000E+00  0.49212020441E+02  0.49212020441E+02  0.00000000000E+00 0.  1.
         21   -1    0    0  501  503 -0.00000000000E+00 -0.00000000000E+00 -0.11471608175E+04  0.11471608175E+04  0.00000000000E+00 0.  1.
          6    2    1    2  501    0 -0.55411855533E+02 -0.45137696428E+02 -0.92076157834E+03  0.93965372619E+03  0.17331865340E+03 0.  0.
         24    2    3    3    0    0 -0.24244728843E+02  0.24934238524E+02 -0.71138962089E+03  0.71662867732E+03  0.79195614310E+02 0.  0.
         -6    2    1    2    0  502  0.55411855533E+02  0.45137696428E+02 -0.17718721875E+03  0.25671911179E+03  0.17146867497E+03 0.  0.
        -24    2    5    5    0    0  0.56159909466E+02 -0.16962128279E+02 -0.16846821115E+03  0.19382985271E+03  0.75807812310E+02 0.  0.
          5    1    3    3  501    0 -0.31167126689E+02 -0.70071934952E+02 -0.20937195746E+03  0.22302504887E+03  0.47000000000E+01 0. -1.
        -11    1    4    4    0    0 -0.24549557689E+02 -0.19789163953E+02 -0.47499317598E+03  0.47603866337E+03  0.00000000000E+00 0.  1.
         12    1    4    4    0    0  0.30482884531E+00  0.44723402478E+02 -0.23639644490E+03  0.24059001395E+03  0.00000000000E+00 0. -1.
         -5    1    5    5    0  502 -0.74805393349E+00  0.62099824707E+02 -0.87190076011E+01  0.62889259074E+02  0.47000000000E+01 0.  1.
         13    1    6    6    0    0  0.24759251238E+02  0.19950318486E+02 -0.12415695217E+03  0.12816389703E+03  0.00000000000E+00 0. -1.
        -14    1    6    6    0    0  0.31400658228E+02 -0.36912446765E+02 -0.44311258980E+02  0.65665955682E+02  0.00000000000E+00 0.  1.
</event>
<event>
12    1  0.1030140E-001  0.2035302E+03  0.7818608E-02  0.1146974E+00
         21   -1    0    0  501  502  0.00000000000E+00  0.00000000000E+00  0.13251982560E+03  0.13251982560E+03  0.00000000000E+00 0. -1.
         21   -1    0    0  502  503 -0.00000000000E+00 -0.00000000000E+00 -0.41555703630E+03  0.41555703630E+03  0.00000000000E+00 0.  1.
         -6    2    1    2    0  503  0.61559537391E+02  0.89041771086E+02 -0.27858147853E+03  0.34449786056E+03  0.17132752876E+03 0.  0.
        -24    2    3    3    0    0  0.14308079994E+01  0.11327075639E+03 -0.18944062243E+03  0.23417701007E+03  0.78222830146E+02 0.  0.
          6    2    1    2  501    0 -0.61559537391E+02 -0.89041771086E+02 -0.44557321657E+01  0.20357900134E+03  0.17235586034E+03 0.  0.
         24    2    5    5    0    0 -0.57767466806E+02 -0.12525046400E+03 -0.12987233563E+02  0.16589179186E+03  0.91250531051E+02 0.  0.
          5    1    5    5  501    0 -0.37920705855E+01  0.36208692915E+02  0.85315013973E+01  0.37687209476E+02  0.47000000000E+01 0. -1.
        -11    1    6    6    0    0  0.14936643025E+02 -0.60833171574E+02 -0.26127536014E+02  0.67870657922E+02  0.00000000000E+00 0.  1.
         12    1    6    6    0    0 -0.72704109831E+02 -0.64417292428E+02  0.13140302451E+02  0.98021133938E+02  0.00000000000E+00 0. -1.
         -5    1    3    3    0  503  0.60128729392E+02 -0.24228985300E+02 -0.89140856097E+02  0.11032085049E+03  0.47000000000E+01 0.  1.
         13    1    4    4    0    0  0.31867186598E+02  0.95054070256E+02 -0.12139216204E+03  0.15743840338E+03  0.00000000000E+00 0. -1.
        -14    1    4    4    0    0 -0.30436378598E+02  0.18216686130E+02 -0.68048460390E+02  0.76738606693E+02  0.00000000000E+00 0.  1.
</event>
<event>
12    1  0.1030140E-001  0.1864720E+03  0.7818608E-02  0.1162057E+00
         21   -1    0    0  501  502  0.00000000000E+00  0.00000000000E+00  0.43670073522E+03  0.43670073522E+03  0.00000000000E+00 0.  1.
         21   -1    0    0  502  503 -0.00000000000E+00 -0.00000000000E+00 -0.82602619256E+02  0.82602619256E+02  0.00000000000E+00 0.  1.
         -6    2    1    2    0  503 -0.65635980394E+02 -0.61030718276E+00  0.23247939975E+03  0.29802429804E+03  0.17453755045E+03 0.  0.
        -24    2    3    3    0    0  0.20409718944E+02 -0.83688875291E+00  0.17608183452E+03  0.19503551672E+03  0.81343612678E+02 0.  0.
          6    2    1    2  501    0  0.65635980394E+02  0.61030718276E+00  0.12161871621E+03  0.22127905643E+03  0.17281450832E+03 0.  0.
         24    2    5    5    0    0  0.90367356788E+02 -0.50047401128E+01  0.29206510673E+02  0.12533492964E+03  0.81636497505E+02 0.  0.
          5    1    5    5  501    0 -0.24731376394E+02  0.56150472955E+01  0.92412205536E+02  0.95944126796E+02  0.47000000000E+01 0. -1.
        -11    1    6    6    0    0  0.85328540566E+02  0.18153677499E+02  0.43682214658E+02  0.97563577832E+02  0.00000000000E+00 0.  1.
         12    1    6    6    0    0  0.50388162221E+01 -0.23158417612E+02 -0.14475703986E+02  0.27771351805E+02  0.00000000000E+00 0. -1.
         -5    1    3    3    0  503 -0.86045699338E+02  0.22658157014E+00  0.56397565226E+02  0.10298878132E+03  0.47000000000E+01 0.  1.
         11    1    4    4    0    0  0.15866578805E+02  0.39697336599E+02  0.81448024966E+02  0.91985909937E+02  0.00000000000E+00 0. -1.
        -12    1    4    4    0    0  0.45431401385E+01 -0.40534225352E+02  0.94633809558E+02  0.10304960679E+03  0.00000000000E+00 0.  1.
</event>
<event>
12    1  0.1030140E-001  0.1856628E+03  0.7818608E-02  0.1162498E+00
         21   -1    0    0  503  502  0.00000000000E+00  0.00000000000E+00  0.29466796029E+02  0.29466796029E+02  0.00000000000E+00 0. -1.
         21   -1    0    0  501  503 -0.00000000000E+00 -0.00000000000E+00 -0.13507606909E+04  0.13507606909E+04  0.00000000000E+00 0. -1.
          6    2    1    2  501    0 -0.67729462625E+02  0.14575274223E+02 -0.40638286438E+03  0.44666823709E+03  0.17194697682E+03 0.  0.
         24    2    3    3    0    0 -0.86243179272E+02  0.15151481025E+02 -0.41026796843E+03  0.42716762808E+03  0.80529020929E+02 0.  0.
         -6    2    1    2    0  502  0.67729462625E+02 -0.14575274223E+02 -0.91491103049E+03  0.93355924983E+03  0.17225260670E+03 0.  0.
        -24    2    5    5    0    0  0.26149361329E+02 -0.60999853546E+02 -0.73714160207E+03  0.74512303764E+03  0.86173246874E+02 0.  0.
          5    1    3    3  501    0  0.18513716647E+02 -0.57620680189E+00  0.38851040491E+01  0.19500609012E+02  0.47000000000E+01 0. -1.
        -13    1    4    4    0    0  0.11106458693E+02  0.18340132988E+02 -0.66873645281E+02  0.70226763672E+02  0.00000000000E+00 0.  1.
         14    1    4    4    0    0 -0.97349637965E+02 -0.31886519626E+01 -0.34339432315E+03  0.35694086440E+03  0.00000000000E+00 0. -1.
         -5    1    5    5    0  502  0.41580101296E+02  0.46424579322E+02 -0.17776942841E+03  0.18843621220E+03  0.47000000000E+01 0.  1.
         13    1    6    6    0    0  0.45036360084E+02 -0.71761893095E+02 -0.63970354056E+03  0.64528959610E+03  0.00000000000E+00 0. -1.
        -14    1    6    6    0    0 -0.18886998755E+02  0.10762039549E+02 -0.97438061512E+02  0.99833441533E+02  0.00000000000E+00 0.  1.
</event>
<event>
12    1  0.1030140E-001  0.1862048E+03  0.7818608E-02  0.1162506E+00
         21   -1    0    0  501  502  0.00000000000E+00  0.00000000000E+00  0.15712174169E+03  0.15712174169E+03  0.00000000000E+00 0. -1.
         21   -1    0    0  502  503 -0.00000000000E+00 -0.00000000000E+00 -0.22843196418E+03  0.22843196418E+03  0.00000000000E+00 0. -1.
         -6    2    1    2    0  503 -0.15429131081E+02  0.68887712661E+02 -0.77113889039E+02  0.19925848501E+03  0.16962846731E+03 0.  0.
        -24    2    3    3    0    0 -0.19595784985E+02 -0.20536675351E+02 -0.78140958528E+01  0.85950791041E+02  0.80751028247E+02 0.  0.
          6    2    1    2  501    0  0.15429131081E+02 -0.68887712661E+02  0.58036665453E+01  0.18629522086E+03  0.17230395157E+03 0.  0.
         24    2    5    5    0    0  0.57322517046E+02 -0.43591516296E+02 -0.44814798530E+02  0.11573126161E+03  0.78735427183E+02 0.  0.
          5    1    5    5  501    0 -0.41893385964E+02 -0.25296196365E+02  0.50618465075E+02  0.70563959247E+02  0.47000000000E+01 0. -1.
        -11    1    6    6    0    0  0.47377652117E+02 -0.40732973650E+02 -0.66779532152E+02  0.91451205443E+02  0.00000000000E+00 0.  1.
         12    1    6    6    0    0  0.99448649287E+01 -0.28585426463E+01  0.21964733622E+02  0.24280056170E+02  0.00000000000E+00 0. -1.
         -5    1    3    3    0  503  0.41666539036E+01  0.89424388012E+02 -0.69299793186E+02  0.11330769397E+03  0.47000000000E+01 0.  1.
         11    1    4    4    0    0  0.15052359087E+02 -0.18796910989E+01 -0.34983538366E+02  0.38130758048E+02  0.00000000000E+00 0. -1.
        -12    1    4    4    0    0 -0.34648144072E+02 -0.18656984252E+02  0.27169442513E+02  0.47820032993E+02  0.00000000000E+00 0.  1.
</event>
<event>
12    1  0.1030140E-001  0.2336572E+03  0.7818608E-02  0.1124095E+00
         21   -1    0    0  501  502  0.00000000000E+00  0.00000000000E+00  0.12886565447E+03  0.12886565447E+03  0.00000000000E+00 0.  1.
         21   -1    0    0  502  503 -0.00000000000E+00 -0.00000000000E+00 -0.46843424530E+03  0.46843424530E+03  0.00000000000E+00 0. -1.
         -6    2    1    2    0  503 -0.97777574538E+02 -0.12303525836E+03 -0.77423607387E+02  0.24615059049E+03  0.17290913606E+03 0.  0.
        -24    2    3    3    0    0 -0.69478662374E+01 -0.11154416036E+03 -0.69639656043E+02  0.15414645394E+03  0.80131610563E+02 0.  0.
          6    2    1    2  501    0  0.97777574538E+02  0.12303525836E+03 -0.26214498344E+03  0.35114930928E+03  0.17288064145E+03 0.  0.
         24    2    5    5    0    0  0.14339546663E+02  0.12026015040E+03 -0.11451775515E+03  0.18148642515E+03  0.71797492284E+02 0.  0.
          5    1    5    5  501    0  0.83438027875E+02  0.27751079632E+01 -0.14762722829E+03  0.16966288413E+03  0.47000000000E+01 0. -1.
        -11    1    6    6    0    0 -0.26210791762E+02  0.76811931083E+02 -0.70885280992E+02  0.10775806894E+03  0.00000000000E+00 0.  1.
         12    1    6    6    0    0  0.40550338425E+02  0.43448219315E+02 -0.43632474161E+02  0.73728356210E+02  0.00000000000E+00 0. -1.
         -5    1    3    3    0  503 -0.90829708301E+02 -0.11491097996E+02 -0.77839513437E+01  0.92004136547E+02  0.47000000000E+01 0.  1.
         13    1    4    4    0    0 -0.28914176089E+02 -0.71260548928E+02 -0.75645243009E+02  0.10787167470E+03  0.00000000000E+00 0. -1.
        -14    1    4    4    0    0  0.21966309852E+02 -0.40283611437E+02  0.60055869661E+01  0.46274779240E+02  0.00000000000E+00 0.  1.
</event>
<event>
12    1  0.1030140E-001  0.2691517E+03  0.7818608E-02  0.1101943E+00
         21   -1    0    0  501  502  0.00000000000E+00  0.00000000000E+00  0.32369335820E+04  0.32369335820E+04  0.00000000000E+00 0. -1.
         21   -1    0    0  502  503 -0.00000000000E+00 -0.00000000000E+00 -0.46648398986E+02  0.46648398986E+02  0.00000000000E+00 0. -1.
         -6    2    1    2    0  503 -0.18863293258E+01  0.20561561945E+03  0.27835607250E+04  0.27965430367E+04  0.17367010378E+03 0.  0.
        -24    2    3    3    0    0  0.74044344264E+01  0.28431334725E+02  0.67378765995E+03  0.67931724212E+03  0.81356857763E+02 0.  0.
          6    2    1    2  501    0  0.18863293258E+01 -0.20561561945E+03  0.40672445802E+03  0.48703894433E+03  0.17175799061E+03 0.  0.
         24    2    5    5    0    0  0.65003169529E+02 -0.15875152722E+03  0.28787608974E+03  0.34446614433E+03  0.79729681413E+02 0.  0.
          5    1    5    5  501    0 -0.63116840204E+02 -0.46864092232E+02  0.11884836828E+03  0.14257280000E+03  0.47000000000E+01 0. -1.
        -13    1    6    6    0    0  0.22582175392E+02 -0.12235185134E+03  0.24217025649E+03  0.27226157147E+03  0.00000000000E+00 0.  1.
         14    1    6    6    0    0  0.42420994137E+02 -0.36399675881E+02  0.45705833250E+02  0.72204572853E+02  0.00000000000E+00 0. -1.
         -5    1    3    3    0  503 -0.92907637521E+01  0.17718428473E+03  0.21097730651E+04  0.21172257945E+04  0.47000000000E+01 0.  1.
         11    1    4    4    0    0  0.13690982595E+02  0.16194342460E+02  0.65814114879E+03  0.65848270399E+03  0.00000000000E+00 0. -1.
        -12    1    4    4    0    0 -0.62865481690E+01  0.12236992265E+02  0.15646511159E+02  0.20834538128E+02  0.00000000000E+00 0.  1.
</event>
<event>
12    1  0.1030140E-001  0.1827662E+03  0.7818608E-02  0.1165603E+00
         21   -1    0    0  503  502  0.00000000000E+00  0.00000000000E+00  0.87024243950E+03  0.87024243950E+03  0.00000000000E+00 0.  1.
         21   -1    0    0  501  503 -0.00000000000E+00 -0.00000000000E+00 -0.50854135022E+02  0.50854135022E+02  0.00000000000E+00 0.  1.
          6    2    1    2  501    0  0.29113196383E+02 -0.52331979825E+02  0.17646088176E+03  0.25269611851E+03  0.17067709630E+03 0.  0.
         24    2    3    3    0    0  0.81304423046E+02 -0.33292781405E+02  0.14917575833E+03  0.19062371580E+03  0.79782050942E+02 0.  0.
         -6    2    1    2    0  502 -0.29113196383E+02  0.52331979825E+02  0.64292742271E+03  0.66840045601E+03  0.17267682070E+03 0.  0.
        -24    2    5    5    0    0 -0.86322304374E+02  0.28248749470E+02  0.45345769772E+03  0.46896688133E+03  0.77823647337E+02 0.  0.
          5    1    3    3  501    0 -0.52191226663E+02 -0.19039198420E+02  0.27285123438E+02  0.62072402709E+02  0.47000000000E+01 0. -1.
        -11    1    4    4    0    0  0.52278454306E+02  0.60121525971E+01  0.27224365128E+02  0.59248196767E+02  0.00000000000E+00 0.  1.
         12    1    4    4    0    0  0.29025968740E+02 -0.39304934003E+02  0.12195139320E+03  0.13137551903E+03  0.00000000000E+00 0. -1.
         -5    1    5    5    0  502  0.57209107990E+02  0.24083230355E+02  0.18946972499E+03  0.19943357468E+03  0.47000000000E+01 0.  1.
         13    1    6    6    0    0 -0.34221596462E+02 -0.26213897948E+02  0.13518770655E+03  0.14189433433E+03  0.00000000000E+00 0. -1.
        -14    1    6    6    0    0 -0.52100707912E+02  0.54462647417E+02  0.31826999117E+03  0.32707254701E+03  0.00000000000E+00 0.  1.
</event>
<event>
12    1  0.1030140E-001  0.2312704E+03  0.7818608E-02  0.1127043E+00
         21   -1    0    0  501  502  0.00000000000E+00  0.00000000000E+00  0.23423256361E+03  0.23423256361E+03  0.00000000000E+00 0. -1.
         21   -1    0    0  502  503 -0.00000000000E+00 -0.00000000000E+00 -0.63400397993E+03  0.63400397993E+03  0.00000000000E+00 0.  1.
         -6    2    1    2    0  503 -0.14965875097E+02  0.14334816723E+03 -0.54904443128E+03  0.59297584832E+03  0.17145814275E+03 0.  0.
        -24    2    3    3    0    0 -0.61486756832E+02  0.38841940633E+02 -0.27910667396E+03  0.29976222882E+03  0.81655010641E+02 0.  0.
          6    2    1    2  501    0  0.14965875097E+02 -0.14334816723E+03  0.14927301496E+03  0.27526069522E+03  0.18086830256E+03 0.  0.
         24    2    5    5    0    0 -0.51697057982E+02 -0.11758819198E+03  0.62556270486E+02  0.16279111380E+03  0.78026220327E+02 0.  0.
          5    1    5    5  501    0  0.66662933079E+02 -0.25759975252E+02  0.86716744474E+02  0.11246958142E+03  0.47000000000E+01 0. -1.
        -13    1    6    6    0    0  0.56000220286E+01 -0.74692334968E+02  0.13734924035E+02  0.76150858747E+02  0.00000000000E+00 0.  1.
         14    1    6    6    0    0 -0.57297080011E+02 -0.42895857011E+02  0.48821346451E+02  0.86640255054E+02  0.00000000000E+00 0. -1.
         -5    1    3    3    0  503  0.46520881735E+02  0.10450622660E+03 -0.26993775732E+03  0.29321361950E+03  0.47000000000E+01 0.  1.
         11    1    4    4    0    0 -0.21515483997E+02  0.41030595722E+02 -0.54119316213E+02  0.71241323853E+02  0.00000000000E+00 0. -1.
        -12    1    4    4    0    0 -0.39971272835E+02 -0.21886550887E+01 -0.22498735774E+03  0.22852090497E+03  0.00000000000E+00 0.  1.
</event>
<event>
12    1  0.1030140E-001  0.1737476E+03  0.7818608E-02  0.1174029E+00
         21   -1    0    0  501  502  0.00000000000E+00  0.00000000000E+00  0.56001400941E+03  0.56001400941E+03  0.00000000000E+00 0.  1.
         21   -1    0    0  502  503 -0.00000000000E+00 -0.00000000000E+00 -0.60291923335E+02  0.60291923335E+02  0.00000000000E+00 0.  1.
         -6    2    1    2    0  503  0.25429767435E+02 -0.19703762103E+02  0.14868192652E+03  0.22867999543E+03  0.17074341488E+03 0.  0.
        -24    2    3    3    0    0 -0.54772267527E+02 -0.12325967428E+01  0.33023006940E+02  0.86649625303E+02  0.58447566185E+02 0.  0.
          6    2    1    2  501    0 -0.25429767435E+02  0.19703762103E+02  0.35104015956E+03  0.39162593732E+03  0.17060706269E+03 0.  0.
         24    2    5    5    0    0 -0.68849790197E+02  0.46409653547E+02  0.18119616178E+03  0.21423490993E+03  0.78551881174E+02 0.  0.
          5    1    5    5  501    0  0.43420022762E+02 -0.26705891445E+02  0.16984399778E+03  0.17739102738E+03  0.47000000000E+01 0. -1.
        -11    1    6    6    0    0 -0.25242848885E+02  0.35626493729E+02  0.15751490436E+03  0.16345456118E+03  0.00000000000E+00 0.  1.
         12    1    6    6    0    0 -0.43606941312E+02  0.10783159818E+02  0.23681257426E+02  0.50780348754E+02  0.00000000000E+00 0. -1.
         -5    1    3    3    0  503  0.80202034963E+02 -0.18471165360E+02  0.11565891957E+03  0.14203037013E+03  0.47000000000E+01 0.  1.
         13    1    4    4    0    0 -0.46774647159E+02 -0.74720577946E+01  0.48726019370E+02  0.67955310522E+02  0.00000000000E+00 0. -1.
        -14    1    4    4    0    0 -0.79976203680E+01  0.62394610518E+01 -0.15703012429E+02  0.18694314781E+02  0.00000000000E+00 0.  1.
</event>
<event>
12    1  0.1030140E-001  0.2343562E+03  0.7818608E-02  0.1123790E+00
         21   -1    0    0  503  502  0.00000000000E+00  0.00000000000E+00  0.71848194243E+03  0.71848194243E+03  0.00000000000E+00 0.  1.
         21   -1    0    0  501  503 -0.00000000000E+00 -0.00000000000E+00 -0.81866770306E+02  0.81866770306E+02  0.00000000000E+00 0.  1.
          6    2    1    2  501    0 -0.15845494828E+03  0.16561358810E+02  0.21147466082E+03  0.31489297608E+03  0.17045176729E+03 0.  0.
         24    2    3    3    0    0 -0.53138175686E+02  0.66254060047E+02  0.11526244953E+03  0.16376433304E+03  0.79498794423E+02 0.  0.
         -6    2    1    2    0  502  0.15845494828E+03 -0.16561358810E+02  0.42514051129E+03  0.48545573665E+03  0.17187369974E+03 0.  0.
        -24    2    5    5    0    0  0.11767771267E+03 -0.49938588424E+02  0.39902478576E+03  0.42645621529E+03  0.79386505376E+02 0.  0.
          5    1    3    3  501    0 -0.10531677260E+03 -0.49692701236E+02  0.96212211292E+02  0.15112864304E+03  0.47000000000E+01 0. -1.
        -13    1    4    4    0    0 -0.47981242404E+02 -0.13948287639E+01  0.55210099242E+02  0.73159416538E+02  0.00000000000E+00 0.  1.
         14    1    4    4    0    0 -0.51569332820E+01  0.67648888811E+02  0.60052350291E+02  0.90604916498E+02  0.00000000000E+00 0. -1.
         -5    1    5    5    0  502  0.40777235614E+02  0.33377229614E+02  0.26115725539E+02  0.58999521366E+02  0.47000000000E+01 0.  1.
         11    1    6    6    0    0 -0.68587641251E+01 -0.10681391754E+02  0.91230899610E+02  0.92109781342E+02  0.00000000000E+00 0. -1.
        -12    1    6    6    0    0  0.12453647679E+03 -0.39257196670E+02  0.30779388615E+03  0.33434643394E+03  0.00000000000E+00 0.  1.
</event>
<event>
12    1  0.1030140E-001  0.1955191E+03  0.7818608E-02  0.1154369E+00
         21   -1    0    0  503  502  0.00000000000E+00  0.00000000000E+00  0.11900947770E+03  0.11900947770E+03  0.00000000000E+00 0.  1.
         21   -1    0    0  501  503 -0.00000000000E+00 -0.00000000000E+00 -0.56953281292E+03  0.56953281292E+03  0.00000000000E+00 0.  1.
          6    2    1    2  501    0 -0.59829639389E+02  0.62026057902E+02 -0.45410555810E+03  0.49299039447E+03  0.17146677092E+03 0.  0.
         24    2    3    3    0    0 -0.43213308376E+02  0.96677249062E+02 -0.42368173816E+03  0.44375111822E+03  0.78708062927E+02 0.  0.
         -6    2    1    2    0  502  0.59829639389E+02 -0.62026057902E+02  0.35822228780E+01  0.19555189615E+03  0.17550183520E+03 0.  0.
        -24    2    5    5    0    0  0.13433755598E+02 -0.79031165089E+02 -0.48006900233E+02  0.12396083996E+03  0.81456961200E+02 0.  0.
          5    1    3    3  501    0 -0.16616331013E+02 -0.34651191160E+02 -0.30423819945E+02  0.49239276246E+02  0.47000000000E+01 0. -1.
        -13    1    4    4    0    0  0.15967481193E+02  0.52816207899E+02 -0.23022386531E+03  0.23674361750E+03  0.00000000000E+00 0.  1.
         14    1    4    4    0    0 -0.59180789569E+02  0.43861041163E+02 -0.19345787285E+03  0.20700750072E+03  0.00000000000E+00 0. -1.
         -5    1    5    5    0  502  0.46395883792E+02  0.17005107187E+02  0.51589123111E+02  0.71591056191E+02  0.47000000000E+01 0.  1.
         11    1    6    6    0    0 -0.31407390105E+02 -0.12336654905E+02 -0.11079233419E+02  0.35515723569E+02  0.00000000000E+00 0. -1.
        -12    1    6    6    0    0  0.44841145702E+02 -0.66694510183E+02 -0.36927666814E+02  0.88445116388E+02  0.00000000000E+00 0.  1.
</event>
<event>
12    1  0.1030140E-001  0.1799008E+03  0.7818608E-02  0.1168215E+00
         21   -1    0    0  501  502  0.00000000000E+00  0.00000000000E+00  0.17581491128E+03  0.17581491128E+03  0.00000000000E+00 0. -1.
         21   -1    0    0  502  503 -0.00000000000E+00 -0.00000000000E+00 -0.23142130017E+03  0.23142130017E+03  0.00000000000E+00 0. -1.
         -6    2    1    2    0  503 -0.94658449934E+00  0.59559438344E+02  0.65493818462E+02  0.19145161491E+03  0.16975293186E+03 0.  0.
        -24    2    3    3    0    0  0.37025508130E+02  0.91801536988E+02  0.30337781708E+02  0.13030041162E+03  0.79116406791E+02 0.  0.
          6    2    1    2  501    0  0.94658449934E+00 -0.59559438344E+02 -0.12110020735E+03  0.21578459653E+03  0.16837312482E+03 0.  0.
         24    2    5    5    0    0  0.43946290171E+02 -0.49200331504E+02 -0.20174074848E+02  0.10549198570E+03  0.79809878528E+02 0.  0.
          5    1    5    5  501    0 -0.42999705672E+02 -0.10359106840E+02 -0.10092613250E+03  0.11029261083E+03  0.47000000000E+01 0. -1.
        -11    1    6    6    0    0 -0.90217868542E+01 -0.49678057039E+02 -0.11971138431E+02  0.51890366587E+02  0.00000000000E+00 0.  1.
         12    1    6    6    0    0  0.52968077026E+02  0.47772553510E+00 -0.82029364173E+01  0.53601619111E+02  0.00000000000E+00 0. -1.
         -5    1    3    3    0  503 -0.37972092629E+02 -0.32242098643E+02  0.35156036755E+02  0.61151203290E+02  0.47000000000E+01 0.  1.
         11    1    4    4    0    0  0.64941706022E+00  0.57335989568E+00  0.32060565554E+02  0.32072267580E+02  0.00000000000E+00 0. -1.
        -12    1    4    4    0    0  0.36376091070E+02  0.91228177092E+02 -0.17227838465E+01  0.98228144038E+02  0.00000000000E+00 0.  1.
</event>
<event>
12    1  0.1030140E-001  0.3061482E+03  0.7818608E-02  0.1082371E+00
         21   -1    0    0  501  502  0.00000000000E+00  0.00000000000E+00  0.83527037502E+02  0.83527037502E+02  0.00000000000E+00 0. -1.
         21   -1    0    0  502  503 -0.00000000000E+00 -0.00000000000E+00 -0.12294437308E+04  0.12294437308E+04  0.00000000000E+00 0.  1.
         -6    2    1    2    0  503  0.67872798389E+02  0.24224025404E+03 -0.37574293044E+03  0.48467461352E+03  0.17446969302E+03 0.  0.
        -24    2    3    3    0    0  0.10286875737E+03  0.16707132454E+03 -0.32220333987E+03  0.38586336485E+03  0.81121731878E+02 0.  0.
          6    2    1    2  501    0 -0.67872798389E+02 -0.24224025404E+03 -0.77017376283E+03  0.82829615475E+03  0.17210414748E+03 0.  0.
         24    2    5    5    0    0 -0.10314519439E+03 -0.12181359137E+03 -0.44882711631E+03  0.48328531401E+03  0.81494982846E+02 0.  0.
          5    1    5    5  501    0  0.35272395998E+02 -0.12042666267E+03 -0.32134664652E+03  0.34501084074E+03  0.47000000000E+01 0. -1.
        -13    1    6    6    0    0 -0.42963363248E+02 -0.10940004749E+03 -0.30629582407E+03  0.32807217623E+03  0.00000000000E+00 0.  1.
         14    1    6    6    0    0 -0.60181831139E+02 -0.12413543885E+02 -0.14253129224E+03  0.15521313778E+03  0.00000000000E+00 0. -1.
         -5    1    3    3    0  503 -0.34995958979E+02  0.75168929495E+02 -0.53539590564E+02  0.98811248671E+02  0.47000000000E+01 0.  1.
         11    1    4    4    0    0  0.57641233968E+02  0.13146204763E+03 -0.16635608975E+03  0.21972512469E+03  0.00000000000E+00 0. -1.
        -12    1    4    4    0    0  0.45227523400E+02  0.35609276911E+02 -0.15584725012E+03  0.16613824017E+03  0.00000000000E+00 0.  1.
</event>
<event>
12    1  0.1030140E-001  0.1800148E+03  0.7818608E-02  0.1167906E+00
         21   -1    0    0  501  502  0.00000000000E+00  0.00000000000E+00  0.21086364131E+02  0.21086364131E+02  0.00000000000E+00 0. -1.
         21   -1    0    0  502  503 -0.00000000000E+00 -0.00000000000E+00 -0.15554906482E+04  0.15554906482E+04  0.00000000000E+00 0. -1.
         -6    2    1    2    0  503  0.37833214878E+02  0.34929781919E+02 -0.67070967730E+03  0.69432210664E+03  0.17198917036E+03 0.  0.
        -24    2    3    3    0    0  0.64717635842E+02  0.26095772563E+02 -0.23691519114E+03  0.25958016245E+03  0.79898005035E+02 0.  0.
          6    2    1    2  501    0 -0.37833214878E+02 -0.34929781919E+02 -0.86369460672E+03  0.88225490565E+03  0.17249319712E+03 0.  0.
         24    2    5    5    0    0  0.38693720184E+02  0.12457478125E+02 -0.45062145825E+03  0.45946247408E+03  0.79960450914E+02 0.  0.
          5    1    5    5  501    0 -0.76526935062E+02 -0.47387260044E+02 -0.41307314847E+03  0.42279243157E+03  0.47000000000E+01 0. -1.
        -11    1    6    6    0    0  0.58268543801E+02 -0.10770095638E+02 -0.28930023494E+03  0.29530635634E+03  0.00000000000E+00 0.  1.
         12    1    6    6    0    0 -0.19574823617E+02  0.23227573763E+02 -0.16132122331E+03  0.16415611775E+03  0.00000000000E+00 0. -1.
         -5    1    3    3    0  503 -0.26884420964E+02  0.88340093563E+01 -0.43379448616E+03  0.43474194419E+03  0.47000000000E+01 0.  1.
         13    1    4    4    0    0  0.17407147786E+02  0.47079587781E+02 -0.15264429494E+03  0.16068533585E+03  0.00000000000E+00 0. -1.
        -14    1    4    4    0    0  0.47310488056E+02 -0.20983815218E+02 -0.84270896202E+02  0.98894826598E+02  0.00000000000E+00 0.  1.
</event>
<event>
12    1  0.1030140E-001  0.1945674E+03  0.7818608E-02  0.1155749E+00
         21   -1    0    0  501  502  0.00000000000E+00  0.00000000000E+00  0.36548853969E+02  0.36548853969E+02  0.00000000000E+00 0.  1.
         21   -1    0    0  502  503 -0.00000000000E+00 -0.00000000000E+00 -0.13192798481E+04  0.13192798481E+04  0.00000000000E+00 0. -1.
         -6    2    1    2    0  503 -0.54776263052E+02  0.60458339769E+02 -0.96511225616E+03  0.98335301264E+03  0.16995832029E+03 0.  0.
        -24    2    3    3    0    0  0.27025113599E+01  0.91807351023E+02 -0.66202656064E+03  0.67324077676E+03  0.80858414694E+02 0.  0.
          6    2    1    2  501    0  0.54776263052E+02 -0.60458339769E+02 -0.31761873799E+03  0.37247568945E+03  0.17663755735E+03 0.  0.
         24    2    5    5    0    0  0.21465216263E+02 -0.55479788759E+02 -0.32337019668E+03  0.33798538523E+03  0.78275628744E+02 0.  0.
          5    1    5    5  501    0  0.33311046790E+02 -0.49785510098E+01  0.57514586894E+01  0.34490304224E+02  0.47000000000E+01 0. -1.
        -11    1    6    6    0    0  0.13720315563E+02 -0.74361432591E+02 -0.22035874829E+03  0.23297177440E+03  0.00000000000E+00 0.  1.
         12    1    6    6    0    0  0.77449007000E+01  0.18881643832E+02 -0.10301144839E+03  0.10501361083E+03  0.00000000000E+00 0. -1.
         -5    1    3    3    0  503 -0.57478774412E+02 -0.31349011254E+02 -0.30308569552E+03  0.31011223589E+03  0.47000000000E+01 0.  1.
         13    1    4    4    0    0 -0.10028139767E+02  0.77368573770E+02 -0.27820505449E+03  0.28893686531E+03  0.00000000000E+00 0. -1.
        -14    1    4    4    0    0  0.12730651126E+02  0.14438777253E+02 -0.38382150615E+03  0.38430391144E+03  0.00000000000E+00 0.  1.
</event>
<event>
12    1  0.1030140E-001  0.2071339E+03  0.7818608E-02  0.1144264E+00
         21   -1    0    0  503  502  0.00000000000E+00  0.00000000000E+00  0.44827695638E+03  0.44827695638E+03  0.00000000000E+00 0. -1.
         21   -1    0    0  501  503 -0.00000000000E+00 -0.00000000000E+00 -0.11261553077E+03  0.11261553077E+03  0.00000000000E+00 0.  1.
          6    2    1    2  501    0 -0.30819363444E+01 -0.11319921316E+03  0.56919867651E+02  0.21481232886E+03  0.17343847643E+03 0.  0.
         24    2    3    3    0    0  0.24340077011E+02 -0.14310393480E+03  0.48750935208E+02  0.17315802956E+03  0.80844752542E+02 0.  0.
         -6    2    1    2    0  502  0.30819363444E+01  0.11319921316E+03  0.27874155796E+03  0.34608015829E+03  0.17102941162E+03 0.  0.
        -24    2    5    5    0    0  0.18308686013E+02  0.14318312403E+03  0.19810710702E+03  0.25858791010E+03  0.82369086474E+02 0.  0.
          5    1    3    3  501    0 -0.27422013356E+02  0.29904721640E+02  0.81689324430E+01  0.41654299299E+02  0.47000000000E+01 0. -1.
        -13    1    4    4    0    0  0.54144851576E+01 -0.49507055115E+02 -0.21867217651E+02  0.54391546801E+02  0.00000000000E+00 0.  1.
         14    1    4    4    0    0  0.18925591854E+02 -0.93596879687E+02  0.70618152859E+02  0.11876648276E+03  0.00000000000E+00 0. -1.
         -5    1    5    5    0  502 -0.15226749669E+02 -0.29983910867E+02  0.80634450938E+02  0.87492248196E+02  0.47000000000E+01 0.  1.
         11    1    6    6    0    0 -0.26686466789E+02  0.84669558350E+02  0.13446198438E+03  0.16112456940E+03  0.00000000000E+00 0. -1.
        -12    1    6    6    0    0  0.44995152803E+02  0.58513565679E+02  0.63645122643E+02  0.97463340700E+02  0.00000000000E+00 0.  1.
</event>
<event>
12    1  0.1030140E-001  0.1813591E+03  0.7818608E-02  0.1166930E+00
         21   -1    0    0  501  502  0.00000000000E+00  0.00000000000E+00  0.18059339914E+03  0.18059339914E+03  0.00000000000E+00 0.  1.
         21   -1    0    0  502  503 -0.00000000000E+00 -0.00000000000E+00 -0.21844674552E+03  0.21844674552E+03  0.00000000000E+00 0.  1.
         -6    2    1    2    0  503 -0.34931844176E+02 -0.48825699843E+02 -0.10236353585E+03  0.20825328836E+03  0.17113432133E+03 0.  0.
        -24    2    3    3    0    0 -0.38111408361E+02 -0.17381089938E+02 -0.13587292120E+03  0.16195164662E+03  0.77539044309E+02 0.  0.
          6    2    1    2  501    0  0.34931844176E+02  0.48825699843E+02  0.64510189464E+02  0.19078685630E+03  0.16921547592E+03 0.  0.
         24    2    5    5    0    0 -0.14969141311E+02  0.64521359405E+02 -0.33487612496E+01  0.10497666301E+03  0.81374471198E+02 0.  0.
          5    1    5    5  501    0  0.49900985488E+02 -0.15695659562E+02  0.67858950713E+02  0.85810193297E+02  0.47000000000E+01 0. -1.
        -13    1    6    6    0    0 -0.36172054071E+02  0.12917815332E+02  0.21372250128E+02  0.43955210433E+02  0.00000000000E+00 0.  1.
         14    1    6    6    0    0  0.21202912760E+02  0.51603544073E+02 -0.24721011378E+02  0.61021452572E+02  0.00000000000E+00 0. -1.
         -5    1    3    3    0  503  0.31795641848E+01 -0.31444609905E+02  0.33509385356E+02  0.46301641736E+02  0.47000000000E+01 0.  1.
         11    1    4    4    0    0  0.90658139329E+00  0.16000672316E+02 -0.94942108559E+02  0.96285239689E+02  0.00000000000E+00 0. -1.
        -12    1    4    4    0    0 -0.39017989754E+02 -0.33381762254E+02 -0.40930812644E+02  0.65666406932E+02  0.00000000000E+00 0.  1.
</event>
<event>
12    1  0.1030140E-001  0.2204524E+03  0.7818608E-02  0.1134220E+00
         21   -1    0    0  503  502  0.00000000000E+00  0.00000000000E+00  0.41074882003E+03  0.41074882003E+03  0.00000000000E+00 0. -1.
         21   -1    0    0  501  503 -0.00000000000E+00 -0.00000000000E+00 -0.19132451994E+03  0.19132451994E+03  0.00000000000E+00 0. -1.
          6    2    1    2  501    0  0.13092480655E+03  0.11424666342E+02 -0.79217610588E+02  0.23087762039E+03  0.17250280518E+03 0.  0.
         24    2    3    3    0    0  0.56200745219E+02  0.69561513547E+02 -0.16547106592E+02  0.11724109274E+03  0.73988777255E+02 0.  0.
         -6    2    1    2    0  502 -0.13092480655E+03 -0.11424666342E+02  0.29864191068E+03  0.37119571958E+03  0.17699560291E+03 0.  0.
        -24    2    5    5    0    0 -0.16231982721E+03 -0.10047638548E+02  0.28294352262E+03  0.33575460059E+03  0.78901416196E+02 0.  0.
          5    1    3    3  501    0  0.74724061332E+02 -0.58136847205E+02 -0.62670503996E+02  0.11363652765E+03  0.47000000000E+01 0. -1.
        -11    1    4    4    0    0  0.47618304629E+02  0.49473626591E+02  0.22702176879E+02  0.72322413530E+02  0.00000000000E+00 0.  1.
         12    1    4    4    0    0  0.85824405899E+01  0.20087886956E+02 -0.39249283470E+02  0.44918679208E+02  0.00000000000E+00 0. -1.
         -5    1    5    5    0  502  0.31395020657E+02 -0.13770277941E+01  0.15698388053E+02  0.35441118988E+02  0.47000000000E+01 0.  1.
         11    1    6    6    0    0 -0.15384002228E+03 -0.13381914740E+02  0.20181680059E+03  0.25411778587E+03  0.00000000000E+00 0. -1.
        -12    1    6    6    0    0 -0.84798049331E+01  0.33342761928E+01  0.81126722038E+02  0.81636814722E+02  0.00000000000E+00 0.  1.
</event>
<event>
12    1  0.1030140E-001  0.2307681E+03  0.7818608E-02  0.1126220E+00
         21   -1    0    0  503  502  0.00000000000E+00  0.00000000000E+00  0.11070880909E+04  0.11070880909E+04  0.00000000000E+00 0.  1.
         21   -1    0    0  501  503 -0.00000000000E+00 -0.00000000000E+00 -0.32087673194E+03  0.32087673194E+03  0.00000000000E+00 0.  1.
          6    2    1    2  501    0 -0.48241606967E+02  0.14412659471E+03 -0.26544560270E+03  0.35128646790E+03  0.17274572814E+03 0.  0.
         24    2    3    3    0    0 -0.70143175295E+02  0.49602668983E+02 -0.84918054209E+02  0.14628223137E+03  0.82504093677E+02 0.  0.
         -6    2    1    2    0  502  0.48241606967E+02 -0.14412659471E+03  0.10516569617E+04  0.10766783550E+04  0.17364960996E+03 0.  0.
        -24    2    5    5    0    0  0.21544234763E+00 -0.32454580234E+01  0.43045257130E+03  0.43787400949E+03  0.80210053201E+02 0.  0.
          5    1    3    3  501    0  0.21901568328E+02  0.94523925725E+02 -0.18052754849E+03  0.20500423653E+03  0.47000000000E+01 0. -1.
        -13    1    4    4    0    0 -0.47893332359E+02  0.28153395403E+02 -0.98056138331E+02  0.11270044907E+03  0.00000000000E+00 0.  1.
         14    1    4    4    0    0 -0.22249842936E+02  0.21449273580E+02  0.13138084122E+02  0.33581782297E+02  0.00000000000E+00 0. -1.
         -5    1    5    5    0  502  0.48026164619E+02 -0.14088113668E+03  0.62120439039E+03  0.63880434548E+03  0.47000000000E+01 0.  1.
         11    1    6    6    0    0  0.25352322803E+02  0.14629289041E+02  0.66996098800E+02  0.73111104655E+02  0.00000000000E+00 0. -1.
        -12    1    6    6    0    0 -0.25136880456E+02 -0.17874747065E+02  0.36345647250E+03  0.36476290483E+03  0.00000000000E+00 0.  1.
</event>
<event>
12    1  0.1030140E-001  0.3023767E+03  0.7818608E-02  0.1084396E+00
         21   -1    0    0  501  502  0.00000000000E+00  0.00000000000E+00  0.28599302259E+03  0.28599302259E+03  0.00000000000E+00 0.  1.
         21   -1    0    0  502  503 -0.00000000000E+00 -0.00000000000E+00 -0.32984116931E+03  0.32984116931E+03  0.00000000000E+00 0. -1.
         -6    2    1    2    0  503 -0.11733285895E+03  0.21699370667E+03  0.39128301271E+02  0.30489788580E+03  0.17486688732E+03 0.  0.
        -24    2    3    3    0    0 -0.71081037309E+02  0.65371643364E+02  0.69936055721E+02  0.14334390467E+03  0.79564172175E+02 0.  0.
          6    2    1    2  501    0  0.11733285895E+03 -0.21699370667E+03 -0.82976447994E+02  0.31093630609E+03  0.17012650293E+03 0.  0.
         24    2    5    5    0    0  0.73708006751E+01 -0.62244336027E+02  0.40142123908E+01  0.10206197313E+03  0.80447786723E+02 0.  0.
          5    1    5    5  501    0  0.10996205828E+03 -0.15474937065E+03 -0.86990660385E+02  0.20887433296E+03  0.47000000000E+01 0. -1.
        -13    1    6    6    0    0  0.43114888114E+02 -0.36358760704E+02 -0.62707758825E+01  0.56746591855E+02  0.00000000000E+00 0.  1.
         14    1    6    6    0    0 -0.35744087438E+02 -0.25885575323E+02  0.10284988273E+02  0.45315381278E+02  0.00000000000E+00 0. -1.
         -5    1    3    3    0  503 -0.46251821644E+02  0.15162206331E+03 -0.30807754450E+02  0.16155398114E+03  0.47000000000E+01 0.  1.
         13    1    4    4    0    0 -0.16471232815E+02  0.13342318911E+02 -0.17773283740E+02  0.27662404076E+02  0.00000000000E+00 0. -1.
        -14    1    4    4    0    0 -0.54609804494E+02  0.52029324453E+02  0.87709339461E+02  0.11568150059E+03  0.00000000000E+00 0.  1.
</event>
<event>
12    1  0.1030140E-001  0.2129536E+03  0.7818608E-02  0.1140665E+00
         21   -1    0    0  501  502  0.00000000000E+00  0.00000000000E+00  0.17074619370E+04  0.17074619370E+04  0.00000000000E+00 0. -1.
         21   -1    0    0  502  503 -0.00000000000E+00 -0.00000000000E+00 -0.32453095646E+02  0.32453095646E+02  0.00000000000E+00 0. -1.
         -6    2    1    2    0  503  0.10086251056E+03 -0.61137522493E+02  0.42862874703E+03  0.47547342275E+03  0.16864557587E+03 0.  0.
        -24    2    3    3    0    0  0.66549583654E+02 -0.21725321177E+02  0.40353423868E+03  0.41731396165E+03  0.80063875342E+02 0.  0.
          6    2    1    2  501    0 -0.10086251056E+03  0.61137522493E+02  0.12463800943E+04  0.12644416099E+04  0.17730821368E+03 0.  0.
         24    2    5    5    0    0 -0.12315757427E+03  0.40961802478E+02  0.57787218030E+03  0.59524130308E+03  0.59416283647E+02 0.  0.
          5    1    5    5  501    0  0.22295063713E+02  0.20175720015E+02  0.66850791400E+03  0.66920030680E+03  0.47000000000E+01 0. -1.
        -13    1    6    6    0    0 -0.11131344783E+02  0.22176017449E+02  0.17174027991E+03  0.17352350369E+03  0.00000000000E+00 0.  1.
         14    1    6    6    0    0 -0.11202622949E+03  0.18785785028E+02  0.40613190039E+03  0.42171779940E+03  0.00000000000E+00 0. -1.
         -5    1    3    3    0  503  0.34312926906E+02 -0.39412201315E+02  0.25094508349E+02  0.58159461093E+02  0.47000000000E+01 0.  1.
         11    1    4    4    0    0 -0.81504735134E+00 -0.20143677274E+02  0.21859227702E+02  0.29736473766E+02  0.00000000000E+00 0. -1.
        -12    1    4    4    0    0  0.67364631006E+02 -0.15816439031E+01  0.38167501098E+03  0.38757748789E+03  0.00000000000E+00 0.  1.
</event>
<event>
12    1  0.1030140E-001  0.1984978E+03  0.7818608E-02  0.1151264E+00
         21   -1    0    0  501  502  0.00000000000E+00  0.00000000000E+00  0.88360081605E+02  0.88360081605E+02  0.00000000000E+00 0. -1.
         21   -1    0    0  502  503 -0.00000000000E+00 -0.00000000000E+00 -0.54370377679E+03  0.54370377679E+03  0.00000000000E+00 0. -1.
         -6    2    1    2    0  503  0.57391637304E+02  0.79980098369E+02 -0.36294003699E+03  0.41311227235E+03  0.17101363379E+03 0.  0.
        -24    2    3    3    0    0 -0.18372774230E+02  0.73793078630E+02 -0.16009164692E+03  0.19643720543E+03  0.84706924018E+02 0.  0.
          6    2    1    2  501    0 -0.57391637304E+02 -0.79980098369E+02 -0.92403658193E+02  0.21895158605E+03  0.17236805046E+03 0.  0.
         24    2    5    5    0    0  0.13764873059E+02 -0.79512655315E+01 -0.86172047103E+02  0.11740196909E+03  0.78133899758E+02 0.  0.
          5    1    5    5  501    0 -0.71156510362E+02 -0.72028832837E+02 -0.62316110896E+01  0.10154961695E+03  0.47000000000E+01 0. -1.
        -11    1    6    6    0    0 -0.85773472957E+01  0.31617478823E+02 -0.25054066946E+02  0.41242479609E+02  0.00000000000E+00 0.  1.
         12    1    6    6    0    0  0.22342220354E+02 -0.39568744355E+02 -0.61117980158E+02  0.76159489486E+02  0.00000000000E+00 0. -1.
         -5    1    3    3    0  503  0.75764411533E+02  0.61870197389E+01 -0.20284839007E+03  0.21667506691E+03  0.47000000000E+01 0.  1.
         13    1    4    4    0    0  0.24685235546E+02  0.43763766479E+02 -0.36334584250E+02  0.62006694179E+02  0.00000000000E+00 0. -1.
        -14    1    4    4    0    0 -0.43058009776E+02  0.30029312151E+02 -0.12375706267E+03  0.13443051125E+03  0.00000000000E+00 0.  1.
</event>
<event>
12    1  0.1030140E-001  0.2961520E+03  0.7818608E-02  0.1087361E+00
         21   -1    0    0  501  502  0.00000000000E+00  0.00000000000E+00  0.73719882192E+02  0.73719882192E+02  0.00000000000E+00 0. -1.
         21   -1    0    0  502  503 -0.00000000000E+00 -0.00000000000E+00 -0.12115549529E+04  0.12115549529E+04  0.00000000000E+00 0. -1.
         -6    2    1    2    0  503 -0.12178015747E+03 -0.21082476549E+03 -0.66715671682E+03  0.72993428676E+03  0.16860750189E+03 0.  0.
        -24    2    3    3    0    0 -0.10674176522E+03 -0.69489593475E+02 -0.32573000706E+03  0.36007475636E+03  0.85622337191E+02 0.  0.
          6    2    1    2  501    0  0.12178015747E+03  0.21082476549E+03 -0.47067835394E+03  0.55534054838E+03  0.16609492260E+03 0.  0.
         24    2    5    5    0    0  0.13137826541E+03  0.12426825670E+03 -0.25814021494E+03  0.32560438793E+03  0.81725140713E+02 0.  0.
          5    1    5    5  501    0 -0.95981079400E+01  0.86556508792E+02 -0.21253813900E+03  0.22973616045E+03  0.47000000000E+01 0. -1.
        -13    1    6    6    0    0  0.23569450992E+02  0.11008338086E+02 -0.27652977161E+01  0.26160072609E+02  0.00000000000E+00 0.  1.
         14    1    6    6    0    0  0.10780881442E+03  0.11325991861E+03 -0.25537491722E+03  0.29944431532E+03  0.00000000000E+00 0. -1.
         -5    1    3    3    0  503 -0.15038392255E+02 -0.14133517201E+03 -0.34142670976E+03  0.36985953040E+03  0.47000000000E+01 0.  1.
         11    1    4    4    0    0 -0.17630108257E+02 -0.55203913827E+02 -0.17550314615E+03  0.18482328622E+03  0.00000000000E+00 0. -1.
        -12    1    4    4    0    0 -0.89111656961E+02 -0.14285679648E+02 -0.15022686091E+03  0.17525147015E+03  0.00000000000E+00 0.  1.
</event>
<event>
12    1  0.1030140E-001  0.2622613E+03  0.7818608E-02  0.1105817E+00
         21   -1    0    0  501  502  0.00000000000E+00  0.00000000000E+00  0.15579352103E+03  0.15579352103E+03  0.00000000000E+00 0. -1.
         21   -1    0    0  502  503 -0.00000000000E+00 -0.00000000000E+00 -0.57812374986E+03  0.57812374986E+03  0.00000000000E+00 0. -1.
         -6    2    1    2    0  503  0.35392976950E+02  0.19606246680E+03 -0.38969655496E+03  0.46963339099E+03  0.17029081972E+03 0.  0.
        -24    2    3    3    0    0 -0.13902876487E+02  0.89134380696E+02 -0.29452815556E+03  0.31816454598E+03  0.79646821063E+02 0.  0.
          6    2    1    2  501    0 -0.35392976950E+02 -0.19606246680E+03 -0.32633673871E+02  0.26428387990E+03  0.17055163089E+03 0.  0.
         24    2    5    5    0    0 -0.85455368287E+02 -0.14047584333E+03 -0.27384437969E+01  0.18358734641E+03  0.81613308729E+02 0.  0.
          5    1    5    5  501    0  0.50062391336E+02 -0.55586623478E+02 -0.29895230074E+02  0.80696533489E+02  0.47000000000E+01 0. -1.
        -11    1    6    6    0    0 -0.53698174651E+02 -0.22051882541E+02  0.14341857284E+02  0.59795220167E+02  0.00000000000E+00 0.  1.
         12    1    6    6    0    0 -0.31757193635E+02 -0.11842396079E+03 -0.17080301081E+02  0.12379212625E+03  0.00000000000E+00 0. -1.
         -5    1    3    3    0  503  0.49295853438E+02  0.10692808611E+03 -0.95168399401E+02  0.15146884501E+03  0.47000000000E+01 0.  1.
         11    1    4    4    0    0  0.28819543295E+02  0.51701164087E+02 -0.10771641145E+03  0.12290810282E+03  0.00000000000E+00 0. -1.
        -12    1    4    4    0    0 -0.42722419783E+02  0.37433216608E+02 -0.18681174411E+03  0.19525644316E+03  0.00000000000E+00 0.  1.
</event>
<event>
12    1  0.1030140E-001  0.1848249E+03  0.7818608E-02  0.1163233E+00
         21   -1    0    0  501  502  0.00000000000E+00  0.00000000000E+00  0.81523815463E+02  0.81523815463E+02  0.00000000000E+00 0. -1.
         21   -1    0    0  502  503 -0.00000000000E+00 -0.00000000000E+00 -0.69848375790E+03  0.69848375790E+03  0.00000000000E+00 0. -1.
         -6    2    1    2    0  503  0.46851465726E+02 -0.52344510926E+02 -0.55529478645E+03  0.58524570891E+03  0.17095388932E+03 0.  0.
        -24    2    3    3    0    0 -0.22021914001E+02  0.14383257140E+02 -0.17841979105E+03  0.19633313567E+03  0.77596620686E+02 0.  0.
          6    2    1    2  501    0 -0.46851465726E+02  0.52344510926E+02 -0.61665155982E+02  0.19476186445E+03  0.17086422890E+03 0.  0.
         24    2    5    5    0    0 -0.62272371880E+01  0.62219043409E+02 -0.95990935275E+02  0.14046468717E+03  0.81277800423E+02 0.  0.
          5    1    5    5  501    0 -0.40624228538E+02 -0.98745324835E+01  0.34325779293E+02  0.54297177276E+02  0.47000000000E+01 0. -1.
        -11    1    6    6    0    0  0.16151238546E+02  0.11466367891E+02 -0.80462488863E+02  0.82864662029E+02  0.00000000000E+00 0.  1.
         12    1    6    6    0    0 -0.22378475734E+02  0.50752675518E+02 -0.15528446412E+02  0.57600025142E+02  0.00000000000E+00 0. -1.
         -5    1    3    3    0  503  0.68873379727E+02 -0.66727768065E+02 -0.37687499540E+03  0.38891257324E+03  0.47000000000E+01 0.  1.
         11    1    4    4    0    0  0.31577996144E+01 -0.26545423969E+02 -0.29303413184E+02  0.39665113845E+02  0.00000000000E+00 0. -1.
        -12    1    4    4    0    0 -0.25179713616E+02  0.40928681109E+02 -0.14911637787E+03  0.15666802183E+03  0.00000000000E+00 0.  1.
</event>
<event>
12    1  0.1030140E-001  0.2030041E+03  0.7818608E-02  0.1147356E+00
         21   -1    0    0  501  502  0.00000000000E+00  0.00000000000E+00  0.14046546879E+03  0.14046546879E+03  0.00000000000E+00 0. -1.
         21   -1    0    0  502  503 -0.00000000000E+00 -0.00000000000E+00 -0.33633803618E+03  0.33633803618E+03  0.00000000000E+00 0. -1.
         -6    2    1    2    0  503 -0.10522014819E+03  0.20291526146E+02 -0.18387604709E+03  0.27344521314E+03  0.17169408341E+03 0.  0.
        -24    2    3    3    0    0 -0.98577338019E+02 -0.22989169352E+02 -0.18917864423E+03  0.22908810474E+03  0.80292009689E+02 0.  0.
          6    2    1    2  501    0  0.10522014819E+03 -0.20291526146E+02 -0.11996520305E+02  0.20335829183E+03  0.17241708945E+03 0.  0.
         24    2    5    5    0    0  0.62685876494E+02 -0.73546794292E+02 -0.39369115954E+02  0.12976048719E+03  0.77131100619E+02 0.  0.
          5    1    5    5  501    0  0.42534271700E+02  0.53255268146E+02  0.27372595649E+02  0.73597804634E+02  0.47000000000E+01 0. -1.
        -11    1    6    6    0    0 -0.10054392885E+02  0.68523681318E+01  0.42579619951E+01  0.12890927261E+02  0.00000000000E+00 0.  1.
         12    1    6    6    0    0  0.72740269379E+02 -0.80399162424E+02 -0.43627077949E+02  0.11686955993E+03  0.00000000000E+00 0. -1.
         -5    1    3    3    0  503 -0.66428101756E+01  0.43280695499E+02  0.53025971386E+01  0.44357108408E+02  0.47000000000E+01 0.  1.
         13    1    4    4    0    0 -0.73131229494E+02 -0.26772978549E+01 -0.56445172545E+02  0.92419706529E+02  0.00000000000E+00 0. -1.
        -14    1    4    4    0    0 -0.25446108524E+02 -0.20311871497E+02 -0.13273347169E+03  0.13666839821E+03  0.00000000000E+00 0.  1.
</event>
<event>
12    1  0.1030140E-001  0.4240185E+03  0.7818608E-02  0.1035770E+00
         21   -1    0    0  503  502  0.00000000000E+00  0.00000000000E+00  0.70189238192E+03  0.70189238192E+03  0.00000000000E+00 0. -1.
         21   -1    0    0  501  503 -0.00000000000E+00 -0.00000000000E+00 -0.38220424038E+03  0.38220424038E+03  0.00000000000E+00 0.  1.
          6    2    1    2  501    0  0.27231594117E+03 -0.27613685853E+03 -0.15148515971E+03  0.45022285101E+03  0.17130477373E+03 0.  0.
         24    2    3    3    0    0  0.98311304067E+02 -0.12564122902E+03 -0.12921594741E+03  0.21904206450E+03  0.76366445623E+02 0.  0.
         -6    2    1    2    0  502 -0.27231594117E+03  0.27613685853E+03  0.47117330125E+03  0.63387377129E+03  0.17141803190E+03 0.  0.
        -24    2    5    5    0    0 -0.18657749085E+03  0.11863624691E+03  0.33104550460E+03  0.40624377784E+03  0.80976303570E+02 0.  0.
          5    1    3    3  501    0  0.17400463711E+03 -0.15049562951E+03 -0.22269212303E+02  0.23118078651E+03  0.47000000000E+01 0. -1.
        -11    1    4    4    0    0  0.55980110004E+02 -0.12177092268E+03 -0.92171475912E+02  0.16265765060E+03  0.00000000000E+00 0.  1.
         12    1    4    4    0    0  0.42331194064E+02 -0.38703063380E+01 -0.37044471495E+02  0.56384413896E+02  0.00000000000E+00 0. -1.
         -5    1    5    5    0  502 -0.85738450326E+02  0.15750061163E+03  0.14012779664E+03  0.22762999345E+03  0.47000000000E+01 0.  1.
         13    1    6    6    0    0 -0.10225119640E+03  0.10863031239E+03  0.18945636136E+03  0.24114220866E+03  0.00000000000E+00 0. -1.
        -14    1    6    6    0    0 -0.84326294452E+02  0.10005934515E+02  0.14158914324E+03  0.16510156918E+03  0.00000000000E+00 0.  1.
</event>
<event>
12    1  0.1030140E-001  0.2038281E+03  0.7818608E-02  0.1146638E+00
         21   -1    0    0  503  502  0.00000000000E+00  0.00000000000E+00  0.64318266964E+03  0.64318266964E+03  0.00000000000E+00 0.  1.
         21   -1    0    0  501  503 -0.00000000000E+00 -0.00000000000E+00 -0.10338530010E+03  0.10338530010E+03  0.00000000000E+00 0.  1.
          6    2    1    2  501    0  0.61139158204E+02 -0.90965810507E+02  0.40662164342E+02  0.20741879991E+03  0.17133701177E+03 0.  0.
         24    2    3    3    0    0  0.37316674816E+02 -0.11763795516E+03  0.70149621395E+02  0.16083002295E+03  0.75591693912E+02 0.  0.
         -6    2    1    2    0  502 -0.61139158204E+02  0.90965810507E+02  0.49913520520E+03  0.53914916983E+03  0.17185196802E+03 0.  0.
        -24    2    5    5    0    0 -0.10671180202E+03  0.78073590211E+02  0.34639054544E+03  0.37916136938E+03  0.79334985228E+02 0.  0.
          5    1    3    3  501    0  0.23822483388E+02  0.26672144651E+02 -0.29487457052E+02  0.46588776958E+02  0.47000000000E+01 0. -1.
        -13    1    4    4    0    0  0.49629057927E+02 -0.83492942316E+02  0.20403016730E+02  0.99249170772E+02  0.00000000000E+00 0.  1.
         14    1    4    4    0    0 -0.12312383111E+02 -0.34145012843E+02  0.49746604664E+02  0.61580852182E+02  0.00000000000E+00 0. -1.
         -5    1    5    5    0  502  0.45572643813E+02  0.12892220296E+02  0.15274465975E+03  0.15998780045E+03  0.47000000000E+01 0.  1.
         13    1    6    6    0    0 -0.34091565391E+02 -0.83665419069E+01  0.43388079666E+02  0.55810028770E+02  0.00000000000E+00 0. -1.
        -14    1    6    6    0    0 -0.72620236626E+02  0.86440132118E+02  0.30300246578E+03  0.32335134061E+03  0.00000000000E+00 0.  1.
</event>
<event>
12    1  0.1030140E-001  0.1967568E+03  0.7818608E-02  0.1153015E+00
         21   -1    0    0  501  502  0.00000000000E+00  0.00000000000E+00  0.21541376663E+03  0.21541376663E+03  0.00000000000E+00 0. -1.
         21   -1    0    0  502  503 -0.00000000000E+00 -0.00000000000E+00 -0.24305092675E+03  0.24305092675E+03  0.00000000000E+00 0. -1.
         -6    2    1    2    0  503 -0.60878412106E+02 -0.75249612821E+02 -0.13285948076E+03  0.23741291196E+03  0.17130255062E+03 0.  0.
        -24    2    3    3    0    0 -0.23013859154E+02 -0.94991886091E+02 -0.36326045827E+02  0.13175177538E+03  0.80534791076E+02 0.  0.
          6    2    1    2  501    0  0.60878412106E+02  0.75249612821E+02  0.10522232064E+03  0.22105178141E+03  0.16859260960E+03 0.  0.
         24    2    5    5    0    0  0.50310574521E+00  0.11006712893E+02  0.10620726794E+03  0.13276028731E+03  0.78891756718E+02 0.  0.
          5    1    5    5  501    0  0.60375306361E+02  0.64242899928E+02 -0.98494730111E+00  0.88291494101E+02  0.47000000000E+01 0. -1.
        -11    1    6    6    0    0  0.24013444747E-01 -0.32073157437E+02  0.24390957244E+02  0.40294004515E+02  0.00000000000E+00 0.  1.
         12    1    6    6    0    0  0.47909230046E+00  0.43079870330E+02  0.81816310699E+02  0.92466282793E+02  0.00000000000E+00 0. -1.
         -5    1    3    3    0  503 -0.37864552952E+02  0.19742273270E+02 -0.96533434935E+02  0.10566113659E+03  0.47000000000E+01 0.  1.
         11    1    4    4    0    0  0.76227583797E+01 -0.92883879301E+02 -0.38784790763E+02  0.10094444746E+03  0.00000000000E+00 0. -1.
        -12    1    4    4    0    0 -0.30636617534E+02 -0.21080067895E+01  0.24587449363E+01  0.30807327914E+02  0.00000000000E+00 0.  1.
</event>
<event>
12    1  0.1030140E-001  0.2059679E+03  0.7818608E-02  0.1144899E+00
         21   -1    0    0  501  502  0.00000000000E+00  0.00000000000E+00  0.18205135889E+04  0.18205135889E+04  0.00000000000E+00 0.  1.
         21   -1    0    0  502  503 -0.00000000000E+00 -0.00000000000E+00 -0.32094059451E+02  0.32094059451E+02  0.00000000000E+00 0. -1.
         -6    2    1    2    0  503  0.16949869881E+02 -0.11111635279E+03  0.40864591915E+03  0.45761803180E+03  0.17259384070E+03 0.  0.
        -24    2    3    3    0    0 -0.32012400349E+02 -0.92316588189E+02  0.36707002682E+03  0.39052570826E+03  0.90679534578E+02 0.  0.
          6    2    1    2  501    0 -0.16949869881E+02  0.11111635279E+03  0.13797736103E+04  0.13949896166E+04  0.17200776917E+03 0.  0.
         24    2    5    5    0    0 -0.50356706358E+02  0.22856355859E+02  0.46705632252E+03  0.47739450911E+03  0.81888326673E+02 0.  0.
          5    1    5    5  501    0  0.33406836477E+02  0.88259996932E+02  0.91271728783E+03  0.91759510748E+03  0.47000000000E+01 0. -1.
        -13    1    6    6    0    0 -0.16999289470E+02  0.49397177431E+02  0.18888866464E+03  0.19597955151E+03  0.00000000000E+00 0.  1.
         14    1    6    6    0    0 -0.33357416888E+02 -0.26540821572E+02  0.27816765788E+03  0.28141495760E+03  0.00000000000E+00 0. -1.
         -5    1    3    3    0  503  0.48962270230E+02 -0.18799764603E+02  0.41575892326E+02  0.67092323539E+02  0.47000000000E+01 0.  1.
         11    1    4    4    0    0 -0.14120767704E+02  0.54639753255E+00  0.30963784214E+01  0.14466588753E+02  0.00000000000E+00 0. -1.
        -12    1    4    4    0    0 -0.17891632645E+02 -0.92862985721E+02  0.36397364840E+03  0.37605911951E+03  0.00000000000E+00 0.  1.
</event>
<event>
12    1  0.1030140E-001  0.2554368E+03  0.7818608E-02  0.1110011E+00
         21   -1    0    0  501  502  0.00000000000E+00  0.00000000000E+00  0.49023736958E+03  0.49023736958E+03  0.00000000000E+00 0.  1.
         21   -1    0    0  502  503 -0.00000000000E+00 -0.00000000000E+00 -0.17156776362E+03  0.17156776362E+03  0.00000000000E+00 0. -1.
         -6    2    1    2    0  503  0.13301273336E+03  0.13372254687E+03  0.18341050707E+01  0.25482517316E+03  0.17134292561E+03 0.  0.
        -24    2    3    3    0    0  0.11626862209E+03  0.23551679766E+02  0.17286559894E+02  0.14222475762E+03  0.76524391034E+02 0.  0.
          6    2    1    2  501    0 -0.13301273336E+03 -0.13372254687E+03  0.31683550089E+03  0.40697996005E+03  0.17226098362E+03 0.  0.
         24    2    5    5    0    0 -0.69617849347E+02 -0.11463701411E+03  0.30075877962E+03  0.33868852686E+03  0.79156710112E+02 0.  0.
          5    1    5    5  501    0 -0.63394884017E+02 -0.19085532758E+02  0.16076721272E+02  0.68291433189E+02  0.47000000000E+01 0. -1.
        -11    1    6    6    0    0  0.14984833657E+02 -0.75433726572E+01  0.55896421905E+02  0.58359726632E+02  0.00000000000E+00 0.  1.
         12    1    6    6    0    0 -0.84602683004E+02 -0.10709364145E+03  0.24486235771E+03  0.28032880023E+03  0.00000000000E+00 0. -1.
         -5    1    3    3    0  503  0.16744111271E+02  0.11017086710E+03 -0.15452454823E+02  0.11260041554E+03  0.47000000000E+01 0.  1.
         11    1    4    4    0    0  0.56164560823E+02 -0.14833093254E+02 -0.20394726187E+02  0.61566414580E+02  0.00000000000E+00 0. -1.
        -12    1    4    4    0    0  0.60104061270E+02  0.38384773019E+02  0.37681286081E+02  0.80658343037E+02  0.00000000000E+00 0.  1.
</event>
<event>
12    1  0.1030140E-001  0.1829826E+03  0.7818608E-02  0.1165806E+00
         21   -1    0    0  503  502  0.00000000000E+00  0.00000000000E+00  0.54352263192E+03  0.54352263192E+03  0.00000000000E+00 0. -1.
         21   -1    0    0  501  503 -0.00000000000E+00 -0.00000000000E+00 -0.87987524967E+02  0.87987524967E+02  0.00000000000E+00 0.  1.
          6    2    1    2  501    0  0.22798079056E+02  0.53771120306E+02  0.52518197930E+02  0.19037013811E+03  0.17341148343E+03 0.  0.
         24    2    3    3    0    0  0.80786870432E+02  0.20031244989E+02  0.30909166332E+02  0.11972936123E+03  0.80324181712E+02 0.  0.
         -6    2    1    2    0  502 -0.22798079056E+02 -0.53771120306E+02  0.40301690902E+03  0.44114001878E+03  0.16961957852E+03 0.  0.
        -24    2    5    5    0    0  0.15741251448E+02  0.69581998099E+00  0.33121533518E+03  0.34301008661E+03  0.87772718405E+02 0.  0.
          5    1    3    3  501    0 -0.57988791376E+02  0.33739875318E+02  0.21609031598E+02  0.70640776881E+02  0.47000000000E+01 0. -1.
        -11    1    4    4    0    0 -0.20468826531E+01 -0.19097582203E+01 -0.19908056623E+02  0.20103920602E+02  0.00000000000E+00 0.  1.
         12    1    4    4    0    0  0.82833753085E+02  0.21941003209E+02  0.50817222955E+02  0.99625440631E+02  0.00000000000E+00 0. -1.
         -5    1    5    5    0  502 -0.38539330504E+02 -0.54466940287E+02  0.71801573844E+02  0.98129932163E+02  0.47000000000E+01 0.  1.
         13    1    6    6    0    0 -0.26656400381E+02  0.23737396776E+02  0.20093147698E+03  0.20407715729E+03  0.00000000000E+00 0. -1.
        -14    1    6    6    0    0  0.42397651829E+02 -0.23041576795E+02  0.13028385820E+03  0.13893292932E+03  0.00000000000E+00 0.  1.
</event>
<event>
12    1  0.1030140E-001  0.2080888E+03  0.7818608E-02  0.1143363E+00
         21   -1    0    0  503  502  0.00000000000E+00  0.00000000000E+00  0.13072327914E+04  0.13072327914E+04  0.00000000000E+00 0. -1.
         21   -1    0    0  501  503 -0.00000000000E+00 -0.00000000000E+00 -0.50662742396E+02  0.50662742396E+02  0.00000000000E+00 0.  1.
          6    2    1    2  501    0  0.10365242181E+03 -0.53729903445E+02  0.22499981037E+03  0.30554667842E+03  0.17059639784E+03 0.  0.
         24    2    3    3    0    0  0.11678581761E+02 -0.80134489181E+02  0.12084845877E+03  0.16403348666E+03  0.75793859458E+02 0.  0.
         -6    2    1    2    0  502 -0.10365242181E+03  0.53729903445E+02  0.10315702386E+04  0.10523488554E+04  0.17225048360E+03 0.  0.
        -24    2    5    5    0    0 -0.12192435257E+03  0.20398325759E+02  0.96049708464E+03  0.97161261356E+03  0.78706935980E+02 0.  0.
          5    1    3    3  501    0  0.91973840049E+02  0.26404585737E+02  0.10415135160E+03  0.14151319176E+03  0.47000000000E+01 0. -1.
        -11    1    4    4    0    0 -0.99004853124E+01 -0.28433485123E+02 -0.78494863949E+00  0.30118081446E+02  0.00000000000E+00 0.  1.
         12    1    4    4    0    0  0.21579067073E+02 -0.51701004059E+02  0.12163340741E+03  0.13391540522E+03  0.00000000000E+00 0. -1.
         -5    1    5    5    0  502  0.18271930763E+02  0.33331577686E+02  0.71073154005E+02  0.80736241832E+02  0.47000000000E+01 0.  1.
         11    1    6    6    0    0 -0.53899180446E+02  0.43745044849E+02  0.60071699208E+03  0.60471452370E+03  0.00000000000E+00 0. -1.
        -12    1    6    6    0    0 -0.68025172127E+02 -0.23346719090E+02  0.35978009256E+03  0.36689808985E+03  0.00000000000E+00 0.  1.
</event>
<event>
12    1  0.1030140E-001  0.1903141E+03  0.7818608E-02  0.1159696E+00
         21   -1    0    0  501  502  0.00000000000E+00  0.00000000000E+00  0.13962419777E+04  0.13962419777E+04  0.00000000000E+00 0.  1.
         21   -1    0    0  502  503 -0.00000000000E+00 -0.00000000000E+00 -0.25443095049E+02  0.25443095049E+02  0.00000000000E+00 0.  1.
         -6    2    1    2    0  503  0.64670998342E+02 -0.13595499497E+02  0.58472324722E+03  0.61289935095E+03  0.17139767481E+03 0.  0.
        -24    2    3    3    0    0 -0.16816141105E+02  0.25100412152E+02  0.23330916282E+03  0.25006126560E+03  0.84762360773E+02 0.  0.
          6    2    1    2  501    0 -0.64670998342E+02  0.13595499497E+02  0.78607563545E+03  0.80878572181E+03  0.17847202448E+03 0.  0.
         24    2    5    5    0    0 -0.35571313099E+02  0.52298808065E+02  0.70581246451E+03  0.71492942536E+03  0.94616935783E+02 0.  0.
          5    1    5    5  501    0 -0.29099685243E+02 -0.38703308568E+02  0.80263170935E+02  0.93856296453E+02  0.47000000000E+01 0. -1.
        -13    1    6    6    0    0 -0.29677559509E+02 -0.12758828969E+02  0.89253784011E+02  0.94919877872E+02  0.00000000000E+00 0.  1.
         14    1    6    6    0    0 -0.58937535902E+01  0.65057637034E+02  0.61655868050E+03  0.62000954748E+03  0.00000000000E+00 0. -1.
         -5    1    3    3    0  503  0.81487139447E+02 -0.38695911649E+02  0.35141408439E+03  0.36283808535E+03  0.47000000000E+01 0.  1.
         11    1    4    4    0    0 -0.42065273895E+02 -0.58358298468E+01  0.69440228974E+02  0.81397110378E+02  0.00000000000E+00 0. -1.
        -12    1    4    4    0    0  0.25249132790E+02  0.30936241999E+02  0.16386893385E+03  0.16866415522E+03  0.00000000000E+00 0.  1.
</event>
<event>
12    1  0.1030140E-001  0.1992611E+03  0.7818608E-02  0.1152100E+00
         21   -1    0    0  501  502  0.00000000000E+00  0.00000000000E+00  0.24789498739E+02  0.24789498739E+02  0.00000000000E+00 0. -1.
         21   -1    0    0  502  503 -0.00000000000E+00 -0.00000000000E+00 -0.15610448296E+04  0.15610448296E+04  0.00000000000E+00 0. -1.
         -6    2    1    2    0  503 -0.37721131801E+02 -0.74430235083E+02 -0.88014279625E+03  0.90241692576E+03  0.18094812084E+03 0.  0.
        -24    2    3    3    0    0 -0.41801318910E+02 -0.12064691439E+03 -0.67434527227E+03  0.69140190201E+03  0.83618273466E+02 0.  0.
          6    2    1    2  501    0  0.37721131801E+02  0.74430235083E+02 -0.65611253462E+03  0.68341740258E+03  0.17208412010E+03 0.  0.
         24    2    5    5    0    0  0.19868111221E+02 -0.24636484656E+02 -0.22986471124E+03  0.24541940917E+03  0.79944997975E+02 0.  0.
          5    1    5    5  501    0  0.17853020579E+02  0.99066719739E+02 -0.42624782338E+03  0.43799799342E+03  0.47000000000E+01 0. -1.
        -11    1    6    6    0    0 -0.45000920236E+01 -0.46734066262E+02 -0.17729153625E+03  0.18340286967E+03  0.00000000000E+00 0.  1.
         12    1    6    6    0    0  0.24368203245E+02  0.22097581605E+02 -0.52573174991E+02  0.62016539495E+02  0.00000000000E+00 0. -1.
         -5    1    3    3    0  503  0.40801871096E+01  0.46216679306E+02 -0.20579752398E+03  0.21101502376E+03  0.47000000000E+01 0.  1.
         13    1    4    4    0    0 -0.14794688115E+02 -0.75699355314E+02 -0.20318238541E+03  0.21733006449E+03  0.00000000000E+00 0. -1.
        -14    1    4    4    0    0 -0.27006630796E+02 -0.44947559074E+02 -0.47116288686E+03  0.47407183752E+03  0.00000000000E+00 0.  1.
</event>
<event>
12    1  0.1030140E-001  0.2197306E+03  0.7818608E-02  0.1134237E+00
         21   -1    0    0  503  502  0.00000000000E+00  0.00000000000E+00  0.18917097569E+03  0.18917097569E+03  0.00000000000E+00 0. -1.
         21   -1    0    0  501  503 -0.00000000000E+00 -0.00000000000E+00 -0.36000985262E+03  0.36000985262E+03  0.00000000000E+00 0.  1.
          6    2    1    2  501    0 -0.11928006636E+03  0.61013969111E+02 -0.23434097067E+03  0.32124324437E+03  0.17415824087E+03 0.  0.
         24    2    3    3    0    0 -0.78435994209E+02 -0.56432613320E+01 -0.54054941490E+02  0.12468137900E+03  0.80246233463E+02 0.  0.
         -6    2    1    2    0  502  0.11928006636E+03 -0.61013969111E+02  0.63502093736E+02  0.22793758393E+03  0.17312592990E+03 0.  0.
        -24    2    5    5    0    0  0.50125800825E+02  0.15173838249E+02  0.79313506419E+02  0.12373112922E+03  0.79220696555E+02 0.  0.
          5    1    3    3  501    0 -0.40844072151E+02  0.66657230443E+02 -0.18028602918E+03  0.19656186537E+03  0.47000000000E+01 0. -1.
        -13    1    4    4    0    0 -0.33158070982E+02  0.32068545994E+02 -0.46109400952E+02  0.65222129447E+02  0.00000000000E+00 0.  1.
         14    1    4    4    0    0 -0.45277923227E+02 -0.37711807326E+02 -0.79455405379E+01  0.59459249558E+02  0.00000000000E+00 0. -1.
         -5    1    5    5    0  502  0.69154265535E+02 -0.76187807360E+02 -0.15811412684E+02  0.10420645471E+03  0.47000000000E+01 0.  1.
         11    1    6    6    0    0  0.61183826735E+02 -0.31570828355E+01  0.26513558227E+02  0.66756247617E+02  0.00000000000E+00 0. -1.
        -12    1    6    6    0    0 -0.11058025911E+02  0.18330921085E+02  0.52799948193E+02  0.56974881606E+02  0.00000000000E+00 0.  1.
</event>
<event>
12    1  0.1030140E-001  0.1759975E+03  0.7818608E-02  0.1171929E+00
         21   -1    0    0  503  502  0.00000000000E+00  0.00000000000E+00  0.18485730170E+03  0.18485730170E+03  0.00000000000E+00 0.  1.
         21   -1    0    0  501  503 -0.00000000000E+00 -0.00000000000E+00 -0.29565512260E+03  0.29565512260E+03  0.00000000000E+00 0.  1.
          6    2    1    2  501    0 -0.19424395100E+02 -0.33937952743E+02 -0.21406785543E+03  0.27712840104E+03  0.17159840376E+03 0.  0.
         24    2    3    3    0    0 -0.75728413648E+02 -0.40303173473E+02 -0.15631027849E+03  0.19608096904E+03  0.81582503222E+02 0.  0.
         -6    2    1    2    0  502  0.19424395100E+02  0.33937952743E+02  0.10327003453E+03  0.20338402325E+03  0.17079598684E+03 0.  0.
        -24    2    5    5    0    0 -0.13048453315E+02  0.83039122859E+02  0.61564676160E+02  0.13108715120E+03  0.79547933980E+02 0.  0.
          5    1    3    3  501    0  0.56304018549E+02  0.63652207304E+01 -0.57757576949E+02  0.81047432005E+02  0.47000000000E+01 0. -1.
        -13    1    4    4    0    0 -0.82237319274E+02 -0.42638872608E+02 -0.16233745927E+03  0.18690773345E+03  0.00000000000E+00 0.  1.
         14    1    4    4    0    0  0.65089056258E+01  0.23356991342E+01  0.60271807890E+01  0.91732355881E+01  0.00000000000E+00 0. -1.
         -5    1    5    5    0  502  0.32472848415E+02 -0.49101170116E+02  0.41705358374E+02  0.72296872049E+02  0.47000000000E+01 0.  1.
         13    1    6    6    0    0 -0.38263490313E+02  0.18253098977E+02  0.75766741800E+01  0.43065952965E+02  0.00000000000E+00 0. -1.
        -14    1    6    6    0    0  0.25215036998E+02  0.64786023882E+02  0.53988001980E+02  0.88021198237E+02  0.00000000000E+00 0.  1.
</event>
<event>
12    1  0.1030140E-001  0.2039706E+03  0.7818608E-02  0.1147906E+00
         21   -1    0    0  503  502  0.00000000000E+00  0.00000000000E+00  0.10936745123E+03  0.10936745123E+03  0.00000000000E+00 0. -1.
         21   -1    0    0  501  503 -0.00000000000E+00 -0.00000000000E+00 -0.44007834985E+03  0.44007834985E+03  0.00000000000E+00 0.  1.
          6    2    1    2  501    0  0.91573706154E+02 -0.33981358092E+02 -0.56144680632E+02  0.21155669069E+03  0.17906292708E+03 0.  0.
         24    2    3    3    0    0 -0.11489428389E+02 -0.41226767294E+02  0.87191008110E+01  0.89475136799E+02  0.78090486488E+02 0.  0.
         -6    2    1    2    0  502 -0.91573706154E+02  0.33981358092E+02 -0.27456621799E+03  0.33788911039E+03  0.17100282600E+03 0.  0.
        -24    2    5    5    0    0 -0.93802486616E+02  0.57014628711E+02 -0.11985354036E+03  0.18138479212E+03  0.80535689554E+02 0.  0.
          5    1    3    3  501    0  0.10306313454E+03  0.72454092024E+01 -0.64863781443E+02  0.12208155389E+03  0.47000000000E+01 0. -1.
        -13    1    4    4    0    0 -0.34975497512E+02 -0.28797175009E+01 -0.15540633216E+02  0.38380847825E+02  0.00000000000E+00 0.  1.
         14    1    4    4    0    0  0.23486069122E+02 -0.38347049793E+02  0.24259734027E+02  0.51094288973E+02  0.00000000000E+00 0. -1.
         -5    1    5    5    0  502  0.22287804620E+01 -0.23033270620E+02 -0.15471267763E+03  0.15650431827E+03  0.47000000000E+01 0.  1.
         13    1    6    6    0    0 -0.69817227994E+02  0.77392465242E+02 -0.85678554435E+02  0.13492536341E+03  0.00000000000E+00 0. -1.
        -14    1    6    6    0    0 -0.23985258621E+02 -0.20377836531E+02 -0.34174985924E+02  0.46459428706E+02  0.00000000000E+00 0.  1.
</event>
<event>
12    1  0.1030140E-001  0.2333544E+03  0.7818608E-02  0.1124515E+00
         21   -1    0    0  501  502  0.00000000000E+00  0.00000000000E+00  0.10745757209E+04  0.10745757209E+04  0.00000000000E+00 0.  1.
         21   -1    0    0  502  503 -0.00000000000E+00 -0.00000000000E+00 -0.56269617731E+02  0.56269617731E+02  0.00000000000E+00 0.  1.
         -6    2    1    2    0  503 -0.10623697980E+03  0.11160053428E+03  0.32542447783E+03  0.39972343041E+03  0.17359940933E+03 0.  0.
        -24    2    3    3    0    0  0.37343530983E+00  0.78664723142E+02  0.21447597359E+03  0.24229976999E+03  0.80752443750E+02 0.  0.
          6    2    1    2  501    0  0.10623697980E+03 -0.11160053428E+03  0.69288162531E+03  0.73112190819E+03  0.17525216922E+03 0.  0.
         24    2    5    5    0    0  0.12933537666E+03 -0.79102945287E+02  0.39366102089E+03  0.42922012062E+03  0.79221190154E+02 0.  0.
          5    1    5    5  501    0 -0.23098396861E+02 -0.32497588992E+02  0.29922060442E+03  0.30190178757E+03  0.47000000000E+01 0. -1.
        -13    1    6    6    0    0  0.72473693853E+01 -0.20264908329E+02  0.13980984193E+03  0.14145664626E+03  0.00000000000E+00 0.  1.
         14    1    6    6    0    0  0.12208800728E+03 -0.58838036958E+02  0.25385117896E+03  0.28776347436E+03  0.00000000000E+00 0. -1.
         -5    1    3    3    0  503 -0.10661041511E+03  0.32935811137E+02  0.11094850424E+03  0.15742366041E+03  0.47000000000E+01 0.  1.
         11    1    4    4    0    0 -0.11429448685E+02  0.51584055081E+02  0.20435257811E+03  0.21107231750E+03  0.00000000000E+00 0. -1.
        -12    1    4    4    0    0  0.11802883995E+02  0.27080668061E+02  0.10123395481E+02  0.31227452494E+02  0.00000000000E+00 0.  1.
</event>
<event>
12    1  0.1030140E-001  0.2191090E+03  0.7818608E-02  0.1134608E+00
         21   -1    0    0  503  502  0.00000000000E+00  0.00000000000E+00  0.44703100383E+02  0.44703100383E+02  0.00000000000E+00 0.  1.
         21   -1    0    0  501  503 -0.00000000000E+00 -0.00000000000E+00 -0.10876105916E+04  0.10876105916E+04  0.00000000000E+00 0.  1.
          6    2    1    2  501    0  0.53957948472E+02  0.12469800609E+03 -0.45416230702E+03  0.50411813483E+03  0.17149530554E+03 0.  0.
         24    2    3    3    0    0  0.35696880468E+02  0.10268951821E+03 -0.16385046651E+03  0.21236328075E+03  0.80198399029E+02 0.  0.
         -6    2    1    2    0  502 -0.53957948472E+02 -0.12469800609E+03 -0.58874518423E+03  0.62819555719E+03  0.17189448272E+03 0.  0.
        -24    2    5    5    0    0  0.28753772198E+02 -0.25745233939E+02 -0.25523289225E+03  0.27058484880E+03  0.81134053438E+02 0.  0.
          5    1    3    3  501    0  0.18261068003E+02  0.22008487875E+02 -0.29031184051E+03  0.29175485408E+03  0.47000000000E+01 0. -1.
        -11    1    4    4    0    0  0.13964217324E+02  0.10533826306E+03 -0.15670231777E+03  0.18933242043E+03  0.00000000000E+00 0.  1.
         12    1    4    4    0    0  0.21732663144E+02 -0.26487448465E+01 -0.71481487411E+01  0.23030860319E+02  0.00000000000E+00 0. -1.
         -5    1    5    5    0  502 -0.82711720670E+02 -0.98952772148E+02 -0.33351229198E+03  0.35761070839E+03  0.47000000000E+01 0.  1.
         13    1    6    6    0    0  0.49834915244E+00 -0.36108021949E+02 -0.22516623497E+03  0.22804357252E+03  0.00000000000E+00 0. -1.
        -14    1    6    6    0    0  0.28255423046E+02  0.10362788010E+02 -0.30066657282E+02  0.42541276273E+02  0.00000000000E+00 0.  1.
</event>
<event>
12    1  0.1030140E-001  0.2732065E+03  0.7818608E-02  0.1099560E+00
         21   -1    0    0  501  502  0.00000000000E+00  0.00000000000E+00  0.11784729867E+03  0.11784729867E+03  0.00000000000E+00 0. -1.
         21   -1    0    0  502  503 -0.00000000000E+00 -0.00000000000E+00 -0.63202610900E+03  0.63202610900E+03  0.00000000000E+00 0. -1.
         -6    2    1    2    0  503 -0.21044584880E+03  0.19837872116E+02 -0.24908997240E+03  0.36971285845E+03  0.17309184530E+03 0.  0.
        -24    2    3    3    0    0 -0.17972065207E+03  0.16077639318E+02 -0.10610499770E+03  0.22334014906E+03  0.77875210293E+02 0.  0.
          6    2    1    2  501    0  0.21044584880E+03 -0.19837872116E+02 -0.26508883792E+03  0.38016054922E+03  0.17195625823E+03 0.  0.
         24    2    5    5    0    0  0.18982653246E+03  0.17941427053E+02 -0.14295662633E+03  0.25058123466E+03  0.77449021459E+02 0.  0.
          5    1    5    5  501    0  0.20619316346E+02 -0.37779299170E+02 -0.12213221159E+03  0.12957931456E+03  0.47000000000E+01 0. -1.
        -11    1    6    6    0    0  0.63684973078E+02  0.22075988658E+01 -0.64456042001E+01  0.64048380949E+02  0.00000000000E+00 0.  1.
         12    1    6    6    0    0  0.12614155938E+03  0.15733828188E+02 -0.13651102213E+03  0.18653285372E+03  0.00000000000E+00 0. -1.
         -5    1    3    3    0  503 -0.30725196727E+02  0.37602327983E+01 -0.14298497470E+03  0.14637270939E+03  0.47000000000E+01 0.  1.
         11    1    4    4    0    0 -0.16740598677E+03  0.20634037298E+02 -0.11781642688E+03  0.20574556701E+03  0.00000000000E+00 0. -1.
        -12    1    4    4    0    0 -0.12314665304E+02 -0.45563979798E+01  0.11711429181E+02  0.17594582051E+02  0.00000000000E+00 0.  1.
</event>
<event>
12    1  0.1030140E-001  0.2032927E+03  0.7818608E-02  0.1147062E+00
         21   -1    0    0  503  502  0.00000000000E+00  0.00000000000E+00  0.35465580543E+03  0.35465580543E+03  0.00000000000E+00 0. -1.
         21   -1    0    0  501  503 -0.00000000000E+00 -0.00000000000E+00 -0.34386352537E+03  0.34386352537E+03  0.00000000000E+00 0. -1.
          6    2    1    2  501    0 -0.67813849248E+02  0.81723444609E+02 -0.27870575306E+03  0.34497074974E+03  0.17335074802E+03 0.  0.
         24    2    3    3    0    0 -0.94553289378E+02  0.93839460383E+02 -0.15814092274E+03  0.22079440817E+03  0.77430293654E+02 0.  0.
         -6    2    1    2    0  502  0.67813849248E+02 -0.81723444609E+02  0.28949803312E+03  0.35354858106E+03  0.17294521804E+03 0.  0.
        -24    2    5    5    0    0  0.10139460164E+02  0.14789324711E+02  0.16003741422E+03  0.18201668419E+03  0.84832579800E+02 0.  0.
          5    1    3    3  501    0  0.26739440130E+02 -0.12116015774E+02 -0.12056483032E+03  0.12417634158E+03  0.47000000000E+01 0. -1.
        -13    1    4    4    0    0 -0.13212612530E+02 -0.40292853546E+00  0.62199244889E+01  0.14609002085E+02  0.00000000000E+00 0.  1.
         14    1    4    4    0    0 -0.81340676848E+02  0.94242388919E+02 -0.16436084723E+03  0.20618540608E+03  0.00000000000E+00 0. -1.
         -5    1    5    5    0  502  0.57674389084E+02 -0.96512769320E+02  0.12946061890E+03  0.17153189687E+03  0.47000000000E+01 0.  1.
         13    1    6    6    0    0 -0.29501134667E+02  0.35331680064E+01  0.19444025219E+02  0.35508736102E+02  0.00000000000E+00 0. -1.
        -14    1    6    6    0    0  0.39640594832E+02  0.11256156705E+02  0.14059338900E+03  0.14650794809E+03  0.00000000000E+00 0.  1.
</event>
<event>
12    1  0.1030140E-001  0.2178042E+03  0.7818608E-02  0.1135615E+00
         21   -1    0    0  501  502  0.00000000000E+00  0.00000000000E+00  0.49124663584E+02  0.49124663584E+02  0.00000000000E+00 0. -1.
         21   -1    0    0  502  503 -0.00000000000E+00 -0.00000000000E+00 -0.11439686854E+04  0.11439686854E+04  0.00000000000E+00 0. -1.
         -6    2    1    2    0  503  0.12828255017E+03 -0.32911538037E+02 -0.78375885170E+03  0.81333991081E+03  0.17234932811E+03 0.  0.
        -24    2    3    3    0    0  0.14507860094E+03  0.15273855303E+02 -0.60463609625E+03  0.62703105174E+03  0.79385388117E+02 0.  0.
          6    2    1    2  501    0 -0.12828255017E+03  0.32911538037E+02 -0.31108517015E+03  0.37975343820E+03  0.17291358744E+03 0.  0.
         24    2    5    5    0    0 -0.58890602593E+01  0.15168183299E+02 -0.18806481618E+03  0.20525102990E+03  0.80590665572E+02 0.  0.
          5    1    5    5  501    0 -0.12239348991E+03  0.17743354738E+02 -0.12302035398E+03  0.17450240830E+03  0.47000000000E+01 0. -1.
        -11    1    6    6    0    0 -0.35015709838E+02  0.17176905492E+02 -0.16024538146E+03  0.16492340130E+03  0.00000000000E+00 0.  1.
         12    1    6    6    0    0  0.29126649579E+02 -0.20087221932E+01 -0.27819434714E+02  0.40327628599E+02  0.00000000000E+00 0. -1.
         -5    1    3    3    0  503 -0.16796050769E+02 -0.48185393340E+02 -0.17912275544E+03  0.18630885907E+03  0.47000000000E+01 0.  1.
         11    1    4    4    0    0  0.18996586960E+02  0.76879681146E+01 -0.24505898856E+03  0.24591438153E+03  0.00000000000E+00 0. -1.
        -12    1    4    4    0    0  0.12608201398E+03  0.75858871882E+01 -0.35957710769E+03  0.38111667021E+03  0.00000000000E+00 0.  1.
</event>
<event>
12    1  0.1030140E-001  0.1774500E+03  0.7818608E-02  0.1171884E+00
         21   -1    0    0  503  502  0.00000000000E+00  0.00000000000E+00  0.50254185709E+02  0.50254185709E+02  0.00000000000E+00 0.  1.
         21   -1    0    0  501  503 -0.00000000000E+00 -0.00000000000E+00 -0.60630094735E+03  0.60630094735E+03  0.00000000000E+00 0.  1.
          6    2    1    2  501    0 -0.13871716418E+02 -0.28294433581E+02 -0.29115051999E+03  0.33771579193E+03  0.16819729886E+03 0.  0.
         24    2    3    3    0    0 -0.43727218737E+02  0.29098257491E+02 -0.11566941046E+03  0.15063029862E+03  0.80940077206E+02 0.  0.
         -6    2    1    2    0  502  0.13871716418E+02  0.28294433581E+02 -0.26489624165E+03  0.31883934112E+03  0.17462962842E+03 0.  0.
        -24    2    5    5    0    0 -0.55158944070E+02 -0.52435999894E+01 -0.17761439493E+03  0.20251977033E+03  0.79983621052E+02 0.  0.
          5    1    3    3  501    0  0.29855502319E+02 -0.57392691072E+02 -0.17548110953E+03  0.18708549331E+03  0.47000000000E+01 0. -1.
        -13    1    4    4    0    0 -0.15098732455E+01 -0.24874999009E+02 -0.15779367871E+02  0.29496334405E+02  0.00000000000E+00 0.  1.
         14    1    4    4    0    0 -0.42217345491E+02  0.53973256500E+02 -0.99890042594E+02  0.12113396422E+03  0.00000000000E+00 0. -1.
         -5    1    5    5    0  502  0.69030660488E+02  0.33538033570E+02 -0.87281846719E+02  0.11631957079E+03  0.47000000000E+01 0.  1.
         13    1    6    6    0    0 -0.47988417314E+02 -0.29055730520E+02 -0.59343085026E+02  0.81662264313E+02  0.00000000000E+00 0. -1.
        -14    1    6    6    0    0 -0.71705267553E+01  0.23812130530E+02 -0.11827130990E+03  0.12085750602E+03  0.00000000000E+00 0.  1.
</event>
<event>
12    1  0.1030140E-001  0.1875529E+03  0.7818608E-02  0.1160781E+00
         21   -1    0    0  503  502  0.00000000000E+00  0.00000000000E+00  0.33022727084E+03  0.33022727084E+03  0.00000000000E+00 0.  1.
         21   -1    0    0  501  503 -0.00000000000E+00 -0.00000000000E+00 -0.14587118943E+03  0.14587118943E+03  0.00000000000E+00 0.  1.
          6    2    1    2  501    0  0.46353297557E+02 -0.59072455570E+02 -0.31898124928E+02  0.18984340480E+03  0.17142008275E+03 0.  0.
         24    2    3    3    0    0  0.36443849316E+02  0.29196094582E+02  0.74407802954E+01  0.92585121989E+02  0.79599456722E+02 0.  0.
         -6    2    1    2    0  502 -0.46353297557E+02  0.59072455570E+02  0.21625420633E+03  0.28625505547E+03  0.17186591233E+03 0.  0.
        -24    2    5    5    0    0 -0.45847126386E+02 -0.23496654860E+02  0.15959146958E+03  0.18600202587E+03  0.80456601211E+02 0.  0.
          5    1    3    3  501    0  0.99094482407E+01 -0.88268550152E+02 -0.39338905223E+02  0.97258282807E+02  0.47000000000E+01 0. -1.
        -13    1    4    4    0    0  0.10427456147E+02 -0.18896580206E+02  0.26952896231E+02  0.34529280335E+02  0.00000000000E+00 0.  1.
         14    1    4    4    0    0  0.26016393169E+02  0.48092674789E+02 -0.19512115936E+02  0.58055841654E+02  0.00000000000E+00 0. -1.
         -5    1    5    5    0  502 -0.50617117081E+00  0.82569110430E+02  0.56662736753E+02  0.10025302959E+03  0.47000000000E+01 0.  1.
         13    1    6    6    0    0 -0.54769009117E+01  0.26024670335E+02  0.77762161423E+02  0.82184144814E+02  0.00000000000E+00 0. -1.
        -14    1    6    6    0    0 -0.40370225474E+02 -0.49521325195E+02  0.81829308159E+02  0.10381788106E+03  0.00000000000E+00 0.  1.
</event>
<event>
12    1  0.1030140E-001  0.1840513E+03  0.7818608E-02  0.1164329E+00
         21   -1    0    0  501  502  0.00000000000E+00  0.00000000000E+00  0.24172811969E+03  0.24172811969E+03  0.00000000000E+00 0.  1.
         21   -1    0    0  502  503 -0.00000000000E+00 -0.00000000000E+00 -0.22320358001E+03  0.22320358001E+03  0.00000000000E+00 0.  1.
         -6    2    1    2    0  503 -0.27815924812E+02  0.54086857294E+02 -0.13364512899E+03  0.22612115079E+03  0.17196115993E+03 0.  0.
        -24    2    3    3    0    0  0.41836642121E+02  0.27138440185E+02 -0.11748841863E+03  0.14956511539E+03  0.77970479487E+02 0.  0.
          6    2    1    2  501    0  0.27815924812E+02 -0.54086857294E+02  0.15216966867E+03  0.23881054891E+03  0.17371170486E+03 0.  0.
         24    2    5    5    0    0  0.75835442941E+01  0.32887811150E+02  0.10650245159E+03  0.13840374193E+03  0.81692749496E+02 0.  0.
          5    1    5    5  501    0  0.20232380518E+02 -0.86974668444E+02  0.45667217085E+02  0.10040680698E+03  0.47000000000E+01 0. -1.
        -13    1    6    6    0    0 -0.23855322261E+02 -0.12311752736E+02  0.62161884582E+02  0.67710822993E+02  0.00000000000E+00 0.  1.
         14    1    6    6    0    0  0.31438866555E+02  0.45199563886E+02  0.44340567004E+02  0.70692918938E+02  0.00000000000E+00 0. -1.
         -5    1    3    3    0  503 -0.69652566933E+02  0.26948417109E+02 -0.16156710365E+02  0.76556035391E+02  0.47000000000E+01 0.  1.
         11    1    4    4    0    0  0.66597685180E+01  0.26788648152E+02 -0.72083432499E+00  0.27613471145E+02  0.00000000000E+00 0. -1.
        -12    1    4    4    0    0  0.35176873603E+02  0.34979203244E+00 -0.11676758430E+03  0.12195164425E+03  0.00000000000E+00 0.  1.
</event>
<event>
12    1  0.1030140E-001  0.2241323E+03  0.7818608E-02  0.1130871E+00
         21   -1    0    0  503  502  0.00000000000E+00  0.00000000000E+00  0.50397231655E+03  0.50397231655E+03  0.00000000000E+00 0. -1.
         21   -1    0    0  501  503 -0.00000000000E+00 -0.00000000000E+00 -0.11649670688E+03  0.11649670688E+03  0.00000000000E+00 0. -1.
          6    2    1    2  501    0  0.44884683608E+02  0.13687541732E+03  0.75654953376E+02  0.23655648626E+03  0.17171425256E+03 0.  0.
         24    2    3    3    0    0  0.55386220592E+01  0.14590925798E+02 -0.10388679401E+02  0.81872271913E+02  0.79696755257E+02 0.  0.
         -6    2    1    2    0  502 -0.44884683608E+02 -0.13687541732E+03  0.31182065629E+03  0.38391253717E+03  0.17148527581E+03 0.  0.
        -24    2    5    5    0    0 -0.42354470167E+02 -0.38430297364E+02  0.70739341149E+02  0.12345115014E+03  0.83458631591E+02 0.  0.
          5    1    3    3  501    0  0.39346061549E+02  0.12228449152E+03  0.86043632778E+02  0.15468421435E+03  0.47000000000E+01 0. -1.
        -11    1    4    4    0    0  0.34088235504E+02  0.41870675822E+01 -0.30087442966E+02  0.45659539627E+02  0.00000000000E+00 0.  1.
         12    1    4    4    0    0 -0.28549613444E+02  0.10403858216E+02  0.19698763565E+02  0.36212732286E+02  0.00000000000E+00 0. -1.
         -5    1    5    5    0  502 -0.25302134414E+01 -0.98445119956E+02  0.24108131514E+03  0.26046138703E+03  0.47000000000E+01 0.  1.
         13    1    6    6    0    0 -0.34349865790E+02 -0.22497516072E+02 -0.87525705012E+01  0.41984032674E+02  0.00000000000E+00 0. -1.
        -14    1    6    6    0    0 -0.80046043771E+01 -0.15932781292E+02  0.79491911651E+02  0.81467117470E+02  0.00000000000E+00 0.  1.
</event>
<event>
12    1  0.1030140E-001  0.2015773E+03  0.7818608E-02  0.1148697E+00
         21   -1    0    0  501  502  0.00000000000E+00  0.00000000000E+00  0.13015039310E+02  0.13015039310E+02  0.00000000000E+00 0.  1.
         21   -1    0    0  502  503 -0.00000000000E+00 -0.00000000000E+00 -0.31182710705E+04  0.31182710705E+04  0.00000000000E+00 0.  1.
         -6    2    1    2    0  503 -0.21027949500E+02  0.10265432028E+03 -0.14421039453E+04  0.14561240347E+04  0.17220142688E+03 0.  0.
        -24    2    3    3    0    0 -0.51524804153E+02  0.30727362588E+02 -0.11260906620E+04  0.11305629336E+04  0.80581582629E+02 0.  0.
          6    2    1    2  501    0  0.21027949500E+02 -0.10265432028E+03 -0.16631520859E+04  0.16751620750E+04  0.17062541651E+03 0.  0.
         24    2    5    5    0    0 -0.30711299192E+02 -0.18801065311E+01 -0.85601188078E+03  0.86009778757E+03  0.77879043774E+02 0.  0.
          5    1    5    5  501    0  0.51739248692E+02 -0.10077421375E+03 -0.80714020511E+03  0.81506428747E+03  0.47000000000E+01 0. -1.
        -13    1    6    6    0    0  0.14426232008E+02 -0.18157371206E+02 -0.10388939958E+03  0.10644629464E+03  0.00000000000E+00 0.  1.
         14    1    6    6    0    0 -0.45137531200E+02  0.16277264675E+02 -0.75212248120E+03  0.75365149293E+03  0.00000000000E+00 0. -1.
         -5    1    3    3    0  503  0.30496854653E+02  0.71926957691E+02 -0.31601328329E+03  0.32556110118E+03  0.47000000000E+01 0.  1.
         11    1    4    4    0    0  0.51319145744E+00 -0.23138043983E+02 -0.17425937756E+03  0.17578954210E+03  0.00000000000E+00 0. -1.
        -12    1    4    4    0    0 -0.52037995610E+02  0.53865406571E+02 -0.95183128444E+03  0.95477339146E+03  0.00000000000E+00 0.  1.
</event>
<event>
12    1  0.1030140E-001  0.1959490E+03  0.7818608E-02  0.1153226E+00
         21   -1    0    0  501  502  0.00000000000E+00  0.00000000000E+00  0.21896060297E+03  0.21896060297E+03  0.00000000000E+00 0.  1.
         21   -1    0    0  502  503 -0.00000000000E+00 -0.00000000000E+00 -0.28486596568E+03  0.28486596568E+03  0.00000000000E+00 0. -1.
         -6    2    1    2    0  503 -0.72273435641E+02 -0.61551722245E+02 -0.18921897823E+03  0.27239646508E+03  0.17141746835E+03 0.  0.
        -24    2    3    3    0    0 -0.10920471127E+02 -0.96665658720E+00 -0.23316575803E+02  0.85365896547E+02  0.81384780343E+02 0.  0.
          6    2    1    2  501    0  0.72273435641E+02  0.61551722245E+02  0.12331361552E+03  0.23143010356E+03  0.17129384418E+03 0.  0.
         24    2    5    5    0    0  0.40349034260E+02  0.14733646731E+02  0.14504181970E+03  0.17055889152E+03  0.78791377091E+02 0.  0.
          5    1    5    5  501    0  0.31924401381E+02  0.46818075514E+02 -0.21728204182E+02  0.60871212041E+02  0.47000000000E+01 0. -1.
        -11    1    6    6    0    0  0.29385977150E+02  0.42912603308E+02  0.55551795186E+02  0.76098811582E+02  0.00000000000E+00 0.  1.
         12    1    6    6    0    0  0.10963057110E+02 -0.28178956577E+02  0.89490024513E+02  0.94460079940E+02  0.00000000000E+00 0. -1.
         -5    1    3    3    0  503 -0.61352964514E+02 -0.60585065658E+02 -0.16590240243E+03  0.18703056854E+03  0.47000000000E+01 0.  1.
         13    1    4    4    0    0  0.64063143609E+01 -0.28177338273E+02 -0.39765075732E+02  0.49155513463E+02  0.00000000000E+00 0. -1.
        -14    1    4    4    0    0 -0.17326785488E+02  0.27210681686E+02  0.16448499929E+02  0.36210383084E+02  0.00000000000E+00 0.  1.
</event>
<event>
12    1  0.1030140E-001  0.1972031E+03  0.7818608E-02  0.1152462E+00
         21   -1    0    0  501  502  0.00000000000E+00  0.00000000000E+00  0.44760266148E+03  0.44760266148E+03  0.00000000000E+00 0. -1.
         21   -1    0    0  502  503 -0.00000000000E+00 -0.00000000000E+00 -0.14408148040E+03  0.14408148040E+03  0.00000000000E+00 0. -1.
         -6    2    1    2    0  503 -0.95665033945E+02  0.29513892982E+01 -0.36136562433E+02  0.19892918099E+03  0.17060615020E+03 0.  0.
        -24    2    3    3    0    0 -0.94391852984E+02 -0.21652450773E+02  0.27989617376E+02  0.13007261360E+03  0.82199851542E+02 0.  0.
          6    2    1    2  501    0  0.95665033945E+02 -0.29513892982E+01  0.33965774351E+03  0.39275496088E+03  0.17241974119E+03 0.  0.
         24    2    5    5    0    0  0.86789870854E+02 -0.63243942842E+02  0.20386836829E+03  0.24384288966E+03  0.79779478942E+02 0.  0.
          5    1    5    5  501    0  0.88751630909E+01  0.60292553544E+02  0.13578937522E+03  0.14891207122E+03  0.47000000000E+01 0. -1.
        -11    1    6    6    0    0  0.65817323106E+02 -0.82120504445E+02  0.16739614145E+03  0.19773003172E+03  0.00000000000E+00 0.  1.
         12    1    6    6    0    0  0.20972547747E+02  0.18876561603E+02  0.36472226843E+02  0.46112857945E+02  0.00000000000E+00 0. -1.
         -5    1    3    3    0  503 -0.12731809604E+01  0.24603840071E+02 -0.64126179809E+02  0.68856567391E+02  0.47000000000E+01 0.  1.
         11    1    4    4    0    0 -0.96232832592E+02  0.82304233742E+01  0.26224594023E+02  0.10008110346E+03  0.00000000000E+00 0. -1.
        -12    1    4    4    0    0  0.18409796072E+01 -0.29882874147E+02  0.17650233535E+01  0.29991510143E+02  0.00000000000E+00 0.  1.
</event>
<event>
12    1  0.1030140E-001  0.2288036E+03  0.7818608E-02  0.1127649E+00
         21   -1    0    0  503  502  0.00000000000E+00  0.00000000000E+00  0.33585752707E+03  0.33585752707E+03  0.00000000000E+00 0. -1.
         21   -1    0    0  501  503 -0.00000000000E+00 -0.00000000000E+00 -0.35648445627E+03  0.35648445627E+03  0.00000000000E+00 0. -1.
          6    2    1    2  501    0  0.15024481172E+03 -0.19677962151E+01 -0.27041624403E+03  0.35422597864E+03  0.17255063962E+03 0.  0.
         24    2    3    3    0    0  0.16527773823E+03 -0.29998223198E+02 -0.17885664772E+03  0.25718504195E+03  0.77057259361E+02 0.  0.
         -6    2    1    2    0  502 -0.15024481172E+03  0.19677962151E+01  0.24978931483E+03  0.33811600471E+03  0.17131945355E+03 0.  0.
        -24    2    5    5    0    0 -0.16774834237E+03 -0.29315146372E+02  0.18811761307E+03  0.26662834926E+03  0.81875247237E+02 0.  0.
          5    1    3    3  501    0 -0.15032926509E+02  0.28030426983E+02 -0.91559596309E+02  0.97040936684E+02  0.47000000000E+01 0. -1.
        -11    1    4    4    0    0  0.60791635102E+02 -0.46186072766E+02 -0.97160111730E+02  0.12356724294E+03  0.00000000000E+00 0.  1.
         12    1    4    4    0    0  0.10448610313E+03  0.16187849568E+02 -0.81696535995E+02  0.13361779901E+03  0.00000000000E+00 0. -1.
         -5    1    5    5    0  502  0.17503530653E+02  0.31282942587E+02  0.61671701764E+02  0.71487655443E+02  0.47000000000E+01 0.  1.
         11    1    6    6    0    0 -0.91678645503E+02 -0.29566617444E+02  0.49008473214E+02  0.10807862580E+03  0.00000000000E+00 0. -1.
        -12    1    6    6    0    0 -0.76069696868E+02  0.25147107171E+00  0.13910913985E+03  0.15854972346E+03  0.00000000000E+00 0.  1.
</event>
<event>
12    1  0.1030140E-001  0.1995538E+03  0.7818608E-02  0.1150523E+00
         21   -1    0    0  501  502  0.00000000000E+00  0.00000000000E+00  0.10510571586E+03  0.10510571586E+03  0.00000000000E+00 0. -1.
         21   -1    0    0  502  503 -0.00000000000E+00 -0.00000000000E+00 -0.38718019162E+03  0.38718019162E+03  0.00000000000E+00 0. -1.
         -6    2    1    2    0  503  0.28868357982E+02  0.92845585565E+02 -0.18359366476E+03  0.26975456643E+03  0.17206745050E+03 0.  0.
        -24    2    3    3    0    0  0.44154151967E+02  0.74015125283E+02 -0.38420086794E+02  0.12249391496E+03  0.78107798762E+02 0.  0.
          6    2    1    2  501    0 -0.28868357982E+02 -0.92845585565E+02 -0.98480811006E+02  0.22253134104E+03  0.17426428997E+03 0.  0.
         24    2    5    5    0    0  0.18420059891E+02 -0.11120661978E+03 -0.10271296876E+03  0.17141066811E+03  0.78265268796E+02 0.  0.
          5    1    5    5  501    0 -0.47288417873E+02  0.18361034213E+02  0.42321577560E+01  0.51120672938E+02  0.47000000000E+01 0. -1.
        -13    1    6    6    0    0  0.37263490441E+02 -0.35891736412E+02 -0.14152982784E+02  0.53638525187E+02  0.00000000000E+00 0.  1.
         14    1    6    6    0    0 -0.18843430550E+02 -0.75314883366E+02 -0.88559985978E+02  0.11777214292E+03  0.00000000000E+00 0. -1.
         -5    1    3    3    0  503 -0.15285793985E+02  0.18830460281E+02 -0.14517357796E+03  0.14726065147E+03  0.47000000000E+01 0.  1.
         13    1    4    4    0    0  0.13998308090E+02 -0.13239883747E+01  0.18598108993E+02  0.23315128838E+02  0.00000000000E+00 0. -1.
        -14    1    4    4    0    0  0.30155843878E+02  0.75339113658E+02 -0.57018195787E+02  0.99178786127E+02  0.00000000000E+00 0.  1.
</event>
<event>
12    1  0.1030140E-001  0.2518909E+03  0.7818608E-02  0.1112173E+00
         21   -1    0    0  501  502  0.00000000000E+00  0.00000000000E+00  0.20314622153E+03  0.20314622153E+03  0.00000000000E+00 0. -1.
         21   -1    0    0  502  503 -0.00000000000E+00 -0.00000000000E+00 -0.40094689511E+03  0.40094689511E+03  0.00000000000E+00 0. -1.
         -6    2    1    2    0  503  0.13812605261E+03 -0.12145293471E+03 -0.24131594805E+03  0.34883008657E+03  0.17210293650E+03 0.  0.
        -24    2    3    3    0    0  0.96518997447E+02 -0.97416404946E+01 -0.85228693024E+02  0.15237174117E+03  0.80885109663E+02 0.  0.
          6    2    1    2  501    0 -0.13812605261E+03  0.12145293471E+03  0.43515274469E+02  0.25526303008E+03  0.17156926779E+03 0.  0.
         24    2    5    5    0    0 -0.27326004458E+02  0.48379532388E+02 -0.30647301988E+02  0.10314941943E+03  0.81321927763E+02 0.  0.
          5    1    5    5  501    0 -0.11080004816E+03  0.73073402320E+02  0.74162576457E+02  0.15211361065E+03  0.47000000000E+01 0. -1.
        -11    1    6    6    0    0 -0.47945114999E+02  0.23025569608E+01 -0.14169966782E+02  0.50048214548E+02  0.00000000000E+00 0.  1.
         12    1    6    6    0    0  0.20619110541E+02  0.46076975428E+02 -0.16477335207E+02  0.53101204879E+02  0.00000000000E+00 0. -1.
         -5    1    3    3    0  503  0.41607055167E+02 -0.11171129421E+03 -0.15608725503E+03  0.19645834540E+03  0.47000000000E+01 0.  1.
         11    1    4    4    0    0  0.83594925148E+02  0.61841914771E+01 -0.97414780965E+02  0.12851457227E+03  0.00000000000E+00 0. -1.
        -12    1    4    4    0    0  0.12924072299E+02 -0.15925831972E+02  0.12186087941E+02  0.23857168903E+02  0.00000000000E+00 0.  1.
</event>
<event>
12    1  0.1030140E-001  0.2016648E+03  0.7818608E-02  0.1148425E+00
         21   -1    0    0  501  502  0.00000000000E+00  0.00000000000E+00  0.34142730044E+02  0.34142730044E+02  0.00000000000E+00 0. -1.
         21   -1    0    0  502  503 -0.00000000000E+00 -0.00000000000E+00 -0.17103069193E+04  0.17103069193E+04  0.00000000000E+00 0. -1.
         -6    2    1    2    0  503 -0.80525924658E+02 -0.67775728956E+02 -0.13191480012E+04  0.13344139695E+04  0.17155529427E+03 0.  0.
        -24    2    3    3    0    0 -0.11792844019E+03 -0.28586955435E+02 -0.10607649001E+04  0.10703711225E+04  0.75814480929E+02 0.  0.
          6    2    1    2  501    0  0.80525924658E+02  0.67775728956E+02 -0.35701618800E+03  0.41003567977E+03  0.17201955184E+03 0.  0.
         24    2    5    5    0    0  0.36509999742E+02  0.46021407062E+02 -0.34526067581E+03  0.35933129896E+03  0.80393396231E+02 0.  0.
          5    1    5    5  501    0  0.44015924916E+02  0.21754321894E+02 -0.11755512189E+02  0.50704380818E+02  0.47000000000E+01 0. -1.
        -13    1    6    6    0    0  0.65393795963E+01  0.61878321667E+02 -0.17514635851E+03  0.18587075369E+03  0.00000000000E+00 0.  1.
         14    1    6    6    0    0  0.29970620146E+02 -0.15856914605E+02 -0.17011431730E+03  0.17346054527E+03  0.00000000000E+00 0. -1.
         -5    1    3    3    0  503  0.37402515536E+02 -0.39188773522E+02 -0.25838310106E+03  0.26404284700E+03  0.47000000000E+01 0.  1.
         13    1    4    4    0    0 -0.51074276664E+02 -0.41048826457E+02 -0.71401824671E+03  0.71701858032E+03  0.00000000000E+00 0. -1.
        -14    1    4    4    0    0 -0.66854163531E+02  0.12461871022E+02 -0.34674665344E+03  0.35335254220E+03  0.00000000000E+00 0.  1.
</event>
<event>
12    1  0.1030140E-001  0.1767875E+03  0.7818608E-02  0.1171249E+00
         21   -1    0    0  503  502  0.00000000000E+00  0.00000000000E+00  0.10630816935E+04  0.10630816935E+04  0.00000000000E+00 0.  1.
         21   -1    0    0  501  503 -0.00000000000E+00 -0.00000000000E+00 -0.31111803260E+02  0.31111803260E+02  0.00000000000E+00 0.  1.
          6    2    1    2  501    0  0.35738866293E+02  0.96867738878E+01  0.38199199656E+03  0.42091770243E+03  0.17286621019E+03 0.  0.
         24    2    3    3    0    0  0.26632764399E+02 -0.40225580163E+02  0.11312750081E+03  0.14726761334E+03  0.81009364036E+02 0.  0.
         -6    2    1    2    0  502 -0.35738866293E+02 -0.96867738878E+01  0.64997789369E+03  0.67327579434E+03  0.17163313437E+03 0.  0.
        -24    2    5    5    0    0 -0.25354212611E+02 -0.90722372003E+01  0.14920454034E+03  0.17237235044E+03  0.82006650671E+02 0.  0.
          5    1    3    3  501    0  0.91061018937E+01  0.49912354051E+02  0.26886449575E+03  0.27365008908E+03  0.47000000000E+01 0. -1.
        -11    1    4    4    0    0  0.30526150373E+02  0.75401613113E+01  0.87379079923E+02  0.92864436128E+02  0.00000000000E+00 0.  1.
         12    1    4    4    0    0 -0.38933859739E+01 -0.47765741475E+02  0.25748420885E+02  0.54403177215E+02  0.00000000000E+00 0. -1.
         -5    1    5    5    0  502 -0.10384653682E+02 -0.61453668751E+00  0.50077335335E+03  0.50090344390E+03  0.47000000000E+01 0.  1.
         11    1    6    6    0    0  0.14544823569E+02  0.47927415207E+00  0.12263151747E+03  0.12349198627E+03  0.00000000000E+00 0. -1.
        -12    1    6    6    0    0 -0.39899036180E+02 -0.95515113524E+01  0.26573022872E+02  0.48880364173E+02  0.00000000000E+00 0.  1.
</event>
<event>
12    1  0.1030140E-001  0.2328235E+03  0.7818608E-02  0.1126394E+00
         21   -1    0    0  501  502  0.00000000000E+00  0.00000000000E+00  0.28797648695E+03  0.28797648695E+03  0.00000000000E+00 0.  1.
         21   -1    0    0  502  503 -0.00000000000E+00 -0.00000000000E+00 -0.34918257331E+03  0.34918257331E+03  0.00000000000E+00 0.  1.
         -6    2    1    2    0  503  0.14727128600E+03  0.27217342310E+02 -0.25237904119E+03  0.34336853176E+03  0.17826147304E+03 0.  0.
        -24    2    3    3    0    0 -0.38082648818E+01  0.17938461209E+02 -0.10223022389E+03  0.13011308479E+03  0.78371582117E+02 0.  0.
          6    2    1    2  501    0 -0.14727128600E+03 -0.27217342310E+02  0.19117295483E+03  0.29379052850E+03  0.16533650710E+03 0.  0.
         24    2    5    5    0    0 -0.16551468903E+03  0.27487250794E+01  0.13793005365E+03  0.22985553437E+03  0.80038735650E+02 0.  0.
          5    1    5    5  501    0  0.18243403035E+02 -0.29966067389E+02  0.53242901182E+02  0.63934994137E+02  0.47000000000E+01 0. -1.
        -13    1    6    6    0    0 -0.87920522276E+02  0.32643509630E+01  0.12236944934E+03  0.15071481797E+03  0.00000000000E+00 0.  1.
         14    1    6    6    0    0 -0.77594166757E+02 -0.51562588362E+00  0.15560604304E+02  0.79140716392E+02  0.00000000000E+00 0. -1.
         -5    1    3    3    0  503  0.15107955088E+03  0.92788811005E+01 -0.15014881729E+03  0.21325544697E+03  0.47000000000E+01 0.  1.
         13    1    4    4    0    0 -0.36834260752E+02  0.21584137112E+02 -0.35326793188E+02  0.55413175843E+02  0.00000000000E+00 0. -1.
        -14    1    4    4    0    0  0.33025995871E+02 -0.36456759028E+01 -0.66903430707E+02  0.74699908945E+02  0.00000000000E+00 0.  1.
</event>
<event>
12    1  0.1030140E-001  0.1843885E+03  0.7818608E-02  0.1163677E+00
         21   -1    0    0  503  502  0.00000000000E+00  0.00000000000E+00  0.17861675358E+04  0.17861675358E+04  0.00000000000E+00 0.  1.
         21   -1    0    0  501  503 -0.00000000000E+00 -0.00000000000E+00 -0.24029432628E+02  0.24029432628E+02  0.00000000000E+00 0. -1.
          6    2    1    2  501    0 -0.11052293859E+02  0.66720814344E+02  0.46786470769E+03  0.50288815684E+03  0.17153802299E+03 0.  0.
         24    2    3    3    0    0  0.55407168240E+02  0.58554648227E+02  0.33862701191E+03  0.35725842643E+03  0.80415974394E+02 0.  0.
         -6    2    1    2    0  502  0.11052293859E+02 -0.66720814344E+02  0.12942733955E+04  0.13073088116E+04  0.17128597816E+03 0.  0.
        -24    2    5    5    0    0  0.13994536371E+02 -0.87866670284E+02  0.56333561725E+03  0.57604420170E+03  0.81015466767E+02 0.  0.
          5    1    3    3  501    0 -0.66459462099E+02  0.81661661174E+01  0.12923769578E+03  0.14562973042E+03  0.47000000000E+01 0. -1.
        -11    1    4    4    0    0  0.27954429382E+02  0.31166754388E+02  0.46506585828E+02  0.62575388345E+02  0.00000000000E+00 0.  1.
         12    1    4    4    0    0  0.27452738858E+02  0.27387893839E+02  0.29212042608E+03  0.29468303808E+03  0.00000000000E+00 0. -1.
         -5    1    5    5    0  502 -0.29422425120E+01  0.21145855939E+02  0.73093777824E+03  0.73126460988E+03  0.47000000000E+01 0.  1.
         11    1    6    6    0    0  0.22447301969E+02 -0.28079905528E+02  0.40489696340E+03  0.40648974578E+03  0.00000000000E+00 0. -1.
        -12    1    6    6    0    0 -0.84527655975E+01 -0.59786764756E+02  0.15843865386E+03  0.16955445592E+03  0.00000000000E+00 0.  1.
</event>
<event>
12    1  0.1030140E-001  0.2345191E+03  0.7818608E-02  0.1123719E+00
         21   -1    0    0  503  502  0.00000000000E+00  0.00000000000E+00  0.54346891310E+03  0.54346891310E+03  0.00000000000E+00 0.  1.
         21   -1    0    0  501  503 -0.00000000000E+00 -0.00000000000E+00 -0.10077038604E+03  0.10077038604E+03  0.00000000000E+00 0.  1.
          6    2    1    2  501    0 -0.71764345944E+02  0.14005091245E+03  0.20953895756E+03  0.31353917330E+03  0.17215068699E+03 0.  0.
         24    2    3    3    0    0  0.26676501282E+02  0.92088297127E+02  0.10310358190E+03  0.16075961949E+03  0.77597786496E+02 0.  0.
         -6    2    1    2    0  502  0.71764345944E+02 -0.14005091245E+03  0.23315956949E+03  0.33070012584E+03  0.17388159464E+03 0.  0.
        -24    2    5    5    0    0  0.75437841806E+02 -0.18028584373E+02  0.10005062953E+03  0.15002632303E+03  0.80510069570E+02 0.  0.
          5    1    3    3  501    0 -0.98440847226E+02  0.47962615327E+02  0.10643537566E+03  0.15277955382E+03  0.47000000000E+01 0. -1.
        -11    1    4    4    0    0  0.13511148701E+02  0.98023681799E+02  0.60985197754E+02  0.11623419324E+03  0.00000000000E+00 0.  1.
         12    1    4    4    0    0  0.13165352582E+02 -0.59353846719E+01  0.42118384143E+02  0.44525426249E+02  0.00000000000E+00 0. -1.
         -5    1    5    5    0  502 -0.36734958619E+01 -0.12202232808E+03  0.13310893996E+03  0.18067380281E+03  0.47000000000E+01 0.  1.
         11    1    6    6    0    0 -0.29451295666E+01 -0.13744112575E+02 -0.82269537073E+01  0.16286718084E+02  0.00000000000E+00 0. -1.
        -12    1    6    6    0    0  0.78382971373E+02 -0.42844717981E+01  0.10827758324E+03  0.13373960495E+03  0.00000000000E+00 0.  1.
</event>
<event>
12    1  0.1030140E-001  0.1731968E+03  0.7818608E-02  0.1174621E+00
         21   -1    0    0  503  502  0.00000000000E+00  0.00000000000E+00  0.62974480317E+03  0.62974480317E+03  0.00000000000E+00 0.  1.
         21   -1    0    0  501  503 -0.00000000000E+00 -0.00000000000E+00 -0.57981763816E+02  0.57981763816E+02  0.00000000000E+00 0.  1.
          6    2    1    2  501    0 -0.60748826915E+01  0.32061143927E+01  0.13993795229E+03  0.22246315129E+03  0.17280057818E+03 0.  0.
         24    2    3    3    0    0  0.59984651003E+02 -0.91079736825E+01  0.10653595135E+03  0.14727483821E+03  0.81601810630E+02 0.  0.
         -6    2    1    2    0  502  0.60748826915E+01 -0.32061143927E+01  0.43182508706E+03  0.46526341570E+03  0.17306055819E+03 0.  0.
        -24    2    5    5    0    0 -0.17955588925E+02 -0.54429990054E+02  0.35773307394E+03  0.37191961348E+03  0.84060809597E+02 0.  0.
          5    1    3    3  501    0 -0.66059533695E+02  0.12314088075E+02  0.33402000937E+02  0.75188313079E+02  0.47000000000E+01 0. -1.
        -11    1    4    4    0    0  0.28653525734E+02 -0.36154140381E+02  0.92853650050E+02  0.10368194988E+03  0.00000000000E+00 0.  1.
         12    1    4    4    0    0  0.31331125269E+02  0.27046166699E+02  0.13682301304E+02  0.43592888327E+02  0.00000000000E+00 0. -1.
         -5    1    5    5    0  502  0.24030471617E+02  0.51223875661E+02  0.74092013124E+02  0.93343802218E+02  0.47000000000E+01 0.  1.
         11    1    6    6    0    0 -0.12367504188E+02 -0.54050152069E+02  0.10176269997E+03  0.11588796833E+03  0.00000000000E+00 0. -1.
        -12    1    6    6    0    0 -0.55880847378E+01 -0.37983798416E+00  0.25597037397E+03  0.25603164515E+03  0.00000000000E+00 0.  1.
</event>
<event>
12    1  0.1030140E-001  0.1740862E+03  0.7818608E-02  0.1173656E+00
         21   -1    0    0  501  502  0.00000000000E+00  0.00000000000E+00  0.55917868522E+02  0.55917868522E+02  0.00000000000E+00 0. -1.
         21   -1    0    0  502  503 -0.00000000000E+00 -0.00000000000E+00 -0.14139532732E+04  0.14139532732E+04  0.00000000000E+00 0. -1.
         -6    2    1    2    0  503 -0.86283833511E+01 -0.22979878648E+02 -0.12561665938E+04  0.12681701864E+04  0.17233277880E+03 0.  0.
        -24    2    3    3    0    0  0.21500581781E+02  0.18834671003E+02 -0.11088438365E+04  0.11120218726E+04  0.78999820088E+02 0.  0.
          6    2    1    2  501    0  0.86283833511E+01  0.22979878648E+02 -0.10186881097E+03  0.20170095534E+03  0.17234702468E+03 0.  0.
         24    2    5    5    0    0 -0.22538252669E+02  0.54745442990E+02 -0.11929882282E+03  0.15367694476E+03  0.76676970886E+02 0.  0.
          5    1    5    5  501    0  0.31166636020E+02 -0.31765564342E+02  0.17430011852E+02  0.48024010578E+02  0.47000000000E+01 0. -1.
        -13    1    6    6    0    0 -0.31028671116E+02  0.20306081233E+02 -0.94846315095E+01  0.38276279876E+02  0.00000000000E+00 0.  1.
         14    1    6    6    0    0  0.84904184464E+01  0.34439361757E+02 -0.10981419131E+03  0.11540066489E+03  0.00000000000E+00 0. -1.
         -5    1    3    3    0  503 -0.30128965132E+02 -0.41814549651E+02 -0.14732275731E+03  0.15614831386E+03  0.47000000000E+01 0.  1.
         11    1    4    4    0    0  0.15095623081E+02 -0.23542271268E+02 -0.76589485859E+03  0.76640527842E+03  0.00000000000E+00 0. -1.
        -12    1    4    4    0    0  0.64049586995E+01  0.42376942271E+02 -0.34294897786E+03  0.34561659415E+03  0.00000000000E+00 0.  1.
</event>
<event>
12    1  0.1030140E-001  0.2408893E+03  0.7818608E-02  0.1119936E+00
         21   -1    0    0  503  502  0.00000000000E+00  0.00000000000E+00  0.13256056877E+03  0.13256056877E+03  0.00000000000E+00 0.  1.
         21   -1    0    0  501  503 -0.00000000000E+00 -0.00000000000E+00 -0.49505107066E+03  0.49505107066E+03  0.00000000000E+00 0.  1.
          6    2    1    2  501    0 -0.53377494901E+02 -0.16016546207E+03 -0.68778916464E+02  0.25051583528E+03  0.17182989313E+03 0.  0.
         24    2    3    3    0    0 -0.83852102742E+02 -0.16582311960E+03 -0.60236294998E+02  0.21802311004E+03  0.96835856724E+02 0.  0.
         -6    2    1    2    0  502  0.53377494901E+02  0.16016546207E+03 -0.29371158543E+03  0.37709580416E+03  0.16562795023E+03 0.  0.
        -24    2    5    5    0    0  0.70027369106E+02  0.40045870293E+02 -0.12620698984E+03  0.17024848322E+03  0.80924888636E+02 0.  0.
          5    1    3    3  501    0  0.30474607840E+02  0.56576575331E+01 -0.85426214665E+01  0.32492725237E+02  0.47000000000E+01 0. -1.
        -11    1    4    4    0    0 -0.13113825126E+02 -0.87962353896E+02  0.12950898108E+02  0.89872542381E+02  0.00000000000E+00 0.  1.
         12    1    4    4    0    0 -0.70738277615E+02 -0.77860765706E+02 -0.73187193106E+02  0.12815056766E+03  0.00000000000E+00 0. -1.
         -5    1    5    5    0  502 -0.16649874205E+02  0.12011959178E+03 -0.16750459558E+03  0.20684732094E+03  0.47000000000E+01 0.  1.
         11    1    6    6    0    0 -0.12271105766E+02  0.22564483738E+02 -0.11878429581E+02  0.28298993841E+02  0.00000000000E+00 0. -1.
        -12    1    6    6    0    0  0.82298474872E+02  0.17481386554E+02 -0.11432856026E+03  0.14194948938E+03  0.00000000000E+00 0.  1.
</event>
<event>
12    1  0.1030140E-001  0.2410983E+03  0.7818608E-02  0.1119563E+00
         21   -1    0    0  503  502  0.00000000000E+00  0.00000000000E+00  0.23588969736E+03  0.23588969736E+03  0.00000000000E+00 0. -1.
         21   -1    0    0  501  503 -0.00000000000E+00 -0.00000000000E+00 -0.42397513849E+03  0.42397513849E+03  0.00000000000E+00 0.  1.
          6    2    1    2  501    0 -0.16565210438E+03  0.36175593954E+02 -0.30904301861E+03  0.39012584623E+03  0.16715649932E+03 0.  0.
         24    2    3    3    0    0 -0.10404791450E+03  0.83009410356E+02 -0.17349755728E+03  0.23397481467E+03  0.83224280115E+02 0.  0.
         -6    2    1    2    0  502  0.16565210438E+03 -0.36175593954E+02  0.12095757749E+03  0.26973898962E+03  0.17140330711E+03 0.  0.
        -24    2    5    5    0    0  0.17812424182E+03 -0.26026196929E+02  0.14247296363E+03  0.24247057724E+03  0.78024528262E+02 0.  0.
          5    1    3    3  501    0 -0.61604189871E+02 -0.46833816403E+02 -0.13554546134E+03  0.15615103156E+03  0.47000000000E+01 0. -1.
        -11    1    4    4    0    0  0.55999477771E+01  0.73749659641E+01 -0.54743100153E+02  0.55520775863E+02  0.00000000000E+00 0.  1.
         12    1    4    4    0    0 -0.10964786228E+03  0.75634444392E+02 -0.11875445712E+03  0.17845403881E+03  0.00000000000E+00 0. -1.
         -5    1    5    5    0  502 -0.12472137449E+02 -0.10149397024E+02 -0.21515386145E+02  0.27268412375E+02  0.47000000000E+01 0.  1.
         11    1    6    6    0    0  0.69911261838E+02 -0.30182451654E+02  0.10104209480E+03  0.12652300123E+03  0.00000000000E+00 0. -1.
        -12    1    6    6    0    0  0.10821297999E+03  0.41562547248E+01  0.41430868837E+02  0.11594757601E+03  0.00000000000E+00 0.  1.
</event>
<event>
12    1  0.1030140E-001  0.1767163E+03  0.7818608E-02  0.1171112E+00
         21   -1    0    0  501  502  0.00000000000E+00  0.00000000000E+00  0.31795418013E+02  0.31795418013E+02  0.00000000000E+00 0. -1.
         21   -1    0    0  502  503 -0.00000000000E+00 -0.00000000000E+00 -0.14726802282E+04  0.14726802282E+04  0.00000000000E+00 0. -1.
         -6    2    1    2    0  503  0.46579039171E+01 -0.41601002359E+02 -0.11549842649E+04  0.11683688399E+04  0.17130310673E+03 0.  0.
        -24    2    3    3    0    0  0.11237196036E+02 -0.54952373682E+02 -0.32088552687E+03  0.33412406706E+03  0.74332582931E+02 0.  0.
          6    2    1    2  501    0 -0.46579039171E+01  0.41601002359E+02 -0.28590054531E+03  0.33610680635E+03  0.17168670304E+03 0.  0.
         24    2    5    5    0    0  0.50596146860E+02 -0.74442591956E+01 -0.21459846466E+03  0.23332293353E+03  0.75971726337E+02 0.  0.
          5    1    5    5  501    0 -0.55254050778E+02  0.49045261554E+02 -0.71302080651E+02  0.10278387283E+03  0.47000000000E+01 0. -1.
        -13    1    6    6    0    0  0.39825473553E+02  0.27300516570E+02 -0.16430838834E+03  0.17125604523E+03  0.00000000000E+00 0.  1.
         14    1    6    6    0    0  0.10770673307E+02 -0.34744775766E+02 -0.50290076319E+02  0.62066888295E+02  0.00000000000E+00 0. -1.
         -5    1    3    3    0  503 -0.65792921189E+01  0.13351371323E+02 -0.83409873802E+03  0.83424477281E+03  0.47000000000E+01 0.  1.
         11    1    4    4    0    0 -0.31229595120E+02 -0.14868760704E+02 -0.12818830669E+03  0.13277277442E+03  0.00000000000E+00 0. -1.
        -12    1    4    4    0    0  0.42466791156E+02 -0.40083612978E+02 -0.19269722019E+03  0.20135129264E+03  0.00000000000E+00 0.  1.
</event>
<event>
12    1  0.1030140E-001  0.2688144E+03  0.7818608E-02  0.1102116E+00
         21   -1    0    0  503  502  0.00000000000E+00  0.00000000000E+00  0.46944803420E+02  0.46944803420E+02  0.00000000000E+00 0. -1.
         21   -1    0    0  501  503 -0.00000000000E+00 -0.00000000000E+00 -0.15400814767E+04  0.15400814767E+04  0.00000000000E+00 0.  1.
          6    2    1    2  501    0 -0.16477632260E+03 -0.12474937822E+03 -0.79856061476E+03  0.84224638609E+03  0.17019481655E+03 0.  0.
         24    2    3    3    0    0 -0.62740081502E+02 -0.12956816603E+03 -0.46261857387E+03  0.49108579597E+03  0.80156638165E+02 0.  0.
         -6    2    1    2    0  502  0.16477632260E+03  0.12474937822E+03 -0.69457605856E+03  0.74477989407E+03  0.17189399534E+03 0.  0.
        -24    2    5    5    0    0  0.63580335762E+02 -0.79919739197E+01 -0.28869637919E+03  0.30589346406E+03  0.78223278229E+02 0.  0.
          5    1    3    3  501    0 -0.10203624110E+03  0.48187878113E+01 -0.33594204089E+03  0.35116059012E+03  0.47000000000E+01 0. -1.
        -13    1    4    4    0    0 -0.77048444063E+02 -0.12317800129E+03 -0.44147537709E+03  0.46476853520E+03  0.00000000000E+00 0.  1.
         14    1    4    4    0    0  0.14308362561E+02 -0.63901647362E+01 -0.21143196780E+02  0.26317260773E+02  0.00000000000E+00 0. -1.
         -5    1    5    5    0  502  0.10119598684E+03  0.13274135213E+03 -0.40587967937E+03  0.43888643001E+03  0.47000000000E+01 0.  1.
         13    1    6    6    0    0  0.18959208059E+02  0.77913226770E+01 -0.92865410224E+01  0.22503246954E+02  0.00000000000E+00 0. -1.
        -14    1    6    6    0    0  0.44621127702E+02 -0.15783296597E+02 -0.27940983817E+03  0.28339021711E+03  0.00000000000E+00 0.  1.
</event>
<event>
12    1  0.1030140E-001  0.2066277E+03  0.7818608E-02  0.1145227E+00
         21   -1    0    0  501  502  0.00000000000E+00  0.00000000000E+00  0.14509180862E+03  0.14509180862E+03  0.00000000000E+00 0.  1.
         21   -1    0    0  502  503 -0.00000000000E+00 -0.00000000000E+00 -0.28768841635E+03  0.28768841635E+03  0.00000000000E+00 0.  1.
         -6    2    1    2    0  503 -0.64246882924E+02 -0.83993447650E+02 -0.75764370684E+02  0.22008006477E+03  0.17751741838E+03 0.  0.
        -24    2    3    3    0    0 -0.51919720601E+02 -0.95025074345E+02 -0.11143109835E+03  0.18048383791E+03  0.91826488151E+02 0.  0.
          6    2    1    2  501    0  0.64246882924E+02  0.83993447650E+02 -0.66832237041E+02  0.21270016021E+03  0.17202397807E+03 0.  0.
         24    2    5    5    0    0  0.25964343471E+02  0.59988959570E+02  0.28104498815E+02  0.10745358264E+03  0.80520725068E+02 0.  0.
          5    1    5    5  501    0  0.38282539453E+02  0.24004488080E+02 -0.94936735857E+02  0.10524657757E+03  0.47000000000E+01 0. -1.
        -11    1    6    6    0    0 -0.25773520697E+02  0.11170620494E+02 -0.57527670022E+01  0.28673183631E+02  0.00000000000E+00 0.  1.
         12    1    6    6    0    0  0.51737864168E+02  0.48818339075E+02  0.33857265818E+02  0.78780399005E+02  0.00000000000E+00 0. -1.
         -5    1    3    3    0  503 -0.12327162323E+02  0.11031626695E+02  0.35666727668E+02  0.39596226853E+02  0.47000000000E+01 0.  1.
         11    1    4    4    0    0 -0.52471271397E+02 -0.62827722523E+02 -0.21025126369E+02  0.84513980963E+02  0.00000000000E+00 0. -1.
        -12    1    4    4    0    0  0.55155079608E+00 -0.32197351822E+02 -0.90405971984E+02  0.95969856950E+02  0.00000000000E+00 0.  1.
</event>
<event>
12    1  0.1030140E-001  0.1847037E+03  0.7818608E-02  0.1163372E+00
         21   -1    0    0  503  502  0.00000000000E+00  0.00000000000E+00  0.40335290721E+03  0.40335290721E+03  0.00000000000E+00 0.  1.
         21   -1    0    0  501  503 -0.00000000000E+00 -0.00000000000E+00 -0.13459300703E+03  0.13459300703E+03  0.00000000000E+00 0.  1.
          6    2    1    2  501    0 -0.57642527050E+02  0.33417429470E+02 -0.29770024333E+02  0.18689668996E+03  0.17206025936E+03 0.  0.
         24    2    3    3    0    0 -0.32119058263E+02 -0.38389051994E+02 -0.52488772341E+02  0.10723584795E+03  0.78987990520E+02 0.  0.
         -6    2    1    2    0  502  0.57642527050E+02 -0.33417429470E+02  0.29852992451E+03  0.35104922428E+03  0.17226739830E+03 0.  0.
        -24    2    5    5    0    0  0.75374294744E+02  0.46365018254E+01  0.10425886435E+03  0.15223812778E+03  0.81263493017E+02 0.  0.
          5    1    3    3  501    0 -0.25523468787E+02  0.71806481464E+02  0.22718748008E+02  0.79660842013E+02  0.47000000000E+01 0. -1.
        -13    1    4    4    0    0  0.24482048260E+02 -0.21796737550E+02 -0.28937940271E+02  0.43724968175E+02  0.00000000000E+00 0.  1.
         14    1    4    4    0    0 -0.56601106523E+02 -0.16592314443E+02 -0.23550832071E+02  0.63510879772E+02  0.00000000000E+00 0. -1.
         -5    1    5    5    0  502 -0.17731767694E+02 -0.38053931296E+02  0.19427106016E+03  0.19881109650E+03  0.47000000000E+01 0.  1.
         13    1    6    6    0    0 -0.16557854786E+02  0.26441184114E+01  0.63788512603E+01  0.17940001691E+02  0.00000000000E+00 0. -1.
        -14    1    6    6    0    0  0.91932149530E+02  0.19923834140E+01  0.97880013088E+02  0.13429812609E+03  0.00000000000E+00 0.  1.
</event>
<event>
12    1  0.1030140E-001  0.2249615E+03  0.7818608E-02  0.1130461E+00
         21   -1    0    0  503  502  0.00000000000E+00  0.00000000000E+00  0.30370438947E+02  0.30370438947E+02  0.00000000000E+00 0. -1.
         21   -1    0    0  501  503 -0.00000000000E+00 -0.00000000000E+00 -0.16838575101E+04  0.16838575101E+04  0.00000000000E+00 0. -1.
          6    2    1    2  501    0  0.48865017542E+02  0.13590608448E+03 -0.93229130206E+03  0.95876053337E+03  0.17086964246E+03 0.  0.
         24    2    3    3    0    0  0.67783170235E+02  0.51474853238E+02 -0.31893857911E+03  0.33931708796E+03  0.78549667435E+02 0.  0.
         -6    2    1    2    0  502 -0.48865017542E+02 -0.13590608448E+03 -0.72119576910E+03  0.75546741568E+03  0.17248021642E+03 0.  0.
        -24    2    5    5    0    0 -0.86542782886E+02 -0.14096517742E+03 -0.63085654714E+03  0.65734263061E+03  0.82210196607E+02 0.  0.
          5    1    3    3  501    0 -0.18918152693E+02  0.84431231243E+02 -0.61335272296E+03  0.61944344542E+03  0.47000000000E+01 0. -1.
        -13    1    4    4    0    0 -0.14673423016E+02  0.24804991287E+02 -0.68846847183E+02  0.74635683844E+02  0.00000000000E+00 0.  1.
         14    1    4    4    0    0  0.82456593251E+02  0.26669861951E+02 -0.25009173192E+03  0.26468140411E+03  0.00000000000E+00 0. -1.
         -5    1    5    5    0  502  0.37677765345E+02  0.50590929350E+01 -0.90339221953E+02  0.98124785073E+02  0.47000000000E+01 0.  1.
         13    1    6    6    0    0 -0.18419031276E+02 -0.10669696735E+03 -0.35568644426E+03  0.37180149298E+03  0.00000000000E+00 0. -1.
        -14    1    6    6    0    0 -0.68123751611E+02 -0.34268210070E+02 -0.27517010289E+03  0.28554113763E+03  0.00000000000E+00 0.  1.
</event>
<event>
12    1  0.1030140E-001  0.2308029E+03  0.7818608E-02  0.1126143E+00
         21   -1    0    0  501  502  0.00000000000E+00  0.00000000000E+00  0.91798787147E+02  0.91798787147E+02  0.00000000000E+00 0.  1.
         21   -1    0    0  502  503 -0.00000000000E+00 -0.00000000000E+00 -0.59606919110E+03  0.59606919110E+03  0.00000000000E+00 0.  1.
         -6    2    1    2    0  503 -0.14109237240E+03  0.60442614687E+02 -0.30996704161E+03  0.38645771150E+03  0.17236481275E+03 0.  0.
        -24    2    3    3    0    0 -0.80934189234E+01 -0.60822059258E+01 -0.85998115115E+02  0.11757401281E+03  0.79532861303E+02 0.  0.
          6    2    1    2  501    0  0.14109237240E+03 -0.60442614687E+02 -0.19430336235E+03  0.30141026675E+03  0.17185454624E+03 0.  0.
         24    2    5    5    0    0  0.16999192606E+03 -0.43967292407E+02 -0.18421349692E+03  0.26633155768E+03  0.78533486117E+02 0.  0.
          5    1    5    5  501    0 -0.28899553659E+02 -0.16475322280E+02 -0.10089865432E+02  0.35078709075E+02  0.47000000000E+01 0. -1.
        -11    1    6    6    0    0  0.11171163972E+03 -0.33350020606E+01 -0.70155878612E+02  0.13195628061E+03  0.00000000000E+00 0.  1.
         12    1    6    6    0    0  0.58280286339E+02 -0.40632290346E+02 -0.11405761831E+03  0.13437527707E+03  0.00000000000E+00 0. -1.
         -5    1    3    3    0  503 -0.13299895348E+03  0.66524820613E+02 -0.22396892649E+03  0.26888369868E+03  0.47000000000E+01 0.  1.
         13    1    4    4    0    0 -0.12402094902E+02 -0.32720408448E+02 -0.83425976005E+02  0.90467289997E+02  0.00000000000E+00 0. -1.
        -14    1    4    4    0    0  0.43086759784E+01  0.26638202522E+02 -0.25721391094E+01  0.27106722817E+02  0.00000000000E+00 0.  1.
</event>
<event>
12    1  0.1030140E-001  0.2498315E+03  0.7818608E-02  0.1113564E+00
         21   -1    0    0  503  502  0.00000000000E+00  0.00000000000E+00  0.21408457823E+03  0.21408457823E+03  0.00000000000E+00 0.  1.
         21   -1    0    0  501  503 -0.00000000000E+00 -0.00000000000E+00 -0.29220895921E+03  0.29220895921E+03  0.00000000000E+00 0. -1.
          6    2    1    2  501    0 -0.14547332404E+03  0.10656505261E+03 -0.58773875592E+02  0.25571372625E+03  0.17151251527E+03 0.  0.
         24    2    3    3    0    0 -0.39593562240E+02 -0.18779011495E+01  0.39630076896E+01  0.91614961163E+02  0.82501024208E+02 0.  0.
         -6    2    1    2    0  502  0.14547332404E+03 -0.10656505261E+03 -0.19350505385E+02  0.25057981119E+03  0.17290807174E+03 0.  0.
        -24    2    5    5    0    0  0.12910616762E+03 -0.10159589177E+03 -0.68585952693E+02  0.19824630720E+03  0.87220626394E+02 0.  0.
          5    1    3    3  501    0 -0.10587976180E+03  0.10844295376E+03 -0.62736883282E+02  0.16409876509E+03  0.47000000000E+01 0. -1.
        -13    1    4    4    0    0 -0.29436026614E+02  0.23215417012E+02  0.34400515034E+02  0.50880553107E+02  0.00000000000E+00 0.  1.
         14    1    4    4    0    0 -0.10157535625E+02 -0.25093318161E+02 -0.30437507345E+02  0.40734408056E+02  0.00000000000E+00 0. -1.
         -5    1    5    5    0  502  0.16367156420E+02 -0.49691608353E+01  0.49235447307E+02  0.52333503994E+02  0.47000000000E+01 0.  1.
         11    1    6    6    0    0  0.71814468883E+02 -0.10652664056E+03 -0.45785963286E+02  0.13638767365E+03  0.00000000000E+00 0. -1.
        -12    1    6    6    0    0  0.57291698735E+02  0.49307487843E+01 -0.22799989407E+02  0.61858633548E+02  0.00000000000E+00 0.  1.
</event>
<event>
12    1  0.1030140E-001  0.1800677E+03  0.7818608E-02  0.1168875E+00
         21   -1    0    0  503  502  0.00000000000E+00  0.00000000000E+00  0.31781753655E+03  0.31781753655E+03  0.00000000000E+00 0. -1.
         21   -1    0    0  501  503 -0.00000000000E+00 -0.00000000000E+00 -0.11199453646E+03  0.11199453646E+03  0.00000000000E+00 0. -1.
          6    2    1    2  501    0 -0.13165167641E+02  0.49241730275E+02  0.29689473297E+02  0.17792441407E+03  0.16786173673E+03 0.  0.
         24    2    3    3    0    0 -0.36449595491E+02  0.67224086886E+02 -0.25697641542E+02  0.11503282306E+03  0.82003236096E+02 0.  0.
         -6    2    1    2    0  502  0.13165167641E+02 -0.49241730275E+02  0.17613352680E+03  0.25188765894E+03  0.17270293520E+03 0.  0.
        -24    2    5    5    0    0  0.27618672414E+02  0.36508123761E+02  0.99136581775E+02  0.13564411801E+03  0.80471303812E+02 0.  0.
          5    1    3    3  501    0  0.23284427850E+02 -0.17982356612E+02  0.55387114839E+02  0.62891591010E+02  0.47000000000E+01 0. -1.
        -13    1    4    4    0    0  0.26335333090E+02  0.15126979643E+02 -0.41687532875E+01  0.30655403864E+02  0.00000000000E+00 0.  1.
         14    1    4    4    0    0 -0.62784928581E+02  0.52097107243E+02 -0.21528888255E+02  0.84377419192E+02  0.00000000000E+00 0. -1.
         -5    1    5    5    0  502 -0.14453504773E+02 -0.85749854035E+02  0.76996945021E+02  0.11624354094E+03  0.47000000000E+01 0.  1.
         13    1    6    6    0    0  0.26556237090E+02 -0.19716165304E+02  0.54909465405E+02  0.64101562334E+02  0.00000000000E+00 0. -1.
        -14    1    6    6    0    0  0.10624353240E+01  0.56224289064E+02  0.44227116370E+02  0.71542555672E+02  0.00000000000E+00 0.  1.
</event>
<event>
12    1  0.1030140E-001  0.1737592E+03  0.7818608E-02  0.1176623E+00
         21   -1    0    0  503  502  0.00000000000E+00  0.00000000000E+00  0.58344723399E+03  0.58344723399E+03  0.00000000000E+00 0. -1.
         21   -1    0    0  501  503 -0.00000000000E+00 -0.00000000000E+00 -0.82998527510E+02  0.82998527510E+02  0.00000000000E+00 0. -1.
          6    2    1    2  501    0  0.25424557547E+02  0.11943893542E+01  0.31944046938E+02  0.16675699839E+03  0.16167757941E+03 0.  0.
         24    2    3    3    0    0  0.43747850679E+02  0.45293038699E+02  0.53382847168E+02  0.11420087505E+03  0.78909934075E+02 0.  0.
         -6    2    1    2    0  502 -0.25424557547E+02 -0.11943893542E+01  0.46850465954E+03  0.49968876312E+03  0.17188487216E+03 0.  0.
        -24    2    5    5    0    0  0.30839412137E+02  0.26263516465E+02  0.37693150792E+03  0.38866037497E+03  0.85666117974E+02 0.  0.
          5    1    3    3  501    0 -0.18323293132E+02 -0.44098649345E+02 -0.21438800230E+02  0.52556123340E+02  0.47000000000E+01 0. -1.
        -11    1    4    4    0    0  0.30742931282E+02  0.29748718327E+02  0.73882423622E+02  0.85374039298E+02  0.00000000000E+00 0.  1.
         12    1    4    4    0    0  0.13004919397E+02  0.15544320373E+02 -0.20499576454E+02  0.28826835747E+02  0.00000000000E+00 0. -1.
         -5    1    5    5    0  502 -0.56263969684E+02 -0.27457905819E+02  0.91573151622E+02  0.11102838815E+03  0.47000000000E+01 0.  1.
         13    1    6    6    0    0  0.13492249006E+02 -0.20892255851E+02  0.26260274864E+03  0.26377780561E+03  0.00000000000E+00 0. -1.
        -14    1    6    6    0    0  0.17347163131E+02  0.47155772316E+02  0.11432875928E+03  0.12488256936E+03  0.00000000000E+00 0.  1.
</event>
<event>
12    1  0.1030140E-001  0.1866218E+03  0.7818608E-02  0.1161966E+00
         21   -1    0    0  501  502  0.00000000000E+00  0.00000000000E+00  0.32668775890E+03  0.32668775890E+03  0.00000000000E+00 0.  1.
         21   -1    0    0  502  503 -0.00000000000E+00 -0.00000000000E+00 -0.15891298517E+03  0.15891298517E+03  0.00000000000E+00 0.  1.
         -6    2    1    2    0  503 -0.31249336354E+02 -0.62142293854E+02  0.22428293459E+03  0.29061137164E+03  0.17121316793E+03 0.  0.
        -24    2    3    3    0    0  0.38523009521E+02  0.28285394084E+01  0.11542105731E+03  0.14582743694E+03  0.80321840098E+02 0.  0.
          6    2    1    2  501    0  0.31249336354E+02  0.62142293854E+02 -0.56508160862E+02  0.19498937242E+03  0.17317475973E+03 0.  0.
         24    2    5    5    0    0  0.71158108188E+02  0.30064836851E+02 -0.82233970512E+02  0.13749519359E+03  0.78582005445E+02 0.  0.
          5    1    5    5  501    0 -0.39908771834E+02  0.32077457003E+02  0.25725809650E+02  0.57494178829E+02  0.47000000000E+01 0. -1.
        -13    1    6    6    0    0  0.31119088879E+01  0.40989095070E+02 -0.27078948975E+02  0.49224580945E+02  0.00000000000E+00 0.  1.
         14    1    6    6    0    0  0.68046199300E+02 -0.10924258219E+02 -0.55155021537E+02  0.88270612650E+02  0.00000000000E+00 0. -1.
         -5    1    3    3    0  503 -0.69772345875E+02 -0.64970833262E+02  0.10886187727E+03  0.14478393470E+03  0.47000000000E+01 0.  1.
         11    1    4    4    0    0  0.79153234244E+01 -0.13838134408E+02  0.10928317205E+03  0.11043983884E+03  0.00000000000E+00 0. -1.
        -12    1    4    4    0    0  0.30607686096E+02  0.16666673817E+02  0.61378852619E+01  0.35387598107E+02  0.00000000000E+00 0.  1.
</event>
<event>
12    1  0.1030140E-001  0.2036949E+03  0.7818608E-02  0.1148940E+00
         21   -1    0    0  501  502  0.00000000000E+00  0.00000000000E+00  0.16849871472E+03  0.16849871472E+03  0.00000000000E+00 0.  1.
         21   -1    0    0  502  503 -0.00000000000E+00 -0.00000000000E+00 -0.66745624278E+03  0.66745624278E+03  0.00000000000E+00 0.  1.
         -6    2    1    2    0  503  0.72453031415E+02 -0.84847034668E+02 -0.58413155629E+03  0.61516950596E+03  0.15740198525E+03 0.  0.
        -24    2    3    3    0    0  0.61789773148E+02 -0.74648700844E+02 -0.23912557780E+03  0.26981617055E+03  0.78926037065E+02 0.  0.
          6    2    1    2  501    0 -0.72453031415E+02  0.84847034668E+02  0.85174028223E+02  0.22078545154E+03  0.17042047844E+03 0.  0.
         24    2    5    5    0    0 -0.33566311608E+02 -0.22473907451E+02  0.40206224826E+02  0.98008601368E+02  0.79733127596E+02 0.  0.
          5    1    5    5  501    0 -0.38886719807E+02  0.10732094212E+03  0.44967803398E+02  0.12277685017E+03  0.47000000000E+01 0. -1.
        -11    1    6    6    0    0 -0.29413012909E+01 -0.12283498785E+02  0.59217646675E+02  0.60549692595E+02  0.00000000000E+00 0.  1.
         12    1    6    6    0    0 -0.30625010317E+02 -0.10190408666E+02 -0.19011421849E+02  0.37458908772E+02  0.00000000000E+00 0. -1.
         -5    1    3    3    0  503  0.10663258266E+02 -0.10198333824E+02 -0.34500597849E+03  0.34535333541E+03  0.47000000000E+01 0.  1.
         11    1    4    4    0    0 -0.13150196775E+02  0.53198162278E+01 -0.41204821390E+02  0.43578267814E+02  0.00000000000E+00 0. -1.
        -12    1    4    4    0    0  0.74939969923E+02 -0.79968517072E+02 -0.19792075641E+03  0.22623790273E+03  0.00000000000E+00 0.  1.
</event>
<event>
12    1  0.1030140E-001  0.1786990E+03  0.7818608E-02  0.1169787E+00
         21   -1    0    0  501  502  0.00000000000E+00  0.00000000000E+00  0.46060723444E+02  0.46060723444E+02  0.00000000000E+00 0. -1.
         21   -1    0    0  502  503 -0.00000000000E+00 -0.00000000000E+00 -0.11299536078E+04  0.11299536078E+04  0.00000000000E+00 0. -1.
         -6    2    1    2    0  503  0.27251154045E+01  0.45141523138E+02 -0.90946866201E+03  0.92630022024E+03  0.16986367324E+03 0.  0.
        -24    2    3    3    0    0 -0.51643904875E+02  0.66773111110E+02 -0.65078652103E+03  0.66104099604E+03  0.79538426029E+02 0.  0.
          6    2    1    2  501    0 -0.27251154045E+01 -0.45141523138E+02 -0.17442422237E+03  0.24971411102E+03  0.17288188027E+03 0.  0.
         24    2    5    5    0    0 -0.32393089902E+02 -0.54905631412E+02 -0.18875564160E+03  0.21502973271E+03  0.80902120377E+02 0.  0.
          5    1    5    5  501    0  0.29667974498E+02  0.97641082742E+01  0.14331419230E+02  0.34684378304E+02  0.47000000000E+01 0. -1.
        -11    1    6    6    0    0 -0.46465473705E+01 -0.51575378720E+02 -0.17750493940E+03  0.18490433636E+03  0.00000000000E+00 0.  1.
         12    1    6    6    0    0 -0.27746542532E+02 -0.33302526925E+01 -0.11250702193E+02  0.30125396351E+02  0.00000000000E+00 0. -1.
         -5    1    3    3    0  503  0.54369020279E+02 -0.21631587972E+02 -0.25868214098E+03  0.26525922420E+03  0.47000000000E+01 0.  1.
         11    1    4    4    0    0 -0.24903934276E+02  0.81477335541E+02 -0.49827559020E+03  0.50550699890E+03  0.00000000000E+00 0. -1.
        -12    1    4    4    0    0 -0.26739970599E+02 -0.14704224430E+02 -0.15251093083E+03  0.15553399714E+03  0.00000000000E+00 0.  1.
</event>
<event>
12    1  0.1030140E-001  0.1840772E+03  0.7818608E-02  0.1164047E+00
         21   -1    0    0  501  502  0.00000000000E+00  0.00000000000E+00  0.11575121529E+04  0.11575121529E+04  0.00000000000E+00 0.  1.
         21   -1    0    0  502  503 -0.00000000000E+00 -0.00000000000E+00 -0.29951064445E+02  0.29951064445E+02  0.00000000000E+00 0.  1.
         -6    2    1    2    0  503  0.22040357119E+02  0.61089372671E+02  0.65962904082E+03  0.68483202515E+03  0.17224036223E+03 0.  0.
        -24    2    3    3    0    0  0.74684282651E+02  0.46397261772E+02  0.33132944736E+03  0.35198077596E+03  0.79880009926E+02 0.  0.
          6    2    1    2  501    0 -0.22040357119E+02 -0.61089372671E+02  0.46793204764E+03  0.50263119220E+03  0.17163923027E+03 0.  0.
         24    2    5    5    0    0  0.42850943109E+02 -0.44942383546E+02  0.17363992789E+03  0.20080086263E+03  0.79461567504E+02 0.  0.
          5    1    5    5  501    0 -0.64891300229E+02 -0.16146989126E+02  0.29429211975E+03  0.30183032958E+03  0.47000000000E+01 0. -1.
        -13    1    6    6    0    0 -0.96036136111E+01 -0.36081933548E+02  0.30886195793E+02  0.48457119327E+02  0.00000000000E+00 0.  1.
         14    1    6    6    0    0  0.52454556720E+02 -0.88604499974E+01  0.14275373210E+03  0.15234374330E+03  0.00000000000E+00 0. -1.
         -5    1    3    3    0  503 -0.52643925532E+02  0.14692110900E+02  0.32829959346E+03  0.33285124919E+03  0.47000000000E+01 0.  1.
         11    1    4    4    0    0  0.57902995456E+02 -0.67441613759E+01  0.11974966783E+03  0.13318492235E+03  0.00000000000E+00 0. -1.
        -12    1    4    4    0    0  0.16781287196E+02  0.53141423148E+02  0.21157977953E+03  0.21879585361E+03  0.00000000000E+00 0.  1.
</event>
<event>
12    1  0.1030140E-001  0.1810795E+03  0.7818608E-02  0.1166956E+00
         21   -1    0    0  503  502  0.00000000000E+00  0.00000000000E+00  0.32572771089E+02  0.32572771089E+02  0.00000000000E+00 0.  1.
         21   -1    0    0  501  503 -0.00000000000E+00 -0.00000000000E+00 -0.10252406086E+04  0.10252406086E+04  0.00000000000E+00 0.  1.
          6    2    1    2  501    0 -0.32803551761E+02 -0.41829684076E+02 -0.41810068742E+03  0.45562919155E+03  0.17310106844E+03 0.  0.
         24    2    3    3    0    0 -0.46717405851E+02 -0.73119653987E+02 -0.17529809972E+03  0.21037861735E+03  0.77464437412E+02 0.  0.
         -6    2    1    2    0  502  0.32803551761E+02  0.41829684076E+02 -0.57456715007E+03  0.60218418812E+03  0.17225733947E+03 0.  0.
        -24    2    5    5    0    0 -0.18884742678E+02  0.45134002327E+02 -0.17676924818E+03  0.20100111389E+03  0.82221463190E+02 0.  0.
          5    1    3    3  501    0  0.13913854091E+02  0.31289969912E+02 -0.24280258770E+03  0.24525057420E+03  0.47000000000E+01 0. -1.
        -13    1    4    4    0    0 -0.31782118954E+02 -0.37095120263E+01 -0.10767583143E+03  0.11232964096E+03  0.00000000000E+00 0.  1.
         14    1    4    4    0    0 -0.14935286897E+02 -0.69410141961E+02 -0.67622268293E+02  0.98048976389E+02  0.00000000000E+00 0. -1.
         -5    1    5    5    0  502  0.51688294439E+02 -0.33043182517E+01 -0.39779790189E+03  0.40118307423E+03  0.47000000000E+01 0.  1.
         11    1    6    6    0    0 -0.41722544599E+02  0.44632483884E+02 -0.16359413802E+03  0.17463067125E+03  0.00000000000E+00 0. -1.
        -12    1    6    6    0    0  0.22837801921E+02  0.50151844342E+00 -0.13175110162E+02  0.26370442641E+02  0.00000000000E+00 0.  1.
</event>
<event>
12    1  0.1030140E-001  0.1986752E+03  0.7818608E-02  0.1150941E+00
         21   -1    0    0  501  502  0.00000000000E+00  0.00000000000E+00  0.25409575265E+04  0.25409575265E+04  0.00000000000E+00 0.  1.
         21   -1    0    0  502  503 -0.00000000000E+00 -0.00000000000E+00 -0.49320290189E+02  0.49320290189E+02  0.00000000000E+00 0.  1.
         -6    2    1    2    0  503 -0.91649734213E+02  0.33729087993E+02  0.17304456351E+03  0.26318868967E+03  0.17258777549E+03 0.  0.
        -24    2    3    3    0    0 -0.45828888301E+02 -0.34751175582E+02  0.50406292468E+02  0.11536672938E+03  0.86375672037E+02 0.  0.
          6    2    1    2  501    0  0.91649734213E+02 -0.33729087993E+02  0.23185926728E+04  0.23270891270E+04  0.17301588823E+03 0.  0.
         24    2    5    5    0    0  0.10856115125E+03 -0.72045246963E+02  0.16009635942E+04  0.16082235564E+04  0.79514379051E+02 0.  0.
          5    1    5    5  501    0 -0.16911417036E+02  0.38316158970E+02  0.71762907860E+03  0.71886557055E+03  0.47000000000E+01 0. -1.
        -11    1    6    6    0    0  0.16258337576E+02 -0.12545633267E+02  0.73993941373E+03  0.74022433251E+03  0.00000000000E+00 0.  1.
         12    1    6    6    0    0  0.92302813674E+02 -0.59499613696E+02  0.86102418044E+03  0.86799922393E+03  0.00000000000E+00 0. -1.
         -5    1    3    3    0  503 -0.45820845913E+02  0.68480263575E+02  0.12263827104E+03  0.14782196029E+03  0.47000000000E+01 0.  1.
         11    1    4    4    0    0  0.54828385326E+01  0.61149904162E+01 -0.18493133132E+02  0.20234885698E+02  0.00000000000E+00 0. -1.
        -12    1    4    4    0    0 -0.51311726833E+02 -0.40866165998E+02  0.68899425600E+02  0.95131843680E+02  0.00000000000E+00 0.  1.
</event>
<event>
12    1  0.1030140E-001  0.1921964E+03  0.7818608E-02  0.1156877E+00
         21   -1    0    0  503  502  0.00000000000E+00  0.00000000000E+00  0.54595397404E+02  0.54595397404E+02  0.00000000000E+00 0. -1.
         21   -1    0    0  501  503 -0.00000000000E+00 -0.00000000000E+00 -0.10152429345E+04  0.10152429345E+04  0.00000000000E+00 0. -1.
          6    2    1    2  501    0 -0.78967167694E+02 -0.26737747981E+02 -0.79057209843E+03  0.81319632226E+03  0.17126965575E+03 0.  0.
         24    2    3    3    0    0 -0.69372022135E+02 -0.10023119913E+02 -0.78519505998E+03  0.79264277871E+03  0.82694328975E+02 0.  0.
         -6    2    1    2    0  502  0.78967167694E+02  0.26737747981E+02 -0.17007543867E+03  0.25664200965E+03  0.17317258887E+03 0.  0.
        -24    2    5    5    0    0  0.74167632658E+02 -0.40253388152E+02 -0.69966880067E+02  0.13599930841E+03  0.80493941322E+02 0.  0.
          5    1    3    3  501    0 -0.95951455595E+01 -0.16714628067E+02 -0.53770384490E+01  0.20553543544E+02  0.47000000000E+01 0. -1.
        -13    1    4    4    0    0  0.27505389408E+01 -0.29944186733E+02 -0.32687746880E+03  0.32825767225E+03  0.00000000000E+00 0.  1.
         14    1    4    4    0    0 -0.72122561075E+02  0.19921066820E+02 -0.45831759118E+03  0.46438510647E+03  0.00000000000E+00 0. -1.
         -5    1    5    5    0  502  0.47995350356E+01  0.66991136132E+02 -0.10010855861E+03  0.12064270124E+03  0.47000000000E+01 0.  1.
         11    1    6    6    0    0  0.50136355546E+02 -0.10290533274E+02  0.53435870695E+01  0.51459723525E+02  0.00000000000E+00 0. -1.
        -12    1    6    6    0    0  0.24031277113E+02 -0.29962854877E+02 -0.75310467136E+02  0.84539584884E+02  0.00000000000E+00 0.  1.
</event>
<event>
12    1  0.1030140E-001  0.2914209E+03  0.7818608E-02  0.1089635E+00
         21   -1    0    0  501  502  0.00000000000E+00  0.00000000000E+00  0.98682682135E+03  0.98682682135E+03  0.00000000000E+00 0.  1.
         21   -1    0    0  502  503 -0.00000000000E+00 -0.00000000000E+00 -0.11094070830E+03  0.11094070830E+03  0.00000000000E+00 0. -1.
         -6    2    1    2    0  503 -0.22252806419E+03 -0.75863798215E+02  0.17781648292E+03  0.34138663639E+03  0.17219778941E+03 0.  0.
        -24    2    3    3    0    0 -0.17196204114E+03 -0.55500896899E+02  0.51327690474E+02  0.20357127059E+03  0.78456594684E+02 0.  0.
          6    2    1    2  501    0  0.22252806419E+03  0.75863798215E+02  0.69806963013E+03  0.75638089326E+03  0.17186271251E+03 0.  0.
         24    2    5    5    0    0  0.87303117060E+02  0.92872019107E+02  0.29627649319E+03  0.33207571913E+03  0.79040980746E+02 0.  0.
          5    1    5    5  501    0  0.13522494713E+03 -0.17008220892E+02  0.40179313694E+03  0.42430517413E+03  0.47000000000E+01 0. -1.
        -13    1    6    6    0    0  0.11849197210E+02  0.31859092303E+02  0.16705034933E+03  0.17047353005E+03  0.00000000000E+00 0.  1.
         14    1    6    6    0    0  0.75453919850E+02  0.61012926803E+02  0.12922614386E+03  0.16160218908E+03  0.00000000000E+00 0. -1.
         -5    1    3    3    0  503 -0.50566023053E+02 -0.20362901316E+02  0.12648879245E+03  0.13781536581E+03  0.47000000000E+01 0.  1.
         13    1    4    4    0    0 -0.14444763015E+03 -0.17146688389E+02  0.56578023781E+02  0.15607754340E+03  0.00000000000E+00 0. -1.
        -14    1    4    4    0    0 -0.27514410996E+02 -0.38354208510E+02 -0.52503333068E+01  0.47493727193E+02  0.00000000000E+00 0.  1.
</event>
<event>
12    1  0.1030140E-001  0.2332343E+03  0.7818608E-02  0.1124661E+00
         21   -1    0    0  503  502  0.00000000000E+00  0.00000000000E+00  0.17929658318E+03  0.17929658318E+03  0.00000000000E+00 0. -1.
         21   -1    0    0  501  503 -0.00000000000E+00 -0.00000000000E+00 -0.30557875053E+03  0.30557875053E+03  0.00000000000E+00 0. -1.
          6    2    1    2  501    0  0.15147888109E+03  0.28130978321E+02 -0.91956246008E+02  0.25070739945E+03  0.17510295715E+03 0.  0.
         24    2    3    3    0    0  0.12287283612E+03  0.31333501798E+02 -0.13319398024E+03  0.20019796776E+03  0.79114270097E+02 0.  0.
         -6    2    1    2    0  502 -0.15147888109E+03 -0.28130978321E+02 -0.34325921339E+02  0.23416793426E+03  0.17297152714E+03 0.  0.
        -24    2    5    5    0    0 -0.13516147909E+03 -0.28446562698E+02  0.34771571887E+02  0.16301380036E+03  0.79288110945E+02 0.  0.
          5    1    3    3  501    0  0.28606044971E+02 -0.32025234768E+01  0.41237734228E+02  0.50509431691E+02  0.47000000000E+01 0. -1.
        -13    1    4    4    0    0  0.29682405338E+02  0.45403816643E+02 -0.37923634003E+02  0.66187262887E+02  0.00000000000E+00 0.  1.
         14    1    4    4    0    0  0.93190430784E+02 -0.14070314846E+02 -0.95270346233E+02  0.13401070487E+03  0.00000000000E+00 0. -1.
         -5    1    5    5    0  502 -0.16317402006E+02  0.31558437693E+00 -0.69097493225E+02  0.71154133905E+02  0.47000000000E+01 0.  1.
         11    1    6    6    0    0 -0.49657116675E+02  0.26475356899E+02  0.22682213092E+02  0.60673359476E+02  0.00000000000E+00 0. -1.
        -12    1    6    6    0    0 -0.85504362413E+02 -0.54921919597E+02  0.12089358794E+02  0.10234044088E+03  0.00000000000E+00 0.  1.
</event>
<event>
12    1  0.1030140E-001  0.2498526E+03  0.7818608E-02  0.1113769E+00
         21   -1    0    0  503  502  0.00000000000E+00  0.00000000000E+00  0.53219326297E+03  0.53219326297E+03  0.00000000000E+00 0. -1.
         21   -1    0    0  501  503 -0.00000000000E+00 -0.00000000000E+00 -0.13699189387E+03  0.13699189387E+03  0.00000000000E+00 0.  1.
          6    2    1    2  501    0  0.82312368959E+02 -0.16227975517E+03  0.68058919807E+02  0.25895625727E+03  0.17121998012E+03 0.  0.
         24    2    3    3    0    0 -0.18742428230E+02 -0.10162585872E+03  0.17447113303E+02  0.13060279161E+03  0.77933263999E+02 0.  0.
         -6    2    1    2    0  502 -0.82312368959E+02  0.16227975517E+03  0.32714244929E+03  0.41022889956E+03  0.16779607530E+03 0.  0.
        -24    2    5    5    0    0 -0.46482584116E+02  0.15802973536E+03  0.32601303733E+03  0.37382557936E+03  0.79542663968E+02 0.  0.
          5    1    3    3  501    0  0.10105479719E+03 -0.60653896456E+02  0.50611806503E+02  0.12835346566E+03  0.47000000000E+01 0. -1.
        -13    1    4    4    0    0 -0.33264576102E+02 -0.17705115206E+02 -0.13438581864E+02  0.40007481928E+02  0.00000000000E+00 0.  1.
         14    1    4    4    0    0  0.14522147872E+02 -0.83920743513E+02  0.30885695167E+02  0.90595309682E+02  0.00000000000E+00 0. -1.
         -5    1    5    5    0  502 -0.35829784842E+02  0.42500198199E+01  0.11294119573E+01  0.36403320201E+02  0.47000000000E+01 0.  1.
         11    1    6    6    0    0  0.20391000075E+02  0.21970465835E+02  0.72303552704E+02  0.78270671306E+02  0.00000000000E+00 0. -1.
        -12    1    6    6    0    0 -0.66873584191E+02  0.13605926952E+03  0.25370948463E+03  0.29555490805E+03  0.00000000000E+00 0.  1.
</event>
<event>
12    1  0.1030140E-001  0.1750365E+03  0.7818608E-02  0.1172940E+00
         21   -1    0    0  501  502  0.00000000000E+00  0.00000000000E+00  0.15205562053E+03  0.15205562053E+03  0.00000000000E+00 0. -1.
         21   -1    0    0  502  503 -0.00000000000E+00 -0.00000000000E+00 -0.26949298225E+03  0.26949298225E+03  0.00000000000E+00 0. -1.
         -6    2    1    2    0  503 -0.20790436385E+02 -0.18759612139E+02 -0.16534272099E+03  0.24007486881E+03  0.17179511622E+03 0.  0.
        -24    2    3    3    0    0 -0.34599380501E+02 -0.60980375106E+02 -0.16314261642E+03  0.19535115896E+03  0.81429962136E+02 0.  0.
          6    2    1    2  501    0  0.20790436385E+02  0.18759612139E+02  0.47905359257E+02  0.18147373397E+03  0.17278202274E+03 0.  0.
         24    2    5    5    0    0 -0.28495856482E+02 -0.44155694250E+02  0.26081499313E+02  0.98492740330E+02  0.79112806296E+02 0.  0.
          5    1    5    5  501    0  0.49286292868E+02  0.62915306389E+02  0.21823859944E+02  0.82980993640E+02  0.47000000000E+01 0. -1.
        -13    1    6    6    0    0 -0.53508123392E+02 -0.18961400067E+02  0.27254117497E+02  0.62971746696E+02  0.00000000000E+00 0.  1.
         14    1    6    6    0    0  0.25012266910E+02 -0.25194294182E+02 -0.11726181837E+01  0.35520993634E+02  0.00000000000E+00 0. -1.
         -5    1    3    3    0  503  0.13808944116E+02  0.42220762966E+02 -0.22001045655E+01  0.44723709854E+02  0.47000000000E+01 0.  1.
         11    1    4    4    0    0  0.14337489897E+01 -0.12809174066E+02 -0.12151291105E+03  0.12219459124E+03  0.00000000000E+00 0. -1.
        -12    1    4    4    0    0 -0.36033129491E+02 -0.48171201039E+02 -0.41629705368E+02  0.73156567713E+02  0.00000000000E+00 0.  1.
</event>
<event>
12    1  0.1030140E-001  0.2429170E+03  0.7818608E-02  0.1117893E+00
         21   -1    0    0  501  502  0.00000000000E+00  0.00000000000E+00  0.12700525157E+03  0.12700525157E+03  0.00000000000E+00 0. -1.
         21   -1    0    0  502  503 -0.00000000000E+00 -0.00000000000E+00 -0.15309780702E+04  0.15309780702E+04  0.00000000000E+00 0.  1.
         -6    2    1    2    0  503  0.98858428933E+02 -0.13511541234E+03 -0.13938778055E+04  0.14148566771E+04  0.17576949814E+03 0.  0.
        -24    2    3    3    0    0  0.17152643792E+02 -0.12685220027E+02 -0.25066241069E+03  0.26219518464E+03  0.73888718455E+02 0.  0.
          6    2    1    2  501    0 -0.98858428933E+02  0.13511541234E+03 -0.10095013136E+02  0.24312664467E+03  0.17600992141E+03 0.  0.
         24    2    5    5    0    0 -0.79155803484E+02  0.49812889268E+02 -0.69575961502E+02  0.13717954885E+03  0.72321843467E+02 0.  0.
          5    1    5    5  501    0 -0.19702625449E+02  0.85302523077E+02  0.59480948366E+02  0.10594709581E+03  0.47000000000E+01 0. -1.
        -13    1    6    6    0    0  0.19458601198E+01  0.28292703435E+02 -0.28758575895E+00  0.28360996894E+02  0.00000000000E+00 0.  1.
         14    1    6    6    0    0 -0.81101663604E+02  0.21520185833E+02 -0.69288375743E+02  0.10881855196E+03  0.00000000000E+00 0. -1.
         -5    1    3    3    0  503  0.81705785141E+02 -0.12243019232E+03 -0.11432153948E+04  0.11526614925E+04  0.47000000000E+01 0.  1.
         13    1    4    4    0    0 -0.22900254376E+02 -0.25853452456E+02 -0.10336046785E+03  0.10897802058E+03  0.00000000000E+00 0. -1.
        -14    1    4    4    0    0  0.40052898168E+02  0.13168232429E+02 -0.14730194284E+03  0.15321716406E+03  0.00000000000E+00 0.  1.
</event>
<event>
12    1  0.1030140E-001  0.2928818E+03  0.7818608E-02  0.1088896E+00
         21   -1    0    0  503  502  0.00000000000E+00  0.00000000000E+00  0.39771614153E+03  0.39771614153E+03  0.00000000000E+00 0.  1.
         21   -1    0    0  501  503 -0.00000000000E+00 -0.00000000000E+00 -0.21648398254E+03  0.21648398254E+03  0.00000000000E+00 0. -1.
          6    2    1    2  501    0  0.30192534416E+01  0.23706338073E+03  0.11196362127E+03  0.31355321223E+03  0.17196395562E+03 0.  0.
         24    2    3    3    0    0 -0.54444932780E+02  0.11795453130E+03  0.26114864790E+02  0.15581561462E+03  0.81969490878E+02 0.  0.
         -6    2    1    2    0  502 -0.30192534416E+01 -0.23706338073E+03  0.69268537713E+02  0.30064691184E+03  0.17141258095E+03 0.  0.
        -24    2    5    5    0    0 -0.32187994953E+02 -0.13884373538E+03 -0.23300256299E+02  0.16248401581E+03  0.74461423419E+02 0.  0.
          5    1    3    3  501    0  0.57464186222E+02  0.11910884943E+03  0.85848756484E+02  0.15773759761E+03  0.47000000000E+01 0. -1.
        -13    1    4    4    0    0 -0.32151875263E+02  0.47131620337E+02  0.51988773271E+02  0.77187856977E+02  0.00000000000E+00 0.  1.
         14    1    4    4    0    0 -0.22293057517E+02  0.70822910965E+02 -0.25873908481E+02  0.78627757638E+02  0.00000000000E+00 0. -1.
         -5    1    5    5    0  502  0.29168741511E+02 -0.98219645354E+02  0.92568794012E+02  0.13816289603E+03  0.47000000000E+01 0.  1.
         13    1    6    6    0    0 -0.45858011980E+02 -0.68245651503E+02  0.10747770139E+02  0.82921292650E+02  0.00000000000E+00 0. -1.
        -14    1    6    6    0    0  0.13670017027E+02 -0.70598083875E+02 -0.34048026438E+02  0.79562723161E+02  0.00000000000E+00 0.  1.
</event>
<event>
12    1  0.1030140E-001  0.1769413E+03  0.7818608E-02  0.1170808E+00
         21   -1    0    0  503  502  0.00000000000E+00  0.00000000000E+00  0.53623249597E+02  0.53623249597E+02  0.00000000000E+00 0.  1.
         21   -1    0    0  501  503 -0.00000000000E+00 -0.00000000000E+00 -0.11809990993E+04  0.11809990993E+04  0.00000000000E+00 0.  1.
          6    2    1    2  501    0  0.38118811405E+02 -0.14093439796E+02 -0.10026605820E+04  0.10181457063E+04  0.17216494331E+03 0.  0.
         24    2    3    3    0    0 -0.14524122520E+02 -0.28556884594E+02 -0.27236962413E+03  0.28580190528E+03  0.80442968119E+02 0.  0.
         -6    2    1    2    0  502 -0.38118811405E+02  0.14093439796E+02 -0.12471526767E+03  0.21647664258E+03  0.17221082998E+03 0.  0.
        -24    2    5    5    0    0 -0.81094778866E+02  0.18981053157E+02 -0.41346347182E+02  0.12243787692E+03  0.79654690637E+02 0.  0.
          5    1    3    3  501    0  0.52642933926E+02  0.14463444798E+02 -0.73029095788E+03  0.73234380102E+03  0.47000000000E+01 0. -1.
        -13    1    4    4    0    0 -0.32001295763E+02 -0.35390337114E+02 -0.25743357795E+03  0.26181788699E+03  0.00000000000E+00 0.  1.
         14    1    4    4    0    0  0.17477173242E+02  0.68334525198E+01 -0.14936046183E+02  0.23984018293E+02  0.00000000000E+00 0. -1.
         -5    1    5    5    0  502  0.42975967461E+02 -0.48876133612E+01 -0.83368920488E+02  0.94038765660E+02  0.47000000000E+01 0.  1.
         13    1    6    6    0    0 -0.67377914823E+02  0.42298505985E+02 -0.50086108407E+02  0.94008325535E+02  0.00000000000E+00 0. -1.
        -14    1    6    6    0    0 -0.13716864043E+02 -0.23317452828E+02  0.87397612251E+01  0.28429551383E+02  0.00000000000E+00 0.  1.
</event>
<event>
12    1  0.1030140E-001  0.2395216E+03  0.7818608E-02  0.1120387E+00
         21   -1    0    0  503  502  0.00000000000E+00  0.00000000000E+00  0.11742861574E+04  0.11742861574E+04  0.00000000000E+00 0. -1.
         21   -1    0    0  501  503 -0.00000000000E+00 -0.00000000000E+00 -0.18130554182E+03  0.18130554182E+03  0.00000000000E+00 0. -1.
          6    2    1    2  501    0  0.95983152905E+02 -0.13405477763E+03 -0.83103125785E+02  0.25352859827E+03  0.17374455841E+03 0.  0.
         24    2    3    3    0    0  0.93620883206E+02 -0.13978738476E+03 -0.11610441860E+03  0.21962257476E+03  0.80302282759E+02 0.  0.
         -6    2    1    2    0  502 -0.95983152905E+02  0.13405477763E+03  0.10760837414E+04  0.11020631010E+04  0.17147422838E+03 0.  0.
        -24    2    5    5    0    0 -0.51137230442E+02  0.15318866746E+03  0.69559849297E+03  0.71843779320E+03  0.78827755866E+02 0.  0.
          5    1    3    3  501    0  0.23622696985E+01  0.57326071255E+01  0.33001292818E+02  0.33906023509E+02  0.47000000000E+01 0. -1.
        -11    1    4    4    0    0  0.14035735962E+02 -0.92129457117E+02 -0.50411054850E+02  0.10595335390E+03  0.00000000000E+00 0.  1.
         12    1    4    4    0    0  0.79585147245E+02 -0.47657927639E+02 -0.65693363753E+02  0.11366922086E+03  0.00000000000E+00 0. -1.
         -5    1    5    5    0  502 -0.44845922463E+02 -0.19133889834E+02  0.38048524844E+03  0.38362530780E+03  0.47000000000E+01 0.  1.
         11    1    6    6    0    0  0.93405896782E+01  0.89620309885E+02  0.30074394663E+03  0.31395217469E+03  0.00000000000E+00 0. -1.
        -12    1    6    6    0    0 -0.60477820120E+02  0.63568357580E+02  0.39485454634E+03  0.40448561851E+03  0.00000000000E+00 0.  1.
</event>
<event>
12    1  0.1030140E-001  0.2320926E+03  0.7818608E-02  0.1125356E+00
         21   -1    0    0  503  502  0.00000000000E+00  0.00000000000E+00  0.14398849339E+03  0.14398849339E+03  0.00000000000E+00 0. -1.
         21   -1    0    0  501  503 -0.00000000000E+00 -0.00000000000E+00 -0.75958928733E+03  0.75958928733E+03  0.00000000000E+00 0. -1.
          6    2    1    2  501    0 -0.50649294470E+02 -0.14665755515E+03 -0.63000498692E+03  0.67103859608E+03  0.17120959195E+03 0.  0.
         24    2    3    3    0    0 -0.29063407829E+02 -0.14726778147E+02 -0.33805869930E+03  0.34990559361E+03  0.84194302645E+02 0.  0.
         -6    2    1    2    0  502  0.50649294470E+02  0.14665755515E+03  0.14404192980E+02  0.23253918464E+03  0.17260707432E+03 0.  0.
        -24    2    5    5    0    0 -0.21235067882E+02  0.31450709244E+02  0.20758024522E+02  0.96515509972E+02  0.86280199716E+02 0.  0.
          5    1    3    3  501    0 -0.21585886641E+02 -0.13193077700E+03 -0.29194628762E+03  0.32113300247E+03  0.47000000000E+01 0. -1.
        -13    1    4    4    0    0 -0.21542724957E+00 -0.26898320544E+02 -0.30134998394E+02  0.40394110774E+02  0.00000000000E+00 0.  1.
         14    1    4    4    0    0 -0.28847980579E+02  0.12171542397E+02 -0.30792370090E+03  0.30951148283E+03  0.00000000000E+00 0. -1.
         -5    1    5    5    0  502  0.71884362353E+02  0.11520684590E+03 -0.63538315425E+01  0.13602367467E+03  0.47000000000E+01 0.  1.
         11    1    6    6    0    0  0.12816900089E+02 -0.25135637943E+02  0.61943775722E+01  0.28886736338E+02  0.00000000000E+00 0. -1.
        -12    1    6    6    0    0 -0.34051967972E+02  0.56586347187E+02  0.14563646950E+02  0.67628773634E+02  0.00000000000E+00 0.  1.
</event>
<event>
12    1  0.1030140E-001  0.1918420E+03  0.7818608E-02  0.1158620E+00
         21   -1    0    0  503  502  0.00000000000E+00  0.00000000000E+00  0.14100171411E+03  0.14100171411E+03  0.00000000000E+00 0. -1.
         21   -1    0    0  501  503 -0.00000000000E+00 -0.00000000000E+00 -0.39618407844E+03  0.39618407844E+03  0.00000000000E+00 0. -1.
          6    2    1    2  501    0  0.30233963308E+02  0.68504122959E+02 -0.28884167859E+03  0.34241333927E+03  0.16795973393E+03 0.  0.
         24    2    3    3    0    0  0.38815808412E+02 -0.20884139532E+02 -0.11502602978E+03  0.14671489955E+03  0.79696047314E+02 0.  0.
         -6    2    1    2    0  502 -0.30233963308E+02 -0.68504122959E+02  0.33659314261E+02  0.19477245328E+03  0.17662517295E+03 0.  0.
        -24    2    5    5    0    0  0.39909139820E+02 -0.24708279775E+02 -0.21502524803E+02  0.95258387515E+02  0.80053502662E+02 0.  0.
          5    1    3    3  501    0 -0.85818451045E+01  0.89388262491E+02 -0.17381564881E+03  0.19569843972E+03  0.47000000000E+01 0. -1.
        -13    1    4    4    0    0  0.61525270140E+02 -0.25479891076E+01 -0.72273954865E+02  0.94949332100E+02  0.00000000000E+00 0.  1.
         14    1    4    4    0    0 -0.22709461728E+02 -0.18336150425E+02 -0.42752074912E+02  0.51765567452E+02  0.00000000000E+00 0. -1.
         -5    1    5    5    0  502 -0.70143103128E+02 -0.43795843184E+02  0.55161839064E+02  0.99514065767E+02  0.47000000000E+01 0.  1.
         11    1    6    6    0    0 -0.10540052308E+02  0.10487724971E+02  0.17080875940E+02  0.22646001868E+02  0.00000000000E+00 0. -1.
        -12    1    6    6    0    0  0.50449192128E+02 -0.35196004746E+02 -0.38583400744E+02  0.72612385647E+02  0.00000000000E+00 0.  1.
</event>
<event>
12    1  0.1030140E-001  0.1851733E+03  0.7818608E-02  0.1163037E+00
         21   -1    0    0  501  502  0.00000000000E+00  0.00000000000E+00  0.31267214452E+03  0.31267214452E+03  0.00000000000E+00 0.  1.
         21   -1    0    0  502  503 -0.00000000000E+00 -0.00000000000E+00 -0.16695923334E+03  0.16695923334E+03  0.00000000000E+00 0.  1.
         -6    2    1    2    0  503  0.63855659041E+02 -0.22781387831E+02 -0.68171488451E+02  0.19672559813E+03  0.17163062750E+03 0.  0.
        -24    2    3    3    0    0  0.44306870339E+02  0.46202081153E+02 -0.71804087585E+02  0.12478006380E+03  0.79476451018E+02 0.  0.
          6    2    1    2  501    0 -0.63855659041E+02  0.22781387831E+02  0.21388439963E+03  0.28290577973E+03  0.17231542872E+03 0.  0.
         24    2    5    5    0    0 -0.43708725734E+02  0.55325584235E+02  0.57026785206E+02  0.12137737714E+03  0.80678624639E+02 0.  0.
          5    1    5    5  501    0 -0.20146933307E+02 -0.32544196404E+02  0.15685761442E+03  0.16152840259E+03  0.47000000000E+01 0. -1.
        -13    1    6    6    0    0 -0.64041481754E+02  0.58027265208E+02  0.49046502095E+02  0.99368175290E+02  0.00000000000E+00 0.  1.
         14    1    6    6    0    0  0.20332756020E+02 -0.27016809731E+01  0.79802831110E+01  0.22009201848E+02  0.00000000000E+00 0. -1.
         -5    1    3    3    0  503  0.19548788702E+02 -0.68983468984E+02  0.36325991337E+01  0.71945534325E+02  0.47000000000E+01 0.  1.
         13    1    4    4    0    0 -0.22516729166E+02  0.16183225953E+02 -0.12008045030E+02  0.30217429408E+02  0.00000000000E+00 0. -1.
        -14    1    4    4    0    0  0.66823599505E+02  0.30018855200E+02 -0.59796042555E+02  0.94562634394E+02  0.00000000000E+00 0.  1.
</event>
<event>
12    1  0.1030140E-001  0.2518314E+03  0.7818608E-02  0.1112158E+00
         21   -1    0    0  501  502  0.00000000000E+00  0.00000000000E+00  0.16368667604E+03  0.16368667604E+03  0.00000000000E+00 0.  1.
         21   -1    0    0  502  503 -0.00000000000E+00 -0.00000000000E+00 -0.38745093766E+03  0.38745093766E+03  0.00000000000E+00 0. -1.
         -6    2    1    2    0  503  0.15882447872E+03 -0.93685881651E+02 -0.10858921647E+03  0.27421825335E+03  0.17146945230E+03 0.  0.
        -24    2    3    3    0    0  0.72026626540E+02 -0.12905786121E+02  0.99651513695E+01  0.10647881520E+03  0.76707493750E+02 0.  0.
          6    2    1    2  501    0 -0.15882447872E+03  0.93685881651E+02 -0.11517504515E+03  0.27691936035E+03  0.17151321129E+03 0.  0.
         24    2    5    5    0    0 -0.51672270728E+02  0.28659842253E+02 -0.11436223082E+03  0.15148917202E+03  0.79867636008E+02 0.  0.
          5    1    5    5  501    0 -0.10715220800E+03  0.65026039398E+02 -0.81281433833E+00  0.12543018833E+03  0.47000000000E+01 0. -1.
        -13    1    6    6    0    0  0.95862371527E+01  0.36049927675E+02 -0.49288781455E+02  0.61813244579E+02  0.00000000000E+00 0.  1.
         14    1    6    6    0    0 -0.61258507881E+02 -0.73900854218E+01 -0.65073449362E+02  0.89675927440E+02  0.00000000000E+00 0. -1.
         -5    1    3    3    0  503  0.86797852184E+02 -0.80780095530E+02 -0.11855436784E+03  0.16773943815E+03  0.47000000000E+01 0.  1.
         11    1    4    4    0    0  0.10822798927E+02  0.27771066448E+02 -0.79316724112E+01  0.30842771203E+02  0.00000000000E+00 0. -1.
        -12    1    4    4    0    0  0.61203827613E+02 -0.40676852568E+02  0.17896823781E+02  0.75636043992E+02  0.00000000000E+00 0.  1.
</event>
<event>
12    1  0.1030140E-001  0.1744800E+03  0.7818608E-02  0.1173415E+00
         21   -1    0    0  503  502  0.00000000000E+00  0.00000000000E+00  0.47724817033E+03  0.47724817033E+03  0.00000000000E+00 0.  1.
         21   -1    0    0  501  503 -0.00000000000E+00 -0.00000000000E+00 -0.75788338378E+02  0.75788338378E+02  0.00000000000E+00 0.  1.
          6    2    1    2  501    0  0.24211259042E+02  0.79910064218E+01  0.89952389203E+02  0.19630259211E+03  0.17260716700E+03 0.  0.
         24    2    3    3    0    0  0.80428751265E+02  0.20050855366E+02  0.69154193814E+02  0.13497966557E+03  0.81033244810E+02 0.  0.
         -6    2    1    2    0  502 -0.24211259042E+02 -0.79910064218E+01  0.31150744275E+03  0.35673391659E+03  0.17196557537E+03 0.  0.
        -24    2    5    5    0    0  0.29913223339E+02  0.14388665004E+02  0.84930581066E+02  0.12266240287E+03  0.82042835560E+02 0.  0.
          5    1    3    3  501    0 -0.56217492224E+02 -0.12059848945E+02  0.20798195389E+02  0.61322926544E+02  0.47000000000E+01 0. -1.
        -11    1    4    4    0    0  0.34686255421E+02  0.42700925026E+02  0.84357152740E+01  0.55656685182E+02  0.00000000000E+00 0.  1.
         12    1    4    4    0    0  0.45742495844E+02 -0.22650069659E+02  0.60718478540E+02  0.79322980389E+02  0.00000000000E+00 0. -1.
         -5    1    5    5    0  502 -0.54124482381E+02 -0.22379671426E+02  0.22657686168E+03  0.23407151372E+03  0.47000000000E+01 0.  1.
         13    1    6    6    0    0  0.54937312589E+02  0.89700821868E+01  0.78552396613E+02  0.96275904061E+02  0.00000000000E+00 0. -1.
        -14    1    6    6    0    0 -0.25024089250E+02  0.54185828174E+01  0.63781844525E+01  0.26386498810E+02  0.00000000000E+00 0.  1.
</event>
<event>
12    1  0.1030140E-001  0.2742606E+03  0.7818608E-02  0.1098870E+00
         21   -1    0    0  503  502  0.00000000000E+00  0.00000000000E+00  0.22455639575E+03  0.22455639575E+03  0.00000000000E+00 0. -1.
         21   -1    0    0  501  503 -0.00000000000E+00 -0.00000000000E+00 -0.69368467961E+03  0.69368467961E+03  0.00000000000E+00 0. -1.
          6    2    1    2  501    0  0.16144336328E+03  0.13970334442E+03 -0.56474644168E+03  0.62781956827E+03  0.17215656516E+03 0.  0.
         24    2    3    3    0    0  0.10247013997E+03  0.32273245363E+02 -0.21671372353E+03  0.25881017794E+03  0.92066162558E+02 0.  0.
         -6    2    1    2    0  502 -0.16144336328E+03 -0.13970334442E+03  0.95618157817E+02  0.29042150710E+03  0.17210704719E+03 0.  0.
        -24    2    5    5    0    0 -0.16146517725E+03 -0.16542586361E+03  0.99716976870E+02  0.26395381383E+03  0.79318475411E+02 0.  0.
          5    1    3    3  501    0  0.58973223309E+02  0.10743009905E+03 -0.34803271814E+03  0.36900939032E+03  0.47000000000E+01 0. -1.
        -13    1    4    4    0    0  0.21407668504E+02  0.49180465601E+02 -0.53317508386E+02  0.75629115875E+02  0.00000000000E+00 0.  1.
         14    1    4    4    0    0  0.81062471462E+02 -0.16907220238E+02 -0.16339621515E+03  0.18318106207E+03  0.00000000000E+00 0. -1.
         -5    1    5    5    0  502  0.21813976836E-01  0.25722519193E+02 -0.40988190526E+01  0.26467693271E+02  0.47000000000E+01 0.  1.
         13    1    6    6    0    0 -0.62441694072E+02 -0.78882215543E+02  0.84840823609E+02  0.13160294236E+03  0.00000000000E+00 0. -1.
        -14    1    6    6    0    0 -0.99023483180E+02 -0.86543648065E+02  0.14876153261E+02  0.13235087146E+03  0.00000000000E+00 0.  1.
</event>
<event>
12    1  0.1030140E-001  0.1917021E+03  0.7818608E-02  0.1156959E+00
         21   -1    0    0  503  502  0.00000000000E+00  0.00000000000E+00  0.22226217900E+03  0.22226217900E+03  0.00000000000E+00 0.  1.
         21   -1    0    0  501  503 -0.00000000000E+00 -0.00000000000E+00 -0.16820604510E+03  0.16820604510E+03  0.00000000000E+00 0.  1.
          6    2    1    2  501    0  0.10923294150E+02 -0.83907017093E+02  0.11541917066E+01  0.19170556204E+03  0.17201739588E+03 0.  0.
         24    2    3    3    0    0  0.29550817837E+02  0.16991361157E+02  0.57400501126E+01  0.88892199731E+02  0.81895774060E+02 0.  0.
         -6    2    1    2    0  502 -0.10923294150E+02  0.83907017093E+02  0.52901942192E+02  0.19876266205E+03  0.17189611533E+03 0.  0.
        -24    2    5    5    0    0  0.57442594132E+02  0.30247793815E+02  0.18010679235E+02  0.10499327923E+03  0.80527159808E+02 0.  0.
          5    1    3    3  501    0 -0.18627523687E+02 -0.10089837825E+03 -0.45858584060E+01  0.10281336231E+03  0.47000000000E+01 0. -1.
        -13    1    4    4    0    0  0.32337894130E+02 -0.22926522742E+02 -0.16699926645E+02  0.43014560230E+02  0.00000000000E+00 0.  1.
         14    1    4    4    0    0 -0.27870762933E+01  0.39917883899E+02  0.22439976758E+02  0.45877639501E+02  0.00000000000E+00 0. -1.
         -5    1    5    5    0  502 -0.68365888282E+02  0.53659223278E+02  0.34891262956E+02  0.93769382818E+02  0.47000000000E+01 0.  1.
         11    1    6    6    0    0  0.56740660340E+02  0.26512804650E+02  0.45392316366E+02  0.77349167619E+02  0.00000000000E+00 0. -1.
        -12    1    6    6    0    0  0.70193379211E+00  0.37349891647E+01 -0.27381637130E+02  0.27644111616E+02  0.00000000000E+00 0.  1.
</event>
<event>
12    1  0.1030140E-001  0.1920130E+03  0.7818608E-02  0.1156859E+00
         21   -1    0    0  503  502  0.00000000000E+00  0.00000000000E+00  0.15656018295E+03  0.15656018295E+03  0.00000000000E+00 0.  1.
         21   -1    0    0  501  503 -0.00000000000E+00 -0.00000000000E+00 -0.64119427753E+03  0.64119427753E+03  0.00000000000E+00 0. -1.
          6    2    1    2  501    0  0.84263724234E+02  0.18465986623E+01 -0.56024060421E+03  0.59223181213E+03  0.17252593875E+03 0.  0.
         24    2    3    3    0    0  0.25099394966E+02  0.62109650363E+02 -0.36274413473E+03  0.37738535832E+03  0.79679439599E+02 0.  0.
         -6    2    1    2    0  502 -0.84263724234E+02 -0.18465986623E+01  0.75606509634E+02  0.20552264835E+03  0.17152093032E+03 0.  0.
        -24    2    5    5    0    0 -0.78861152986E+02 -0.62714664169E+02  0.51106722231E+02  0.13951932452E+03  0.81862899435E+02 0.  0.
          5    1    3    3  501    0  0.59164329268E+02 -0.60263051700E+02 -0.19749646948E+03  0.21484645381E+03  0.47000000000E+01 0. -1.
        -11    1    4    4    0    0 -0.43164350680E+01 -0.87552962657E+01 -0.40359670745E+01  0.10562947251E+02  0.00000000000E+00 0.  1.
         12    1    4    4    0    0  0.29415830034E+02  0.70864946628E+02 -0.35870816766E+03  0.36682241107E+03  0.00000000000E+00 0. -1.
         -5    1    5    5    0  502 -0.54025712481E+01  0.60868065507E+02  0.24499787403E+02  0.66003323837E+02  0.47000000000E+01 0.  1.
         11    1    6    6    0    0  0.65313121854E+01  0.28346726817E+01 -0.12569780442E+02  0.14446203253E+02  0.00000000000E+00 0. -1.
        -12    1    6    6    0    0 -0.85392465171E+02 -0.65549336851E+02  0.63676502672E+02  0.12507312126E+03  0.00000000000E+00 0.  1.
</event>
<event>
12    1  0.1030140E-001  0.2564854E+03  0.7818608E-02  0.1109484E+00
         21   -1    0    0  503  502  0.00000000000E+00  0.00000000000E+00  0.19788217080E+03  0.19788217080E+03  0.00000000000E+00 0. -1.
         21   -1    0    0  501  503 -0.00000000000E+00 -0.00000000000E+00 -0.33076523945E+03  0.33076523945E+03  0.00000000000E+00 0.  1.
          6    2    1    2  501    0  0.12228037065E+03 -0.14585636478E+03 -0.70887196297E+02  0.26477579700E+03  0.16986659437E+03 0.  0.
         24    2    3    3    0    0  0.13455731700E+03 -0.12688103106E+03 -0.10036041156E+03  0.22733855459E+03  0.86058925121E+02 0.  0.
         -6    2    1    2    0  502 -0.12228037065E+03  0.14585636478E+03 -0.61995872354E+02  0.26387161324E+03  0.17192490189E+03 0.  0.
        -24    2    5    5    0    0 -0.20425555373E+02  0.25304384466E+02 -0.60318616829E+02  0.10597263750E+03  0.80835321347E+02 0.  0.
          5    1    3    3  501    0 -0.12276946347E+02 -0.18975333727E+02  0.29473215263E+02  0.37437242414E+02  0.47000000000E+01 0. -1.
        -13    1    4    4    0    0  0.12906538591E+03 -0.73713987087E+02 -0.87081648351E+02  0.17226386508E+03  0.00000000000E+00 0.  1.
         14    1    4    4    0    0  0.54919310828E+01 -0.53167043970E+02 -0.13278763209E+02  0.55074689504E+02  0.00000000000E+00 0. -1.
         -5    1    5    5    0  502 -0.10185481528E+03  0.12055198032E+03 -0.16772555248E+01  0.15789897574E+03  0.47000000000E+01 0.  1.
         11    1    6    6    0    0 -0.10319035876E+02 -0.18788610544E+02  0.89598702758E+01  0.23233029568E+02  0.00000000000E+00 0. -1.
        -12    1    6    6    0    0 -0.10106519497E+02  0.44092995010E+02 -0.69278487105E+02  0.82739607933E+02  0.00000000000E+00 0.  1.
</event>
<event>
12    1  0.1030140E-001  0.2219905E+03  0.7818608E-02  0.1132501E+00
         21   -1    0    0  503  502  0.00000000000E+00  0.00000000000E+00  0.49561912482E+03  0.49561912482E+03  0.00000000000E+00 0. -1.
         21   -1    0    0  501  503 -0.00000000000E+00 -0.00000000000E+00 -0.10330769553E+04  0.10330769553E+04  0.00000000000E+00 0.  1.
          6    2    1    2  501    0 -0.12393291837E+03  0.61949530755E+02 -0.99548038190E+03  0.10199318529E+04  0.17344359684E+03 0.  0.
         24    2    3    3    0    0 -0.29227978244E+02  0.76753646750E+02 -0.37601606006E+03  0.39307754486E+03  0.79852876252E+02 0.  0.
         -6    2    1    2    0  502  0.12393291837E+03 -0.61949530755E+02  0.45802255145E+03  0.50876422714E+03  0.17279834653E+03 0.  0.
        -24    2    5    5    0    0  0.12821982447E+03 -0.88821437866E+02  0.29026110376E+03  0.33874519795E+03  0.78531710575E+02 0.  0.
          5    1    3    3  501    0 -0.94704940122E+02 -0.14804115995E+02 -0.61946432184E+03  0.62685430808E+03  0.47000000000E+01 0. -1.
        -11    1    4    4    0    0 -0.28149688605E+02  0.30978215929E+02 -0.30954528401E+03  0.31236251005E+03  0.00000000000E+00 0.  1.
         12    1    4    4    0    0 -0.10782896385E+01  0.45775430822E+02 -0.66470776051E+02  0.80715034809E+02  0.00000000000E+00 0. -1.
         -5    1    5    5    0  502 -0.42869061072E+01  0.26871907110E+02  0.16776144769E+03  0.17001902919E+03  0.47000000000E+01 0.  1.
         11    1    6    6    0    0  0.11596429223E+03 -0.83949916985E+02  0.19144719278E+03  0.23905508415E+03  0.00000000000E+00 0. -1.
        -12    1    6    6    0    0  0.12255532243E+02 -0.48715208810E+01  0.98813910987E+02  0.99690113807E+02  0.00000000000E+00 0.  1.
</event>
<event>
12    1  0.1030140E-001  0.2255908E+03  0.7818608E-02  0.1130073E+00
         21   -1    0    0  503  502  0.00000000000E+00  0.00000000000E+00  0.18648311683E+03  0.18648311683E+03  0.00000000000E+00 0.  1.
         21   -1    0    0  501  503 -0.00000000000E+00 -0.00000000000E+00 -0.29413292674E+03  0.29413292674E+03  0.00000000000E+00 0. -1.
          6    2    1    2  501    0  0.98635724515E+02  0.10547602373E+03 -0.12109622284E+03  0.25462486382E+03  0.17121719644E+03 0.  0.
         24    2    3    3    0    0  0.80222128636E+02  0.13851334808E+03 -0.72849259071E+02  0.19314002971E+03  0.79840584962E+02 0.  0.
         -6    2    1    2    0  502 -0.98635724515E+02 -0.10547602373E+03  0.13446412922E+02  0.22599117975E+03  0.17331188526E+03 0.  0.
        -24    2    5    5    0    0 -0.54479537698E+01  0.80830286304E+00  0.22953872515E+02  0.84242103974E+02  0.80867287977E+02 0.  0.
          5    1    3    3  501    0  0.18413595878E+02 -0.33037324354E+02 -0.48246963766E+02  0.61484834116E+02  0.47000000000E+01 0. -1.
        -11    1    4    4    0    0  0.57860538229E+02  0.25862551300E+02 -0.18115683147E+02  0.65915790368E+02  0.00000000000E+00 0.  1.
         12    1    4    4    0    0  0.22361590407E+02  0.11265079678E+03 -0.54733575924E+02  0.12722423934E+03  0.00000000000E+00 0. -1.
         -5    1    5    5    0  502 -0.93187770745E+02 -0.10628432659E+03 -0.95074595929E+01  0.14174907578E+03  0.47000000000E+01 0.  1.
         13    1    6    6    0    0 -0.13600560420E+02 -0.34700162429E+02 -0.59428854005E+01  0.37741149999E+02  0.00000000000E+00 0. -1.
        -14    1    6    6    0    0  0.81526066507E+01  0.35508465292E+02  0.28896757916E+02  0.46500953976E+02  0.00000000000E+00 0.  1.
</event>
<event>
12    1  0.1030140E-001  0.2077803E+03  0.7818608E-02  0.1143615E+00
         21   -1    0    0  501  502  0.00000000000E+00  0.00000000000E+00  0.12532769280E+03  0.12532769280E+03  0.00000000000E+00 0.  1.
         21   -1    0    0  502  503 -0.00000000000E+00 -0.00000000000E+00 -0.39803993278E+03  0.39803993278E+03  0.00000000000E+00 0.  1.
         -6    2    1    2    0  503  0.39205693559E+02 -0.10845118502E+03 -0.23399265415E+03  0.31201041328E+03  0.17117006123E+03 0.  0.
        -24    2    3    3    0    0  0.82409579135E+02 -0.10470263760E+03 -0.14232130963E+03  0.21049020473E+03  0.79352316053E+02 0.  0.
          6    2    1    2  501    0 -0.39205693559E+02  0.10845118502E+03 -0.38719585836E+02  0.21135721230E+03  0.17284073283E+03 0.  0.
         24    2    5    5    0    0  0.16088318272E+02  0.11138683954E+03  0.64348657444E+01  0.13975371860E+03  0.82606491026E+02 0.  0.
          5    1    5    5  501    0 -0.55294011831E+02 -0.29356545203E+01 -0.45154451581E+02  0.71603493695E+02  0.47000000000E+01 0. -1.
        -11    1    6    6    0    0 -0.28092952715E+02  0.38958923144E+02  0.23092298057E+02  0.53294145216E+02  0.00000000000E+00 0.  1.
         12    1    6    6    0    0  0.44181270988E+02  0.72427916393E+02 -0.16657432312E+02  0.86459573388E+02  0.00000000000E+00 0. -1.
         -5    1    3    3    0  503 -0.43203885576E+02 -0.37485474204E+01 -0.91671344523E+02  0.10152020855E+03  0.47000000000E+01 0.  1.
         11    1    4    4    0    0  0.14899219412E+02  0.11031539983E+02 -0.63476857209E+01  0.19595273090E+02  0.00000000000E+00 0. -1.
        -12    1    4    4    0    0  0.67510359723E+02 -0.11573417758E+03 -0.13597362390E+03  0.19089493164E+03  0.00000000000E+00 0.  1.
</event>
<event>
12    1  0.1030140E-001  0.1798236E+03  0.7818608E-02  0.1168128E+00
         21   -1    0    0  501  502  0.00000000000E+00  0.00000000000E+00  0.10021678401E+04  0.10021678401E+04  0.00000000000E+00 0.  1.
         21   -1    0    0  502  503 -0.00000000000E+00 -0.00000000000E+00 -0.33998044280E+02  0.33998044280E+02  0.00000000000E+00 0.  1.
         -6    2    1    2    0  503  0.30791333828E+02 -0.41058507091E+02  0.60560589362E+03  0.63173967093E+03  0.17234444058E+03 0.  0.
        -24    2    3    3    0    0  0.80470655455E+02 -0.50771267919E+02  0.36379461459E+03  0.38464220557E+03  0.80931184777E+02 0.  0.
          6    2    1    2  501    0 -0.30791333828E+02  0.41058507091E+02  0.36256390219E+03  0.40442621344E+03  0.17168014358E+03 0.  0.
         24    2    5    5    0    0 -0.27576617402E+02  0.53892637340E+02  0.37297963975E+03  0.38694402565E+03  0.83348552074E+02 0.  0.
          5    1    5    5  501    0 -0.32147164259E+01 -0.12834130249E+02 -0.10415737558E+02  0.17482187787E+02  0.47000000000E+01 0. -1.
        -13    1    6    6    0    0 -0.39940580085E+02  0.51721505388E+02  0.15006376148E+03  0.16367497233E+03  0.00000000000E+00 0.  1.
         14    1    6    6    0    0  0.12363962683E+02  0.21711319525E+01  0.22291587827E+03  0.22326905332E+03  0.00000000000E+00 0. -1.
         -5    1    3    3    0  503 -0.49679321627E+02  0.97127608280E+01  0.24181127903E+03  0.24709746536E+03  0.47000000000E+01 0.  1.
         13    1    4    4    0    0  0.75018465404E+02 -0.45340335451E+02  0.17533176804E+03  0.19602230754E+03  0.00000000000E+00 0. -1.
        -14    1    4    4    0    0  0.54521900505E+01 -0.54309324681E+01  0.18846284655E+03  0.18861989803E+03  0.00000000000E+00 0.  1.
</event>
<event>
12    1  0.1030140E-001  0.2018968E+03  0.7818608E-02  0.1150259E+00
         21   -1    0    0  503  502  0.00000000000E+00  0.00000000000E+00  0.21380116953E+03  0.21380116953E+03  0.00000000000E+00 0. -1.
         21   -1    0    0  501  503 -0.00000000000E+00 -0.00000000000E+00 -0.32168324161E+03  0.32168324161E+03  0.00000000000E+00 0. -1.
          6    2    1    2  501    0 -0.69768909918E+02 -0.48426012438E+02 -0.22992238228E+03  0.29956886868E+03  0.17223363707E+03 0.  0.
         24    2    3    3    0    0 -0.93383367240E+01 -0.83441023102E+01 -0.32962412780E+02  0.89631417802E+02  0.82404137183E+02 0.  0.
         -6    2    1    2    0  502  0.69768909918E+02  0.48426012438E+02  0.12204031019E+03  0.23591554246E+03  0.18316529799E+03 0.  0.
        -24    2    5    5    0    0  0.11067843625E+03  0.45756408401E+02  0.12841556238E+03  0.19416090234E+03  0.82852484425E+02 0.  0.
          5    1    3    3  501    0 -0.60430573194E+02 -0.40081910127E+02 -0.19695996950E+03  0.20993745088E+03  0.47000000000E+01 0. -1.
        -11    1    4    4    0    0  0.32986582677E+02 -0.19921151739E+02 -0.22117549429E+02  0.44431440625E+02  0.00000000000E+00 0.  1.
         12    1    4    4    0    0 -0.42324919401E+02  0.11577049429E+02 -0.10844863351E+02  0.45199977177E+02  0.00000000000E+00 0. -1.
         -5    1    5    5    0  502 -0.40909526336E+02  0.26696040363E+01 -0.63752521829E+01  0.41754640115E+02  0.47000000000E+01 0.  1.
         13    1    6    6    0    0  0.26565041645E+02 -0.22130286686E+02  0.49273065079E+02  0.60193736955E+02  0.00000000000E+00 0. -1.
        -14    1    6    6    0    0  0.84113394609E+02  0.67886695087E+02  0.79142497299E+02  0.13396716539E+03  0.00000000000E+00 0.  1.
</event>
<event>
12    1  0.1030140E-001  0.2954911E+03  0.7818608E-02  0.1087696E+00
         21   -1    0    0  503  502  0.00000000000E+00  0.00000000000E+00  0.10863967786E+04  0.10863967786E+04  0.00000000000E+00 0.  1.
         21   -1    0    0  501  503 -0.00000000000E+00 -0.00000000000E+00 -0.85892061574E+02  0.85892061574E+02  0.00000000000E+00 0. -1.
          6    2    1    2  501    0  0.23678207316E+03  0.55533736558E+01  0.34549826362E+03  0.45371493640E+03  0.17433187667E+03 0.  0.
         24    2    3    3    0    0  0.19728487174E+03 -0.56665953239E+02  0.25668066017E+03  0.33820766286E+03  0.79794179214E+02 0.  0.
         -6    2    1    2    0  502 -0.23678207316E+03 -0.55533736558E+01  0.65500645337E+03  0.71857390373E+03  0.17668732566E+03 0.  0.
        -24    2    5    5    0    0 -0.70350466778E+02 -0.51353079794E+02  0.20614930659E+03  0.23764571689E+03  0.79947627672E+02 0.  0.
          5    1    3    3  501    0  0.39497201416E+02  0.62219326895E+02  0.88817603447E+02  0.11550727354E+03  0.47000000000E+01 0. -1.
        -11    1    4    4    0    0  0.56931372840E+02 -0.31432786515E+02  0.13846385778E+03  0.15297529602E+03  0.00000000000E+00 0.  1.
         12    1    4    4    0    0  0.14035349890E+03 -0.25233166724E+02  0.11821680239E+03  0.18523236684E+03  0.00000000000E+00 0. -1.
         -5    1    5    5    0  502 -0.16643160638E+03  0.45799706138E+02  0.44885714678E+03  0.48092818684E+03  0.47000000000E+01 0.  1.
         11    1    6    6    0    0 -0.76743794603E+02 -0.28130557167E+02  0.10180392976E+03  0.13055641834E+03  0.00000000000E+00 0. -1.
        -12    1    6    6    0    0  0.63933278245E+01 -0.23222522627E+02  0.10434537683E+03  0.10708929855E+03  0.00000000000E+00 0.  1.
</event>
<event>
12    1  0.1030140E-001  0.1791726E+03  0.7818608E-02  0.1169154E+00
         21   -1    0    0  503  502  0.00000000000E+00  0.00000000000E+00  0.26587092716E+03  0.26587092716E+03  0.00000000000E+00 0.  1.
         21   -1    0    0  501  503 -0.00000000000E+00 -0.00000000000E+00 -0.15469197288E+03  0.15469197288E+03  0.00000000000E+00 0.  1.
          6    2    1    2  501    0  0.36524277265E+02 -0.27554946509E+02 -0.44800784315E+02  0.18468874833E+03  0.17323257655E+03 0.  0.
         24    2    3    3    0    0  0.42435493805E+02  0.34683486798E+02 -0.57625570036E+02  0.12069554408E+03  0.90790928228E+02 0.  0.
         -6    2    1    2    0  502 -0.36524277265E+02  0.27554946509E+02  0.15597973859E+03  0.23587415171E+03  0.17091997743E+03 0.  0.
        -24    2    5    5    0    0 -0.67664711504E+02 -0.28907382812E+02  0.74708771697E+02  0.13202434989E+03  0.80217694005E+02 0.  0.
          5    1    3    3  501    0 -0.59112165402E+01 -0.62238433307E+02  0.12824785722E+02  0.63993204251E+02  0.47000000000E+01 0. -1.
        -11    1    4    4    0    0  0.34870656684E+02  0.43850546658E+02  0.56536414481E+01  0.56309828639E+02  0.00000000000E+00 0.  1.
         12    1    4    4    0    0  0.75648371209E+01 -0.91670598598E+01 -0.63279211484E+02  0.64385715444E+02  0.00000000000E+00 0. -1.
         -5    1    5    5    0  502  0.31140434239E+02  0.56462329321E+02  0.81270966897E+02  0.10384980182E+03  0.47000000000E+01 0.  1.
         13    1    6    6    0    0  0.14922553934E+02 -0.21174737860E+02  0.17707141444E+02  0.31378256762E+02  0.00000000000E+00 0. -1.
        -14    1    6    6    0    0 -0.82587265437E+02 -0.77326449519E+01  0.57001630253E+02  0.10064609313E+03  0.00000000000E+00 0.  1.
</event>
<event>
12    1  0.1030140E-001  0.2212849E+03  0.7818608E-02  0.1132960E+00
         21   -1    0    0  501  502  0.00000000000E+00  0.00000000000E+00  0.15248792004E+03  0.15248792004E+03  0.00000000000E+00 0. -1.
         21   -1    0    0  502  503 -0.00000000000E+00 -0.00000000000E+00 -0.39246072957E+03  0.39246072957E+03  0.00000000000E+00 0.  1.
         -6    2    1    2    0  503 -0.10717403302E+03  0.87500472660E+02 -0.23631887190E+03  0.32363356000E+03  0.17248033474E+03 0.  0.
        -24    2    3    3    0    0 -0.53677227690E+02  0.10099072706E+03 -0.85775661452E+02  0.16323018299E+03  0.78779799549E+02 0.  0.
          6    2    1    2  501    0  0.10717403302E+03 -0.87500472660E+02 -0.36539376325E+01  0.22131508962E+03  0.17269745673E+03 0.  0.
         24    2    5    5    0    0  0.10727292103E+03 -0.60243305717E+01  0.23396929302E+02  0.13533712203E+03  0.78898340629E+02 0.  0.
          5    1    5    5  501    0 -0.98888004996E-01 -0.81476142088E+02 -0.27050866934E+02  0.85977967587E+02  0.47000000000E+01 0. -1.
        -13    1    6    6    0    0 -0.10340259955E+02 -0.91389849096E+00  0.13735955592E+02  0.17217219939E+02  0.00000000000E+00 0.  1.
         14    1    6    6    0    0  0.11761318098E+03 -0.51104320807E+01  0.96609737097E+01  0.11811990209E+03  0.00000000000E+00 0. -1.
         -5    1    3    3    0  503 -0.53496805331E+02 -0.13490254396E+02 -0.15054321045E+03  0.16040337701E+03  0.47000000000E+01 0.  1.
         13    1    4    4    0    0  0.17356205209E+02  0.30470307805E+01 -0.76663390337E+01  0.19217049982E+02  0.00000000000E+00 0. -1.
        -14    1    4    4    0    0 -0.71033432899E+02  0.97943696276E+02 -0.78109322419E+02  0.14401313301E+03  0.00000000000E+00 0.  1.
</event>
<event>
12    1  0.1030140E-001  0.1745173E+03  0.7818608E-02  0.1173730E+00
         21   -1    0    0  503  502  0.00000000000E+00  0.00000000000E+00  0.33887224221E+02  0.33887224221E+02  0.00000000000E+00 0. -1.
         21   -1    0    0  501  503 -0.00000000000E+00 -0.00000000000E+00 -0.11952577589E+04  0.11952577589E+04  0.00000000000E+00 0. -1.
          6    2    1    2  501    0 -0.76239993216E+01 -0.18284644746E+02 -0.88957541994E+03  0.90614518437E+03  0.17135405976E+03 0.  0.
         24    2    3    3    0    0  0.16807940961E+02  0.51982699405E+02 -0.45557554741E+03  0.46579032892E+03  0.80167594467E+02 0.  0.
         -6    2    1    2    0  502  0.76239993216E+01  0.18284644746E+02 -0.27179511475E+03  0.32299979876E+03  0.17338924995E+03 0.  0.
        -24    2    5    5    0    0 -0.23716425761E+02  0.65984323449E+02 -0.11624429251E+03  0.15724205417E+03  0.79346885675E+02 0.  0.
          5    1    3    3  501    0 -0.24431940282E+02 -0.70267344151E+02 -0.43399987253E+03  0.44035485545E+03  0.47000000000E+01 0. -1.
        -13    1    4    4    0    0  0.34508517998E+02  0.31762905903E+02 -0.11556728796E+03  0.12472176255E+03  0.00000000000E+00 0.  1.
         14    1    4    4    0    0 -0.17700577037E+02  0.20219793502E+02 -0.34000825945E+03  0.34106856637E+03  0.00000000000E+00 0. -1.
         -5    1    5    5    0  502  0.31340425083E+02 -0.47699678703E+02 -0.15555082224E+03  0.16575774459E+03  0.47000000000E+01 0.  1.
         13    1    6    6    0    0  0.22066737754E+02  0.14696661354E+02 -0.57872202769E+01  0.27137145919E+02  0.00000000000E+00 0. -1.
        -14    1    6    6    0    0 -0.45783163516E+02  0.51287662095E+02 -0.11045707223E+03  0.13010490825E+03  0.00000000000E+00 0.  1.
</event>
<event>
12    1  0.1030140E-001  0.2317733E+03  0.7818608E-02  0.1125570E+00
         21   -1    0    0  503  502  0.00000000000E+00  0.00000000000E+00  0.84028219418E+02  0.84028219418E+02  0.00000000000E+00 0.  1.
         21   -1    0    0  501  503 -0.00000000000E+00 -0.00000000000E+00 -0.64128318595E+03  0.64128318595E+03  0.00000000000E+00 0.  1.
          6    2    1    2  501    0 -0.35841126344E+02  0.15094034190E+03 -0.24816977128E+03  0.33956899641E+03  0.17219551328E+03 0.  0.
         24    2    3    3    0    0 -0.47029336003E+02  0.82359062302E+02 -0.56755726683E+02  0.13587806775E+03  0.79037100126E+02 0.  0.
         -6    2    1    2    0  502  0.35841126344E+02 -0.15094034190E+03 -0.30908519524E+03  0.38574240896E+03  0.17086829723E+03 0.  0.
        -24    2    5    5    0    0 -0.42798207726E+02 -0.10906234985E+03 -0.19938344850E+03  0.24434059030E+03  0.78881441374E+02 0.  0.
          5    1    3    3  501    0  0.11188209658E+02  0.68581279595E+02 -0.19141404460E+03  0.20369092866E+03  0.47000000000E+01 0. -1.
        -11    1    4    4    0    0 -0.39017284016E+02  0.66419262374E+02 -0.76984857125E+02  0.10890608382E+03  0.00000000000E+00 0.  1.
         12    1    4    4    0    0 -0.80120519870E+01  0.15939799928E+02  0.20229130442E+02  0.26971983932E+02  0.00000000000E+00 0. -1.
         -5    1    5    5    0  502  0.78639334070E+02 -0.41877992052E+02 -0.10970174675E+03  0.14140181866E+03  0.47000000000E+01 0.  1.
         11    1    6    6    0    0 -0.56414717562E+02 -0.10561934038E+03 -0.19633506079E+03  0.22996852288E+03  0.00000000000E+00 0. -1.
        -12    1    6    6    0    0  0.13616509835E+02 -0.34430094652E+01 -0.30483877105E+01  0.14372067419E+02  0.00000000000E+00 0.  1.
</event>
<event>
12    1  0.1030140E-001  0.1979338E+03  0.7818608E-02  0.1151552E+00
         21   -1    0    0  501  502  0.00000000000E+00  0.00000000000E+00  0.72745195383E+02  0.72745195383E+02  0.00000000000E+00 0. -1.
         21   -1    0    0  502  503 -0.00000000000E+00 -0.00000000000E+00 -0.13594725598E+04  0.13594725598E+04  0.00000000000E+00 0. -1.
         -6    2    1    2    0  503 -0.89473875954E+02 -0.37836553538E+02 -0.12002568285E+04  0.12164679339E+04  0.17245463362E+03 0.  0.
        -24    2    3    3    0    0  0.33804752385E+01 -0.43280164687E+02 -0.82223125152E+03  0.82713903661E+03  0.78804534385E+02 0.  0.
          6    2    1    2  501    0  0.89473875954E+02  0.37836553538E+02 -0.86470535899E+02  0.21574982123E+03  0.17214427822E+03 0.  0.
         24    2    5    5    0    0  0.86867816274E+02  0.10636680836E+00 -0.11691899822E+03  0.16696911403E+03  0.81624776124E+02 0.  0.
          5    1    5    5  501    0  0.26060596798E+01  0.37730186730E+02  0.30448462320E+02  0.48780707204E+02  0.47000000000E+01 0. -1.
        -13    1    6    6    0    0 -0.17754032681E+01  0.46959773823E+01 -0.62819717217E+02  0.63020005804E+02  0.00000000000E+00 0.  1.
         14    1    6    6    0    0  0.88643219542E+02 -0.45896105739E+01 -0.54099281002E+02  0.10394910823E+03  0.00000000000E+00 0. -1.
         -5    1    3    3    0  503 -0.92854351192E+02  0.54436111491E+01 -0.37802557699E+03  0.38932889733E+03  0.47000000000E+01 0.  1.
         11    1    4    4    0    0 -0.23162634844E+02 -0.44061256087E+02 -0.28965714811E+03  0.29390332661E+03  0.00000000000E+00 0. -1.
        -12    1    4    4    0    0  0.26543110083E+02  0.78109140004E+00 -0.53257410341E+03  0.53323571000E+03  0.00000000000E+00 0.  1.
</event>
<event>
12    1  0.1030140E-001  0.2641038E+03  0.7818608E-02  0.1104800E+00
         21   -1    0    0  501  502  0.00000000000E+00  0.00000000000E+00  0.18294615105E+03  0.18294615105E+03  0.00000000000E+00 0. -1.
         21   -1    0    0  502  503 -0.00000000000E+00 -0.00000000000E+00 -0.38266786463E+03  0.38266786463E+03  0.00000000000E+00 0.  1.
         -6    2    1    2    0  503 -0.31096360971E+02  0.19782945640E+03 -0.12193577856E+03  0.29029335996E+03  0.17116782192E+03 0.  0.
        -24    2    3    3    0    0 -0.15753892919E+02  0.23041655122E+02 -0.23435725484E+02  0.89021113349E+02  0.81218362332E+02 0.  0.
          6    2    1    2  501    0  0.31096360971E+02 -0.19782945640E+03 -0.77785935020E+02  0.27532065572E+03  0.17218401289E+03 0.  0.
         24    2    5    5    0    0  0.59653305825E+02 -0.81095948266E+02  0.17031454876E+01  0.13115819548E+03  0.84050590821E+02 0.  0.
          5    1    5    5  501    0 -0.28556944853E+02 -0.11673350813E+03 -0.79489080508E+02  0.14416246023E+03  0.47000000000E+01 0. -1.
        -13    1    6    6    0    0 -0.19190677068E+02 -0.52856836920E+01  0.83334478819E+01  0.21579316301E+02  0.00000000000E+00 0.  1.
         14    1    6    6    0    0  0.78843982893E+02 -0.75810264574E+02 -0.66303023943E+01  0.10957887918E+03  0.00000000000E+00 0. -1.
         -5    1    3    3    0  503 -0.15342468052E+02  0.17478780128E+03 -0.98500053071E+02  0.20127224661E+03  0.47000000000E+01 0.  1.
         11    1    4    4    0    0  0.26016557296E+02  0.30799398623E+02  0.37525856458E+00  0.40318792492E+02  0.00000000000E+00 0. -1.
        -12    1    4    4    0    0 -0.41770450215E+02 -0.77577435002E+01 -0.23810984049E+02  0.48702320856E+02  0.00000000000E+00 0.  1.
</event>
<event>
12    1  0.1030140E-001  0.4263533E+03  0.7818608E-02  0.1035151E+00
         21   -1    0    0  501  502  0.00000000000E+00  0.00000000000E+00  0.14611452416E+03  0.14611452416E+03  0.00000000000E+00 0. -1.
         21   -1    0    0  502  503 -0.00000000000E+00 -0.00000000000E+00 -0.16182125702E+04  0.16182125702E+04  0.00000000000E+00 0.  1.
         -6    2    1    2    0  503  0.34975091915E+03 -0.17075000475E+03 -0.11640748910E+04  0.12396965360E+04  0.17405711713E+03 0.  0.
        -24    2    3    3    0    0  0.25158555853E+03 -0.65235303349E+02 -0.62785050883E+03  0.68442320849E+03  0.81779758061E+02 0.  0.
          6    2    1    2  501    0 -0.34975091915E+03  0.17075000475E+03 -0.30802315502E+03  0.52463055831E+03  0.16993436707E+03 0.  0.
         24    2    5    5    0    0 -0.17188887894E+03  0.15248863834E+03 -0.17011886095E+03  0.29878090218E+03  0.86781502221E+02 0.  0.
          5    1    5    5  501    0 -0.17786204021E+03  0.18261366406E+02 -0.13790429407E+03  0.22584965613E+03  0.47000000000E+01 0. -1.
        -13    1    6    6    0    0 -0.32611130741E+02 -0.75323072815E+01 -0.22393736969E+02  0.40270348355E+02  0.00000000000E+00 0.  1.
         14    1    6    6    0    0 -0.13927774820E+03  0.16002094563E+03 -0.14772512398E+03  0.25851055382E+03  0.00000000000E+00 0. -1.
         -5    1    3    3    0  503  0.98165360621E+02 -0.10551470140E+03 -0.53622438217E+03  0.55527332754E+03  0.47000000000E+01 0.  1.
         13    1    4    4    0    0  0.13997982773E+03 -0.76417061699E+02 -0.39445712774E+03  0.42547660937E+03  0.00000000000E+00 0. -1.
        -14    1    4    4    0    0  0.11160573079E+03  0.11181758350E+02 -0.23339338109E+03  0.25894659913E+03  0.00000000000E+00 0.  1.
</event>
<event>
12    1  0.1030140E-001  0.3081282E+03  0.7818608E-02  0.1081493E+00
         21   -1    0    0  501  502  0.00000000000E+00  0.00000000000E+00  0.20248589856E+03  0.20248589856E+03  0.00000000000E+00 0. -1.
         21   -1    0    0  502  503 -0.00000000000E+00 -0.00000000000E+00 -0.48802723808E+03  0.48802723808E+03  0.00000000000E+00 0. -1.
         -6    2    1    2    0  503  0.21352031739E+03 -0.13865008447E+03 -0.69535662944E+02  0.31587686804E+03  0.17357481234E+03 0.  0.
        -24    2    3    3    0    0  0.17818947736E+03 -0.14428235684E+03 -0.10554115270E+03  0.26490161873E+03  0.80405499541E+02 0.  0.
          6    2    1    2  501    0 -0.21352031739E+03  0.13865008447E+03 -0.21600567658E+03  0.37463626860E+03  0.16993854647E+03 0.  0.
         24    2    5    5    0    0 -0.15937649435E+03  0.77835941966E+02 -0.68896899257E+02  0.20643104910E+03  0.80048076136E+02 0.  0.
          5    1    5    5  501    0 -0.54143823040E+02  0.60814142509E+02 -0.14710877732E+03  0.16820521950E+03  0.47000000000E+01 0. -1.
        -11    1    6    6    0    0 -0.67453645693E+02  0.90927505779E+01 -0.60961560652E+02  0.91372776621E+02  0.00000000000E+00 0.  1.
         12    1    6    6    0    0 -0.91922848659E+02  0.68743191388E+02 -0.79353386049E+01  0.11505827248E+03  0.00000000000E+00 0. -1.
         -5    1    3    3    0  503  0.35330840033E+02  0.56322723642E+01  0.36005489758E+02  0.50975249309E+02  0.47000000000E+01 0.  1.
         11    1    4    4    0    0  0.24331788739E+02 -0.44482806305E+02  0.47110922887E+01  0.50921021107E+02  0.00000000000E+00 0. -1.
        -12    1    4    4    0    0  0.15385768862E+03 -0.99799550534E+02 -0.11025224499E+03  0.21398059762E+03  0.00000000000E+00 0.  1.
</event>
<event>
12    1  0.1030140E-001  0.2159259E+03  0.7818608E-02  0.1136968E+00
         21   -1    0    0  503  502  0.00000000000E+00  0.00000000000E+00  0.14849190990E+03  0.14849190990E+03  0.00000000000E+00 0. -1.
         21   -1    0    0  501  503 -0.00000000000E+00 -0.00000000000E+00 -0.58537659941E+03  0.58537659941E+03  0.00000000000E+00 0. -1.
          6    2    1    2  501    0 -0.12966311188E+03  0.17082054555E+02 -0.46833739197E+03  0.51571687920E+03  0.17181288544E+03 0.  0.
         24    2    3    3    0    0 -0.87994576840E+02 -0.19372338859E+02 -0.14714187940E+03  0.18975087345E+03  0.78970426323E+02 0.  0.
         -6    2    1    2    0  502  0.12966311188E+03 -0.17082054555E+02  0.31452702458E+02  0.21815163011E+03  0.17174557362E+03 0.  0.
        -24    2    5    5    0    0  0.77481863656E+02 -0.73260904518E+02  0.43719970761E+02  0.14036010280E+03  0.80118183256E+02 0.  0.
          5    1    3    3  501    0 -0.41668535041E+02  0.36454393414E+02 -0.32119551257E+03  0.32596600575E+03  0.47000000000E+01 0. -1.
        -13    1    4    4    0    0  0.25484014211E-01  0.56883750040E+01 -0.69507157797E+02  0.69739538604E+02  0.00000000000E+00 0.  1.
         14    1    4    4    0    0 -0.88020060854E+02 -0.25060713863E+02 -0.77634721605E+02  0.12001133484E+03  0.00000000000E+00 0. -1.
         -5    1    5    5    0  502  0.52181248224E+02  0.56178849963E+02 -0.12267268303E+02  0.77791527309E+02  0.47000000000E+01 0.  1.
         13    1    6    6    0    0  0.37630770456E+02  0.10845088581E+02  0.47056036773E+01  0.39444055793E+02  0.00000000000E+00 0. -1.
        -14    1    6    6    0    0  0.39851093200E+02 -0.84105993099E+02  0.39014367084E+02  0.10091604701E+03  0.00000000000E+00 0.  1.
</event>
<event>
12    1  0.1030140E-001  0.2651491E+03  0.7818608E-02  0.1104221E+00
         21   -1    0    0  501  502  0.00000000000E+00  0.00000000000E+00  0.19285938395E+04  0.19285938395E+04  0.00000000000E+00 0. -1.
         21   -1    0    0  502  503 -0.00000000000E+00 -0.00000000000E+00 -0.87608426434E+02  0.87608426434E+02  0.00000000000E+00 0. -1.
         -6    2    1    2    0  503 -0.11202563404E+03  0.16634685284E+03  0.14858065503E+03  0.30315296063E+03  0.17205954886E+03 0.  0.
        -24    2    3    3    0    0 -0.11128340084E+02  0.85786837348E+02  0.12886839154E+03  0.17245926010E+03  0.75179203517E+02 0.  0.
          6    2    1    2  501    0  0.11202563404E+03 -0.16634685284E+03  0.16924047580E+04  0.17130493053E+04  0.17344462880E+03 0.  0.
         24    2    5    5    0    0  0.97664520601E+00 -0.56042121062E+02  0.44978167944E+03  0.46059842114E+03  0.81888175183E+02 0.  0.
          5    1    5    5  501    0  0.11104898883E+03 -0.11030473178E+03  0.12426230786E+04  0.12524508841E+04  0.47000000000E+01 0. -1.
        -11    1    6    6    0    0 -0.25787063331E+02 -0.60509870910E+02  0.23236716415E+03  0.24149723826E+03  0.00000000000E+00 0.  1.
         12    1    6    6    0    0  0.26763708537E+02  0.44677498478E+01  0.21741451529E+03  0.21910118289E+03  0.00000000000E+00 0. -1.
         -5    1    3    3    0  503 -0.10089729396E+03  0.80560015496E+02  0.19712263487E+02  0.13069370052E+03  0.47000000000E+01 0.  1.
         13    1    4    4    0    0 -0.25471073158E+01  0.45993869519E+02  0.10443760168E+02  0.47233419476E+02  0.00000000000E+00 0. -1.
        -14    1    4    4    0    0 -0.85812327679E+01  0.39792967829E+02  0.11842463138E+03  0.12522584063E+03  0.00000000000E+00 0.  1.
</event>
<event>
12    1  0.1030140E-001  0.1838920E+03  0.7818608E-02  0.1164143E+00
         21   -1    0    0  501  502  0.00000000000E+00  0.00000000000E+00  0.48439483852E+02  0.48439483852E+02  0.00000000000E+00 0.  1.
         21   -1    0    0  502  503 -0.00000000000E+00 -0.00000000000E+00 -0.73048959846E+03  0.73048959846E+03  0.00000000000E+00 0.  1.
         -6    2    1    2    0  503  0.94641439784E+01  0.63910029281E+02 -0.42431212487E+03  0.46244680603E+03  0.17216912392E+03 0.  0.
        -24    2    3    3    0    0 -0.34501809745E+02 -0.13351532071E+02 -0.27570295072E+03  0.28921536953E+03  0.79150329463E+02 0.  0.
          6    2    1    2  501    0 -0.94641439784E+01 -0.63910029281E+02 -0.25773798974E+03  0.31648227628E+03  0.17192468695E+03 0.  0.
         24    2    5    5    0    0 -0.31265593870E+02  0.24708853909E+02 -0.15884287700E+03  0.18183108617E+03  0.79015311823E+02 0.  0.
          5    1    5    5  501    0  0.21801449892E+02 -0.88618883189E+02 -0.98895112743E+02  0.13465119012E+03  0.47000000000E+01 0. -1.
        -11    1    6    6    0    0 -0.20495727820E+02 -0.16520811008E+02 -0.12406637988E+03  0.12682854045E+03  0.00000000000E+00 0.  1.
         12    1    6    6    0    0 -0.10769866050E+02  0.41229664917E+02 -0.34776497113E+02  0.55002545716E+02  0.00000000000E+00 0. -1.
         -5    1    3    3    0  503  0.43965953723E+02  0.77261561352E+02 -0.14860917415E+03  0.17323143649E+03  0.47000000000E+01 0.  1.
         11    1    4    4    0    0 -0.30103260150E+02  0.24908069110E+00 -0.28039581860E+02  0.41139840347E+02  0.00000000000E+00 0. -1.
        -12    1    4    4    0    0 -0.43985495945E+01 -0.13600612762E+02 -0.24766336886E+03  0.24807552919E+03  0.00000000000E+00 0.  1.
</event>
<event>
12    1  0.1030140E-001  0.1845540E+03  0.7818608E-02  0.1164077E+00
         21   -1    0    0  501  502  0.00000000000E+00  0.00000000000E+00  0.14018951329E+03  0.14018951329E+03  0.00000000000E+00 0. -1.
         21   -1    0    0  502  503 -0.00000000000E+00 -0.00000000000E+00 -0.24212484523E+03  0.24212484523E+03  0.00000000000E+00 0. -1.
         -6    2    1    2    0  503  0.21524475640E+02  0.60904849810E+02 -0.31671625282E+02  0.18725192879E+03  0.17287998497E+03 0.  0.
        -24    2    3    3    0    0  0.72949991488E+02  0.69683382446E+02 -0.29521622909E+02  0.13482713670E+03  0.84435511033E+02 0.  0.
          6    2    1    2  501    0 -0.21524475640E+02 -0.60904849810E+02 -0.70263706655E+02  0.19506242974E+03  0.17011660484E+03 0.  0.
         24    2    5    5    0    0  0.52938187865E+02 -0.33496298460E+02 -0.24453425779E+02  0.10332046128E+03  0.78439109768E+02 0.  0.
          5    1    5    5  501    0 -0.74462663505E+02 -0.27408551350E+02 -0.45810280876E+02  0.91741968462E+02  0.47000000000E+01 0. -1.
        -13    1    6    6    0    0  0.43463257403E+01  0.14855998010E+02 -0.30806578042E+02  0.34476607649E+02  0.00000000000E+00 0.  1.
         14    1    6    6    0    0  0.48591862125E+02 -0.48352296470E+02  0.63531522637E+01  0.68843853628E+02  0.00000000000E+00 0. -1.
         -5    1    3    3    0  503 -0.51425515848E+02 -0.87785326366E+01 -0.21500023733E+01  0.52424792090E+02  0.47000000000E+01 0.  1.
         11    1    4    4    0    0  0.68449470170E+02  0.62659761814E+02  0.11006875673E+02  0.93449061147E+02  0.00000000000E+00 0. -1.
        -12    1    4    4    0    0  0.45005213178E+01  0.70236206326E+01 -0.40528498582E+02  0.41378075550E+02  0.00000000000E+00 0.  1.
</event>
<event>
12    1  0.1030140E-001  0.2097458E+03  0.7818608E-02  0.1141924E+00
         21   -1    0    0  501  502  0.00000000000E+00  0.00000000000E+00  0.34325838166E+02  0.34325838166E+02  0.00000000000E+00 0. -1.
         21   -1    0    0  502  503 -0.00000000000E+00 -0.00000000000E+00 -0.14388625409E+04  0.14388625409E+04  0.00000000000E+00 0. -1.
         -6    2    1    2    0  503 -0.86735728601E+02 -0.82279499196E+02 -0.95064194509E+03  0.97350574095E+03  0.17233779996E+03 0.  0.
        -24    2    3    3    0    0 -0.18450801553E+02 -0.10472376303E+03 -0.69548007023E+03  0.70837134367E+03  0.82401054722E+02 0.  0.
          6    2    1    2  501    0  0.86735728601E+02  0.82279499196E+02 -0.45389475761E+03  0.49968263808E+03  0.17137469245E+03 0.  0.
         24    2    5    5    0    0  0.40074389649E+01  0.85604559026E+02 -0.33501656520E+03  0.35473733612E+03  0.79109282572E+02 0.  0.
          5    1    5    5  501    0  0.82728289636E+02 -0.33250598296E+01 -0.11887819241E+03  0.14494530196E+03  0.47000000000E+01 0. -1.
        -11    1    6    6    0    0 -0.92735319298E+01  0.65195607942E+02 -0.31868577481E+03  0.32541832886E+03  0.00000000000E+00 0.  1.
         12    1    6    6    0    0  0.13280970895E+02  0.20408951084E+02 -0.16330790383E+02  0.29319007262E+02  0.00000000000E+00 0. -1.
         -5    1    3    3    0  503 -0.68284927048E+02  0.22444263833E+02 -0.25516187486E+03  0.26513439728E+03  0.47000000000E+01 0.  1.
         13    1    4    4    0    0 -0.31378938024E+02 -0.24887726900E+01 -0.16300491847E+03  0.16601637024E+03  0.00000000000E+00 0. -1.
        -14    1    4    4    0    0  0.12928136471E+02 -0.10223499034E+03 -0.53247515176E+03  0.54235497343E+03  0.00000000000E+00 0.  1.
</event>
<event>
12    1  0.1030140E-001  0.1997709E+03  0.7818608E-02  0.1150005E+00
         21   -1    0    0  501  502  0.00000000000E+00  0.00000000000E+00  0.43306214690E+03  0.43306214690E+03  0.00000000000E+00 0.  1.
         21   -1    0    0  502  503 -0.00000000000E+00 -0.00000000000E+00 -0.13707058582E+03  0.13707058582E+03  0.00000000000E+00 0.  1.
         -6    2    1    2    0  503 -0.24106949181E+02 -0.98660013334E+02 -0.15561888605E+02  0.20003278900E+03  0.17162750674E+03 0.  0.
        -24    2    3    3    0    0 -0.64660569628E+02 -0.15018119146E+02  0.25582431480E+01  0.10521194863E+03  0.81587231593E+02 0.  0.
          6    2    1    2  501    0  0.24106949181E+02  0.98660013334E+02  0.31155344969E+03  0.37009994372E+03  0.17202753586E+03 0.  0.
         24    2    5    5    0    0  0.72906905713E+02  0.96875017206E+02  0.26775896761E+03  0.30433773094E+03  0.78907565404E+02 0.  0.
          5    1    5    5  501    0 -0.48799956532E+02  0.17849961282E+01  0.43794482080E+02  0.65762212777E+02  0.47000000000E+01 0. -1.
        -13    1    6    6    0    0  0.20474447983E+02  0.76869641727E+02  0.10210249005E+03  0.12943362513E+03  0.00000000000E+00 0.  1.
         14    1    6    6    0    0  0.52432457730E+02  0.20005375479E+02  0.16565647756E+03  0.17490410581E+03  0.00000000000E+00 0. -1.
         -5    1    3    3    0  503  0.40553620447E+02 -0.83641894188E+02 -0.18120131753E+02  0.94820840376E+02  0.47000000000E+01 0.  1.
         13    1    4    4    0    0 -0.73269095867E+02 -0.12929196531E+02 -0.23231114453E+02  0.77943628417E+02  0.00000000000E+00 0. -1.
        -14    1    4    4    0    0  0.86085262389E+01 -0.20889226150E+01  0.25789357601E+02  0.27268320212E+02  0.00000000000E+00 0.  1.
</event>
<event>
12    1  0.1030140E-001  0.1749364E+03  0.7818608E-02  0.1172894E+00
         21   -1    0    0  501  502  0.00000000000E+00  0.00000000000E+00  0.14198492566E+02  0.14198492566E+02  0.00000000000E+00 0. -1.
         21   -1    0    0  502  503 -0.00000000000E+00 -0.00000000000E+00 -0.21537618154E+04  0.21537618154E+04  0.00000000000E+00 0. -1.
         -6    2    1    2    0  503 -0.31049562281E+02 -0.42637506544E+01 -0.11105825266E+04  0.11242150232E+04  0.17170793548E+03 0.  0.
        -24    2    3    3    0    0 -0.76763168646E+02 -0.23014857219E+02 -0.55575172905E+03  0.56716866811E+03  0.79987786771E+02 0.  0.
          6    2    1    2  501    0  0.31049562281E+02  0.42637506544E+01 -0.10289807962E+04  0.10437452848E+04  0.17210603002E+03 0.  0.
         24    2    5    5    0    0  0.57336667045E+02  0.62821453671E+02 -0.63927723372E+03  0.64876304074E+03  0.70597967755E+02 0.  0.
          5    1    5    5  501    0 -0.26287104764E+02 -0.58557703017E+02 -0.38970356250E+03  0.39498224402E+03  0.47000000000E+01 0. -1.
        -11    1    6    6    0    0 -0.69922179975E+01  0.42494725485E+02 -0.24594844594E+03  0.24969047012E+03  0.00000000000E+00 0.  1.
         12    1    6    6    0    0  0.64328885042E+02  0.20326728186E+02 -0.39332878778E+03  0.39907257062E+03  0.00000000000E+00 0. -1.
         -5    1    3    3    0  503  0.45713606365E+02  0.18751106564E+02 -0.55483079758E+03  0.55704635512E+03  0.47000000000E+01 0.  1.
         11    1    4    4    0    0  0.35947471416E+01  0.14782907588E+02 -0.19710536002E+03  0.19769162732E+03  0.00000000000E+00 0. -1.
        -12    1    4    4    0    0 -0.80357915788E+02 -0.37797764806E+02 -0.35864636902E+03  0.36947704079E+03  0.00000000000E+00 0.  1.
</event>
<event>
12    1  0.1030140E-001  0.1800577E+03  0.7818608E-02  0.1167858E+00
         21   -1    0    0  503  502  0.00000000000E+00  0.00000000000E+00  0.10713848413E+03  0.10713848413E+03  0.00000000000E+00 0. -1.
         21   -1    0    0  501  503 -0.00000000000E+00 -0.00000000000E+00 -0.43673649091E+03  0.43673649091E+03  0.00000000000E+00 0. -1.
          6    2    1    2  501    0  0.29296456314E+02 -0.38122677089E+02 -0.31607714113E+03  0.36376576581E+03  0.17351989043E+03 0.  0.
         24    2    3    3    0    0  0.29827652470E+01 -0.90949514281E+02 -0.20081048646E+03  0.23418344934E+03  0.78970408601E+02 0.  0.
         -6    2    1    2    0  502 -0.29296456314E+02  0.38122677089E+02 -0.13520865649E+02  0.18010920922E+03  0.17304592621E+03 0.  0.
        -24    2    5    5    0    0  0.29847841323E+02 -0.26774004123E+02 -0.32597868732E+02  0.90133383461E+02  0.73848932557E+02 0.  0.
          5    1    3    3  501    0  0.26313691067E+02  0.52826837192E+02 -0.11526665467E+03  0.12958231647E+03  0.47000000000E+01 0. -1.
        -11    1    4    4    0    0  0.38855983543E+02 -0.40767726141E+02 -0.72402070054E+02  0.91727066343E+02  0.00000000000E+00 0.  1.
         12    1    4    4    0    0 -0.35873218296E+02 -0.50181788139E+02 -0.12840841641E+03  0.14245638300E+03  0.00000000000E+00 0. -1.
         -5    1    5    5    0  502 -0.59144297637E+02  0.64896681212E+02  0.19077003082E+02  0.89975825764E+02  0.47000000000E+01 0.  1.
         13    1    6    6    0    0  0.51658107638E+02 -0.32862735551E+02 -0.21276663623E+02  0.64816787081E+02  0.00000000000E+00 0. -1.
        -14    1    6    6    0    0 -0.21810266314E+02  0.60887314282E+01 -0.11321205109E+02  0.25316596379E+02  0.00000000000E+00 0.  1.
</event>
<event>
12    1  0.1030140E-001  0.2334961E+03  0.7818608E-02  0.1124501E+00
         21   -1    0    0  503  502  0.00000000000E+00  0.00000000000E+00  0.93677662377E+02  0.93677662377E+02  0.00000000000E+00 0. -1.
         21   -1    0    0  501  503 -0.00000000000E+00 -0.00000000000E+00 -0.92444154952E+03  0.92444154952E+03  0.00000000000E+00 0.  1.
          6    2    1    2  501    0 -0.15498218379E+03  0.34723007478E+02 -0.72809523859E+03  0.76461958599E+03  0.17115861148E+03 0.  0.
         24    2    3    3    0    0 -0.50278296077E+02  0.75128261844E+02 -0.34525484532E+03  0.36564045696E+03  0.79497627425E+02 0.  0.
         -6    2    1    2    0  502  0.15498218379E+03 -0.34723007478E+02 -0.10266864855E+03  0.25349962590E+03  0.16880771427E+03 0.  0.
        -24    2    5    5    0    0  0.62488191909E+02 -0.76245609852E+02 -0.74276760707E+02  0.14810771759E+03  0.81857752712E+02 0.  0.
          5    1    3    3  501    0 -0.10470388772E+03 -0.40405254366E+02 -0.38284039327E+03  0.39897912903E+03  0.47000000000E+01 0. -1.
        -11    1    4    4    0    0 -0.64384655333E+02  0.29450327326E+02 -0.23582451531E+03  0.24622328818E+03  0.00000000000E+00 0.  1.
         12    1    4    4    0    0  0.14106359256E+02  0.45677934517E+02 -0.10943033001E+03  0.11941716878E+03  0.00000000000E+00 0. -1.
         -5    1    5    5    0  502  0.92493991884E+02  0.41522602374E+02 -0.28391887847E+02  0.10539190831E+03  0.47000000000E+01 0.  1.
         11    1    6    6    0    0  0.13539570719E+02 -0.19969912872E+02  0.17529516179E+02  0.29822832408E+02  0.00000000000E+00 0. -1.
        -12    1    6    6    0    0  0.48948621190E+02 -0.56275696979E+02 -0.91806276886E+02  0.11828488518E+03  0.00000000000E+00 0.  1.
</event>
<event>
12    1  0.1030140E-001  0.2335495E+03  0.7818608E-02  0.1124852E+00
         21   -1    0    0  501  502  0.00000000000E+00  0.00000000000E+00  0.65350800102E+03  0.65350800102E+03  0.00000000000E+00 0.  1.
         21   -1    0    0  502  503 -0.00000000000E+00 -0.00000000000E+00 -0.10961245285E+03  0.10961245285E+03  0.00000000000E+00 0.  1.
         -6    2    1    2    0  503  0.11740163538E+03  0.90535431062E+02  0.82399145105E+02  0.24765903816E+03  0.18045933558E+03 0.  0.
        -24    2    3    3    0    0  0.10279240415E+03 -0.56790804428E+01  0.18686498151E+02  0.13124575179E+03  0.79232138956E+02 0.  0.
          6    2    1    2  501    0 -0.11740163538E+03 -0.90535431062E+02  0.46149640306E+03  0.51546141572E+03  0.17533320503E+03 0.  0.
         24    2    5    5    0    0 -0.12412850759E+03 -0.12556661505E+03  0.39111162247E+03  0.43641369595E+03  0.79459118861E+02 0.  0.
          5    1    5    5  501    0  0.67268722021E+01  0.35031183991E+02  0.70384780596E+02  0.79047719770E+02  0.47000000000E+01 0. -1.
        -13    1    6    6    0    0 -0.46420640394E+02 -0.11690566098E+01  0.81035321977E+02  0.93396819838E+02  0.00000000000E+00 0.  1.
         14    1    6    6    0    0 -0.77707867191E+02 -0.12439755844E+03  0.31007630049E+03  0.34301687611E+03  0.00000000000E+00 0. -1.
         -5    1    3    3    0  503  0.14609231233E+02  0.96214511505E+02  0.63712646954E+02  0.11641328637E+03  0.47000000000E+01 0.  1.
         11    1    4    4    0    0  0.38769434225E+02  0.26090966393E+02 -0.19000274159E+02  0.50446188911E+02  0.00000000000E+00 0. -1.
        -12    1    4    4    0    0  0.64022969925E+02 -0.31770046836E+02  0.37686772311E+02  0.80799562878E+02  0.00000000000E+00 0.  1.
</event>
<event>
12    1  0.1030140E-001  0.2836043E+03  0.7818608E-02  0.1093846E+00
         21   -1    0    0  503  502  0.00000000000E+00  0.00000000000E+00  0.29726230309E+03  0.29726230309E+03  0.00000000000E+00 0.  1.
         21   -1    0    0  501  503 -0.00000000000E+00 -0.00000000000E+00 -0.48951575555E+03  0.48951575555E+03  0.00000000000E+00 0. -1.
          6    2    1    2  501    0  0.22402055968E+03 -0.18319248001E+02 -0.35975998779E+03  0.45810328479E+03  0.17294671063E+03 0.  0.
         24    2    3    3    0    0  0.46537614304E+02  0.29481201628E+02 -0.15993714830E+03  0.18655893103E+03  0.78673073813E+02 0.  0.
         -6    2    1    2    0  502 -0.22402055968E+03  0.18319248001E+02  0.16750653533E+03  0.32867477384E+03  0.17160379243E+03 0.  0.
        -24    2    5    5    0    0 -0.77527337333E+02 -0.40192436240E+02  0.38280005275E+02  0.12470059053E+03  0.80367645920E+02 0.  0.
          5    1    3    3  501    0  0.17748294537E+03 -0.47800449629E+02 -0.19982283949E+03  0.27154435377E+03  0.47000000000E+01 0. -1.
        -13    1    4    4    0    0 -0.16620083922E+02  0.10361943144E+02 -0.84641589574E+01  0.21336331507E+02  0.00000000000E+00 0.  1.
         14    1    4    4    0    0  0.63157698226E+02  0.19119258484E+02 -0.15147298935E+03  0.16522259952E+03  0.00000000000E+00 0. -1.
         -5    1    5    5    0  502 -0.14649322234E+03  0.58511684241E+02  0.12922653006E+03  0.20397418331E+03  0.47000000000E+01 0.  1.
         11    1    6    6    0    0 -0.13870598339E+02 -0.19879587028E+02 -0.23453412373E+02  0.33729127333E+02  0.00000000000E+00 0. -1.
        -12    1    6    6    0    0 -0.63656738994E+02 -0.20312849212E+02  0.61733417648E+02  0.90971463201E+02  0.00000000000E+00 0.  1.
</event>
<event>
12    1  0.1030140E-001  0.1817463E+03  0.7818608E-02  0.1166777E+00
         21   -1    0    0  503  502  0.00000000000E+00  0.00000000000E+00  0.29605996244E+03  0.29605996244E+03  0.00000000000E+00 0. -1.
         21   -1    0    0  501  503 -0.00000000000E+00 -0.00000000000E+00 -0.12222815830E+03  0.12222815830E+03  0.00000000000E+00 0. -1.
          6    2    1    2  501    0 -0.32032618767E+02 -0.40959577217E+02  0.19942870275E+02  0.18014208719E+03  0.17131747684E+03 0.  0.
         24    2    3    3    0    0 -0.13729190449E+02  0.36097072555E+02 -0.22240540877E+02  0.90285128975E+02  0.78519255843E+02 0.  0.
         -6    2    1    2    0  502  0.32032618767E+02  0.40959577217E+02  0.15388893386E+03  0.23814603355E+03  0.17414922826E+03 0.  0.
        -24    2    5    5    0    0 -0.25288640775E+01  0.72904494272E+02  0.41609588434E+02  0.11631124693E+03  0.80470416145E+02 0.  0.
          5    1    3    3  501    0 -0.18303428318E+02 -0.77056649773E+02  0.42183411152E+02  0.89856958210E+02  0.47000000000E+01 0. -1.
        -11    1    4    4    0    0  0.26937128807E+02  0.33944241407E+02 -0.23976901020E+02  0.49524864620E+02  0.00000000000E+00 0.  1.
         12    1    4    4    0    0 -0.40666319256E+02  0.21528311486E+01  0.17363601437E+01  0.40760264356E+02  0.00000000000E+00 0. -1.
         -5    1    5    5    0  502  0.34561482844E+02 -0.31944917054E+02  0.11227934543E+03  0.12183478662E+03  0.47000000000E+01 0.  1.
         13    1    6    6    0    0 -0.32345362837E+02  0.67190708679E+02  0.42703431586E+02  0.85932513631E+02  0.00000000000E+00 0. -1.
        -14    1    6    6    0    0  0.29816498760E+02  0.57137855928E+01 -0.10938431521E+01  0.30378733300E+02  0.00000000000E+00 0.  1.
</event>
<event>
12    1  0.1030140E-001  0.1972458E+03  0.7818608E-02  0.1152118E+00
         21   -1    0    0  503  502  0.00000000000E+00  0.00000000000E+00  0.26764956401E+03  0.26764956401E+03  0.00000000000E+00 0. -1.
         21   -1    0    0  501  503 -0.00000000000E+00 -0.00000000000E+00 -0.35639125656E+03  0.35639125656E+03  0.00000000000E+00 0.  1.
          6    2    1    2  501    0  0.95504687410E+02 -0.11959980154E+02 -0.28454409187E+03  0.34622429587E+03  0.17216775653E+03 0.  0.
         24    2    3    3    0    0  0.26666498740E+02  0.39890361702E+02 -0.22561198049E+03  0.24171478472E+03  0.72269829781E+02 0.  0.
         -6    2    1    2    0  502 -0.95504687410E+02  0.11959980154E+02  0.19580239933E+03  0.27781652470E+03  0.17198620691E+03 0.  0.
        -24    2    5    5    0    0 -0.57969711134E+02 -0.85032798573E+01  0.26014777316E+02  0.10266645749E+03  0.80192516340E+02 0.  0.
          5    1    3    3  501    0  0.68838188671E+02 -0.51850341856E+02 -0.58932111382E+02  0.10450951116E+03  0.47000000000E+01 0. -1.
        -11    1    4    4    0    0 -0.13194130404E+02  0.34820468559E+02 -0.16388181635E+03  0.16805891776E+03  0.00000000000E+00 0.  1.
         12    1    4    4    0    0  0.39860629144E+02  0.50698931436E+01 -0.61730164144E+02  0.73655866959E+02  0.00000000000E+00 0. -1.
         -5    1    5    5    0  502 -0.37534976277E+02  0.20463260011E+02  0.16978762202E+03  0.17515006721E+03  0.47000000000E+01 0.  1.
         11    1    6    6    0    0 -0.17878003341E+02 -0.29439624459E+01  0.51663604721E+02  0.54748680086E+02  0.00000000000E+00 0. -1.
        -12    1    6    6    0    0 -0.40091707793E+02 -0.55593174113E+01 -0.25648827405E+02  0.47917777401E+02  0.00000000000E+00 0.  1.
</event>
<event>
12    1  0.1030140E-001  0.1753491E+03  0.7818608E-02  0.1172887E+00
         21   -1    0    0  503  502  0.00000000000E+00  0.00000000000E+00  0.10373184248E+04  0.10373184248E+04  0.00000000000E+00 0.  1.
         21   -1    0    0  501  503 -0.00000000000E+00 -0.00000000000E+00 -0.13108159537E+03  0.13108159537E+03  0.00000000000E+00 0.  1.
          6    2    1    2  501    0 -0.14773707033E+02  0.23642884105E+01 -0.62239985143E+02  0.18417716295E+03  0.17269498928E+03 0.  0.
         24    2    3    3    0    0 -0.52819183639E+01  0.67337287513E+02 -0.57809407607E+02  0.11819758519E+03  0.77887948907E+02 0.  0.
         -6    2    1    2    0  502  0.14773707033E+02 -0.23642884105E+01  0.96847681462E+03  0.98422285727E+03  0.17470958771E+03 0.  0.
        -24    2    5    5    0    0 -0.24923146160E+02  0.26295628475E+02  0.27516183354E+03  0.28916531722E+03  0.81178339200E+02 0.  0.
          5    1    3    3  501    0 -0.94917886695E+01 -0.64972999103E+02 -0.44305775361E+01  0.65979577764E+02  0.47000000000E+01 0. -1.
        -13    1    4    4    0    0 -0.35745324496E+02  0.13927982031E+02 -0.36964969502E+02  0.53274063831E+02  0.00000000000E+00 0.  1.
         14    1    4    4    0    0  0.30463406133E+02  0.53409305482E+02 -0.20844438105E+02  0.64923521355E+02  0.00000000000E+00 0. -1.
         -5    1    5    5    0  502  0.39696853193E+02 -0.28659916886E+02  0.69331498108E+03  0.69505754005E+03  0.47000000000E+01 0.  1.
         11    1    6    6    0    0 -0.24151335540E+02 -0.20996300313E+02  0.18082959479E+03  0.18363952185E+03  0.00000000000E+00 0. -1.
        -12    1    6    6    0    0 -0.77181062007E+00  0.47291928789E+02  0.94332238750E+02  0.10552579537E+03  0.00000000000E+00 0.  1.
</event>
<event>
12    1  0.1030140E-001  0.1803527E+03  0.7818608E-02  0.1167973E+00
         21   -1    0    0  503  502  0.00000000000E+00  0.00000000000E+00  0.34118932934E+02  0.34118932934E+02  0.00000000000E+00 0.  1.
         21   -1    0    0  501  503 -0.00000000000E+00 -0.00000000000E+00 -0.98492920932E+03  0.98492920932E+03  0.00000000000E+00 0.  1.
          6    2    1    2  501    0 -0.15198467353E+02  0.43191054486E+02 -0.57879598138E+03  0.60562133666E+03  0.17226710294E+03 0.  0.
         24    2    3    3    0    0 -0.21382428440E+02  0.25035440036E+01 -0.54839748859E+03  0.55424163981E+03  0.77333781964E+02 0.  0.
         -6    2    1    2    0  502  0.15198467353E+02 -0.43191054486E+02 -0.37201429501E+03  0.41342680560E+03  0.17444376543E+03 0.  0.
        -24    2    5    5    0    0 -0.33955016508E+02  0.96003729391E+01 -0.29705214882E+03  0.30929029352E+03  0.78583689435E+02 0.  0.
          5    1    3    3  501    0  0.61839610873E+01  0.40687510482E+02 -0.30398492790E+02  0.51379696845E+02  0.47000000000E+01 0. -1.
        -11    1    4    4    0    0 -0.46814790086E+02  0.10950398725E+02 -0.24567171432E+03  0.25033203354E+03  0.00000000000E+00 0.  1.
         12    1    4    4    0    0  0.25432361645E+02 -0.84468547212E+01 -0.30272577427E+03  0.30390960627E+03  0.00000000000E+00 0. -1.
         -5    1    5    5    0  502  0.49153483862E+02 -0.52791427425E+02 -0.74962146193E+02  0.10413651207E+03  0.47000000000E+01 0.  1.
         13    1    6    6    0    0 -0.26280414805E+02 -0.12129895910E+02 -0.27767883780E+03  0.27918332963E+03  0.00000000000E+00 0. -1.
        -14    1    6    6    0    0 -0.76746017031E+01  0.21730268849E+02 -0.19373311011E+02  0.30106963897E+02  0.00000000000E+00 0.  1.
</event>
<event>
12    1  0.1030140E-001  0.1983329E+03  0.7818608E-02  0.1151190E+00
         21   -1    0    0  503  502  0.00000000000E+00  0.00000000000E+00  0.77846941157E+02  0.77846941157E+02  0.00000000000E+00 0. -1.
         21   -1    0    0  501  503 -0.00000000000E+00 -0.00000000000E+00 -0.76510069906E+03  0.76510069906E+03  0.00000000000E+00 0.  1.
          6    2    1    2  501    0 -0.52284073157E+02 -0.84480755798E+02 -0.58953515276E+03  0.62200292972E+03  0.17165467027E+03 0.  0.
         24    2    3    3    0    0 -0.34790879648E+02 -0.11308016481E+03 -0.31798359929E+03  0.34834936367E+03  0.78969492669E+02 0.  0.
         -6    2    1    2    0  502  0.52284073157E+02  0.84480755798E+02 -0.97718605138E+02  0.22094471050E+03  0.17145558288E+03 0.  0.
        -24    2    5    5    0    0  0.44806107779E+02  0.62328533645E+02 -0.13657791325E+03  0.17535110635E+03  0.78753099692E+02 0.  0.
          5    1    3    3  501    0 -0.17493193508E+02  0.28599409011E+02 -0.27155155348E+03  0.27365356605E+03  0.47000000000E+01 0. -1.
        -11    1    4    4    0    0  0.82938423606E+01 -0.50130985111E+02 -0.21051260109E+03  0.21655821090E+03  0.00000000000E+00 0.  1.
         12    1    4    4    0    0 -0.43084722009E+02 -0.62949179698E+02 -0.10747099820E+03  0.13179115277E+03  0.00000000000E+00 0. -1.
         -5    1    5    5    0  502  0.74779653775E+01  0.22152222153E+02  0.38859308110E+02  0.45593604149E+02  0.47000000000E+01 0.  1.
         11    1    6    6    0    0  0.51472813113E+02  0.49626405534E+02 -0.49173022721E+02  0.86776821672E+02  0.00000000000E+00 0. -1.
        -12    1    6    6    0    0 -0.66667053334E+01  0.12702128111E+02 -0.87404890526E+02  0.88574284679E+02  0.00000000000E+00 0.  1.
</event>
<event>
12    1  0.1030140E-001  0.2056908E+03  0.7818608E-02  0.1145216E+00
         21   -1    0    0  501  502  0.00000000000E+00  0.00000000000E+00  0.15191513332E+03  0.15191513332E+03  0.00000000000E+00 0. -1.
         21   -1    0    0  502  503 -0.00000000000E+00 -0.00000000000E+00 -0.44471754189E+03  0.44471754189E+03  0.00000000000E+00 0.  1.
         -6    2    1    2    0  503  0.45359572075E+02 -0.10298096163E+03 -0.32968363179E+03  0.38858717803E+03  0.17218051173E+03 0.  0.
        -24    2    3    3    0    0 -0.39908285772E+02 -0.30036792737E+02 -0.14208657289E+03  0.16994087491E+03  0.78717384224E+02 0.  0.
          6    2    1    2  501    0 -0.45359572075E+02  0.10298096163E+03  0.36881223222E+02  0.20804549719E+03  0.17105594125E+03 0.  0.
         24    2    5    5    0    0  0.34687429620E+02  0.82000759253E+02  0.49214562763E+02  0.12424876314E+03  0.71332598878E+02 0.  0.
          5    1    5    5  501    0 -0.80047001695E+02  0.20980202380E+02 -0.12333339542E+02  0.83796734045E+02  0.47000000000E+01 0. -1.
        -13    1    6    6    0    0 -0.76333717883E+00  0.85498859362E+01 -0.17099364798E+02  0.19132995314E+02  0.00000000000E+00 0.  1.
         14    1    6    6    0    0  0.35450766799E+02  0.73450873317E+02  0.66313927562E+02  0.10511576783E+03  0.00000000000E+00 0. -1.
         -5    1    3    3    0  503  0.85267857848E+02 -0.72944168897E+02 -0.18759705890E+03  0.21864630312E+03  0.47000000000E+01 0.  1.
         11    1    4    4    0    0  0.81123384369E+01 -0.42767646047E+02 -0.64719264135E+02  0.77996568729E+02  0.00000000000E+00 0. -1.
        -12    1    4    4    0    0 -0.48020624209E+02  0.12730853311E+02 -0.77367308752E+02  0.91944306180E+02  0.00000000000E+00 0.  1.
</event>
<event>
12    1  0.1030140E-001  0.1820039E+03  0.7818608E-02  0.1166144E+00
         21   -1    0    0  501  502  0.00000000000E+00  0.00000000000E+00  0.24507648970E+02  0.24507648970E+02  0.00000000000E+00 0.  1.
         21   -1    0    0  502  503 -0.00000000000E+00 -0.00000000000E+00 -0.15627608498E+04  0.15627608498E+04  0.00000000000E+00 0.  1.
         -6    2    1    2    0  503  0.57627593154E+02 -0.18909645585E+02 -0.10644551204E+04  0.10797155019E+04  0.17041815519E+03 0.  0.
        -24    2    3    3    0    0 -0.21417996827E+02 -0.38062593592E+02 -0.43078104487E+03  0.44082586773E+03  0.82750501047E+02 0.  0.
          6    2    1    2  501    0 -0.57627593154E+02  0.18909645585E+02 -0.47379808045E+03  0.50755299683E+03  0.17160101798E+03 0.  0.
         24    2    5    5    0    0 -0.48580940914E+02  0.69737320153E+02 -0.22750298363E+03  0.25586140156E+03  0.80523584142E+02 0.  0.
          5    1    5    5  501    0 -0.90466522398E+01 -0.50827674568E+02 -0.24629509681E+03  0.25169159528E+03  0.47000000000E+01 0. -1.
        -11    1    6    6    0    0 -0.67213475104E+02  0.38046355062E+02 -0.17939927551E+03  0.19531839755E+03  0.00000000000E+00 0.  1.
         12    1    6    6    0    0  0.18632534190E+02  0.31690965091E+02 -0.48103708121E+02  0.60543004003E+02  0.00000000000E+00 0. -1.
         -5    1    3    3    0  503  0.79045589981E+02  0.19152948007E+02 -0.63367407553E+03  0.63888963422E+03  0.47000000000E+01 0.  1.
         11    1    4    4    0    0  0.10226983578E+02  0.18248410770E+02 -0.44379592058E+02  0.49062652598E+02  0.00000000000E+00 0. -1.
        -12    1    4    4    0    0 -0.31644980405E+02 -0.56311004362E+02 -0.38640145281E+03  0.39176321513E+03  0.00000000000E+00 0.  1.
</event>
<event>
12    1  0.1030140E-001  0.1786135E+03  0.7818608E-02  0.1169778E+00
         21   -1    0    0  501  502  0.00000000000E+00  0.00000000000E+00  0.37441973248E+03  0.37441973248E+03  0.00000000000E+00 0. -1.
         21   -1    0    0  502  503 -0.00000000000E+00 -0.00000000000E+00 -0.17343488456E+03  0.17343488456E+03  0.00000000000E+00 0. -1.
         -6    2    1    2    0  503  0.13679634455E+02  0.27373130363E+02 -0.96564928869E+02  0.20081187264E+03  0.17339031703E+03 0.  0.
        -24    2    3    3    0    0  0.36101594019E+02 -0.22270461737E+02 -0.25399020384E+02  0.11106830999E+03  0.99457331003E+02 0.  0.
          6    2    1    2  501    0 -0.13679634455E+02 -0.27373130363E+02  0.29754977679E+03  0.34704274439E+03  0.17597265726E+03 0.  0.
         24    2    5    5    0    0  0.27454700822E+02 -0.75867060112E+02  0.16512618803E+03  0.20006726473E+03  0.79061248637E+02 0.  0.
          5    1    5    5  501    0 -0.41134335277E+02  0.48493929750E+02  0.13242358876E+03  0.14697547966E+03  0.47000000000E+01 0. -1.
        -13    1    6    6    0    0  0.33236905097E+02  0.29743416467E+01  0.40410505502E+02  0.52407514000E+02  0.00000000000E+00 0.  1.
         14    1    6    6    0    0 -0.57822042746E+01 -0.78841401759E+02  0.12471568252E+03  0.14765975073E+03  0.00000000000E+00 0. -1.
         -5    1    3    3    0  503 -0.22421959564E+02  0.49643592100E+02 -0.71165908485E+02  0.89743562653E+02  0.47000000000E+01 0.  1.
         11    1    4    4    0    0  0.53441654973E+02 -0.28859521755E+02 -0.51099470437E+02  0.79372780984E+02  0.00000000000E+00 0. -1.
        -12    1    4    4    0    0 -0.17340060954E+02  0.65890600180E+01  0.25700450053E+02  0.31695529003E+02  0.00000000000E+00 0.  1.
</event>
<event>
12    1  0.1030140E-001  0.1809685E+03  0.7818608E-02  0.1166986E+00
         21   -1    0    0  501  502  0.00000000000E+00  0.00000000000E+00  0.32931304936E+03  0.32931304936E+03  0.00000000000E+00 0.  1.
         21   -1    0    0  502  503 -0.00000000000E+00 -0.00000000000E+00 -0.10427259768E+03  0.10427259768E+03  0.00000000000E+00 0.  1.
         -6    2    1    2    0  503  0.55393445955E+02 -0.54063122969E+01  0.64758168835E+02  0.19220618966E+03  0.17219737758E+03 0.  0.
        -24    2    3    3    0    0  0.12576534745E+02 -0.66314245276E+02  0.32594460144E+02  0.11096790840E+03  0.81827437387E+02 0.  0.
          6    2    1    2  501    0 -0.55393445955E+02  0.54063122969E+01  0.16028228284E+03  0.24137945739E+03  0.17168567264E+03 0.  0.
         24    2    5    5    0    0  0.39393649818E+01 -0.50854202741E+02  0.60823059388E+02  0.11253903230E+03  0.79774185711E+02 0.  0.
          5    1    5    5  501    0 -0.59332810936E+02  0.56260515038E+02  0.99459223457E+02  0.12884042509E+03  0.47000000000E+01 0. -1.
        -13    1    6    6    0    0  0.91065482517E+01 -0.50070908472E+01 -0.18243427590E+02  0.20995781244E+02  0.00000000000E+00 0.  1.
         14    1    6    6    0    0 -0.51671832698E+01 -0.45847111894E+02  0.79066486977E+02  0.91543251061E+02  0.00000000000E+00 0. -1.
         -5    1    3    3    0  503  0.42816911209E+02  0.60907932979E+02  0.32163708691E+02  0.81238281260E+02  0.47000000000E+01 0.  1.
         11    1    4    4    0    0 -0.22610451198E+02 -0.13120819728E+02  0.38911669678E+02  0.46877568739E+02  0.00000000000E+00 0. -1.
        -12    1    4    4    0    0  0.35186985943E+02 -0.53193425548E+02 -0.63172095342E+01  0.64090339659E+02  0.00000000000E+00 0.  1.
</event>
<event>
12    1  0.1030140E-001  0.2204704E+03  0.7818608E-02  0.1133545E+00
         21   -1    0    0  503  502  0.00000000000E+00  0.00000000000E+00  0.90975228084E+03  0.90975228084E+03  0.00000000000E+00 0. -1.
         21   -1    0    0  501  503 -0.00000000000E+00 -0.00000000000E+00 -0.12328894941E+03  0.12328894941E+03  0.00000000000E+00 0.  1.
          6    2    1    2  501    0 -0.11002675927E+03  0.82982059818E+02  0.44005019019E+01  0.22051435413E+03  0.17209098161E+03 0.  0.
         24    2    3    3    0    0 -0.80034745756E+02  0.10278318173E+03  0.51307343230E+02  0.16123579926E+03  0.79966221110E+02 0.  0.
         -6    2    1    2    0  502  0.11002675927E+03 -0.82982059818E+02  0.78206282953E+03  0.81252687612E+03  0.17200507287E+03 0.  0.
        -24    2    5    5    0    0  0.46735282869E+02 -0.84292664653E+02  0.68459523100E+03  0.69621027613E+03  0.82150339689E+02 0.  0.
          5    1    3    3  501    0 -0.29992013518E+02 -0.19801121916E+02 -0.46906841328E+02  0.59278554869E+02  0.47000000000E+01 0. -1.
        -11    1    4    4    0    0 -0.15899150147E+02 -0.12869159693E+02  0.44395311012E+01  0.20931022025E+02  0.00000000000E+00 0.  1.
         12    1    4    4    0    0 -0.64135595609E+02  0.11565234143E+03  0.46867812129E+02  0.14030477724E+03  0.00000000000E+00 0. -1.
         -5    1    5    5    0  502  0.63291476405E+02  0.13106048347E+01  0.97467598527E+02  0.11631659999E+03  0.47000000000E+01 0.  1.
         13    1    6    6    0    0 -0.22551458955E+02 -0.25658524216E+02  0.14030161810E+03  0.14440038853E+03  0.00000000000E+00 0. -1.
        -14    1    6    6    0    0  0.69286741824E+02 -0.58634140437E+02  0.54429361290E+03  0.55180988761E+03  0.00000000000E+00 0.  1.
</event>
<event>
12    1  0.1030140E-001  0.1942189E+03  0.7818608E-02  0.1157406E+00
         21   -1    0    0  503  502  0.00000000000E+00  0.00000000000E+00  0.76457577563E+03  0.76457577563E+03  0.00000000000E+00 0. -1.
         21   -1    0    0  501  503 -0.00000000000E+00 -0.00000000000E+00 -0.14363751847E+03  0.14363751847E+03  0.00000000000E+00 0. -1.
          6    2    1    2  501    0  0.37502441852E+02 -0.82059015059E+02 -0.66339927694E+02  0.19401983100E+03  0.15843798067E+03 0.  0.
         24    2    3    3    0    0  0.70205948086E+01 -0.68779459696E+02 -0.10330837540E+03  0.14407740700E+03  0.72840757496E+02 0.  0.
         -6    2    1    2    0  502 -0.37502441852E+02  0.82059015059E+02  0.68727818486E+03  0.71419346311E+03  0.17199094239E+03 0.  0.
        -24    2    5    5    0    0  0.36241384211E+02  0.34281134567E+02  0.33263319602E+03  0.34879500135E+03  0.92328087574E+02 0.  0.
          5    1    3    3  501    0  0.30481847043E+02 -0.13279555362E+02  0.36968447702E+02  0.49942424003E+02  0.47000000000E+01 0. -1.
        -13    1    4    4    0    0  0.24156287284E+02 -0.24110026102E+02 -0.87124620040E+02  0.93570930267E+02  0.00000000000E+00 0.  1.
         14    1    4    4    0    0 -0.17135692476E+02 -0.44669433594E+02 -0.16183755356E+02  0.50506476730E+02  0.00000000000E+00 0. -1.
         -5    1    5    5    0  502 -0.73743826063E+02  0.47777880491E+02  0.35464498883E+03  0.36539846175E+03  0.47000000000E+01 0.  1.
         11    1    6    6    0    0 -0.13610658075E+02  0.40380475796E+02  0.23675109088E+03  0.24055542370E+03  0.00000000000E+00 0. -1.
        -12    1    6    6    0    0  0.49852042286E+02 -0.60993412286E+01  0.95882105139E+02  0.10823957765E+03  0.00000000000E+00 0.  1.
</event>
<event>
12    1  0.1030140E-001  0.1925553E+03  0.7818608E-02  0.1156179E+00
         21   -1    0    0  501  502  0.00000000000E+00  0.00000000000E+00  0.46478336030E+03  0.46478336030E+03  0.00000000000E+00 0.  1.
         21   -1    0    0  502  503 -0.00000000000E+00 -0.00000000000E+00 -0.80688314379E+02  0.80688314379E+02  0.00000000000E+00 0. -1.
         -6    2    1    2    0  503 -0.88313292034E+02  0.14993771332E+02  0.16293090816E+03  0.25222923083E+03  0.17043782832E+03 0.  0.
        -24    2    3    3    0    0 -0.15571624213E+02 -0.45474059440E+02  0.62537622749E+02  0.11421252695E+03  0.82602551351E+02 0.  0.
          6    2    1    2  501    0  0.88313292034E+02 -0.14993771332E+02  0.22116413775E+03  0.29324244384E+03  0.17045088534E+03 0.  0.
         24    2    5    5    0    0  0.78357074318E+02 -0.32609022905E+02  0.62611437421E+02  0.13333474502E+03  0.81576851274E+02 0.  0.
          5    1    5    5  501    0  0.99562177161E+01  0.17615251572E+02  0.15855270033E+03  0.15990769882E+03  0.47000000000E+01 0. -1.
        -11    1    6    6    0    0  0.26600034501E+02 -0.52357274517E+02  0.48510558375E+02  0.76171650266E+02  0.00000000000E+00 0.  1.
         12    1    6    6    0    0  0.51757039816E+02  0.19748251612E+02  0.14100879046E+02  0.57163094757E+02  0.00000000000E+00 0. -1.
         -5    1    3    3    0  503 -0.72741667821E+02  0.60467830772E+02  0.10039328542E+03  0.13801670389E+03  0.47000000000E+01 0.  1.
         13    1    4    4    0    0 -0.19204239800E+02 -0.34003656562E+01 -0.15877614489E+02  0.25148836052E+02  0.00000000000E+00 0. -1.
        -14    1    4    4    0    0  0.36326155876E+01 -0.42073693784E+02  0.78415237238E+02  0.89063690894E+02  0.00000000000E+00 0.  1.
</event>
<event>
12    1  0.1030140E-001  0.1838251E+03  0.7818608E-02  0.1164652E+00
         21   -1    0    0  503  502  0.00000000000E+00  0.00000000000E+00  0.29953976083E+02  0.29953976083E+02  0.00000000000E+00 0. -1.
         21   -1    0    0  501  503 -0.00000000000E+00 -0.00000000000E+00 -0.11296376949E+04  0.11296376949E+04  0.00000000000E+00 0.  1.
          6    2    1    2  501    0 -0.60625496092E+02 -0.49103556338E+00 -0.61854235504E+03  0.64528003885E+03  0.17353959684E+03 0.  0.
         24    2    3    3    0    0  0.36005631847E+02  0.76969547816E+01 -0.28059345444E+03  0.29366068857E+03  0.78410871070E+02 0.  0.
         -6    2    1    2    0  502  0.60625496092E+02  0.49103556338E+00 -0.48114136381E+03  0.51431163216E+03  0.17130017839E+03 0.  0.
        -24    2    5    5    0    0  0.22933867221E+02  0.42966973863E+02 -0.13713621417E+03  0.16561907818E+03  0.79064623652E+02 0.  0.
          5    1    3    3  501    0 -0.96631127938E+02 -0.81879903450E+01 -0.33794890060E+03  0.35161935028E+03  0.47000000000E+01 0. -1.
        -11    1    4    4    0    0  0.43514246358E+02 -0.11203827591E+02 -0.77749839454E+02  0.89800071959E+02  0.00000000000E+00 0.  1.
         12    1    4    4    0    0 -0.75086145112E+01  0.18900782373E+02 -0.20284361499E+03  0.20386061662E+03  0.00000000000E+00 0. -1.
         -5    1    5    5    0  502  0.37691628871E+02 -0.42475938300E+02 -0.34400514964E+03  0.34869255398E+03  0.47000000000E+01 0.  1.
         11    1    6    6    0    0 -0.12760348078E+02  0.51287119935E+02 -0.10183293520E+03  0.11473073627E+03  0.00000000000E+00 0. -1.
        -12    1    6    6    0    0  0.35694215299E+02 -0.83201460713E+01 -0.35303278965E+02  0.50888341907E+02  0.00000000000E+00 0.  1.
</event>
<event>
12    1  0.1030140E-001  0.2824242E+03  0.7818608E-02  0.1095649E+00
         21   -1    0    0  501  502  0.00000000000E+00  0.00000000000E+00  0.71643282679E+02  0.71643282679E+02  0.00000000000E+00 0.  1.
         21   -1    0    0  502  503 -0.00000000000E+00 -0.00000000000E+00 -0.12097875198E+04  0.12097875198E+04  0.00000000000E+00 0. -1.
         -6    2    1    2    0  503 -0.16066799164E+03 -0.13902784948E+03 -0.78975288346E+03  0.83873299841E+03  0.18606579273E+03 0.  0.
        -24    2    3    3    0    0 -0.19450760108E+03 -0.12044557524E+03 -0.64887977365E+03  0.69259011234E+03  0.79345822744E+02 0.  0.
          6    2    1    2  501    0  0.16066799164E+03  0.13902784948E+03 -0.34839135369E+03  0.44269780409E+03  0.17164458614E+03 0.  0.
         24    2    5    5    0    0  0.89287920211E+01  0.28532534558E+02 -0.10680227844E+03  0.13672170927E+03  0.79951674471E+02 0.  0.
          5    1    5    5  501    0  0.15173919962E+03  0.11049531493E+03 -0.24158907525E+03  0.30597609482E+03  0.47000000000E+01 0. -1.
        -11    1    6    6    0    0 -0.19314215160E+01  0.55220214669E+02 -0.80958279126E+02  0.98016557051E+02  0.00000000000E+00 0.  1.
         12    1    6    6    0    0  0.10860213537E+02 -0.26687680112E+02 -0.25843999317E+02  0.38705152222E+02  0.00000000000E+00 0. -1.
         -5    1    3    3    0  503  0.33839609433E+02 -0.18582274240E+02 -0.14087310981E+03  0.14614288607E+03  0.47000000000E+01 0.  1.
         11    1    4    4    0    0 -0.56844551802E+02 -0.23005929398E+02 -0.28501513989E+03  0.29153765764E+03  0.00000000000E+00 0. -1.
        -12    1    4    4    0    0 -0.13766304927E+03 -0.97439645845E+02 -0.36386463376E+03  0.40105245470E+03  0.00000000000E+00 0.  1.
</event>
<event>
12    1  0.1030140E-001  0.2346691E+03  0.7818608E-02  0.1123760E+00
         21   -1    0    0  503  502  0.00000000000E+00  0.00000000000E+00  0.65462069876E+03  0.65462069876E+03  0.00000000000E+00 0. -1.
         21   -1    0    0  501  503 -0.00000000000E+00 -0.00000000000E+00 -0.11464605142E+03  0.11464605142E+03  0.00000000000E+00 0.  1.
          6    2    1    2  501    0 -0.82530975866E+02  0.13448451889E+03  0.69973296689E+02  0.24487926566E+03  0.17370130886E+03 0.  0.
         24    2    3    3    0    0 -0.32135776692E+02  0.18392219265E+01  0.52399490101E+02  0.10182200585E+03  0.81153702509E+02 0.  0.
         -6    2    1    2    0  502  0.82530975866E+02 -0.13448451889E+03  0.47000135065E+03  0.52438748452E+03  0.17083183692E+03 0.  0.
        -24    2    5    5    0    0  0.37285703964E+01 -0.43642285354E+02  0.91438619932E+02  0.12715460371E+03  0.76738000511E+02 0.  0.
          5    1    3    3  501    0 -0.50395199174E+02  0.13264529697E+03  0.17573806588E+02  0.14305725981E+03  0.47000000000E+01 0. -1.
        -13    1    4    4    0    0 -0.59410171675E+02 -0.33812903672E+01  0.36928510495E+02  0.70033681257E+02  0.00000000000E+00 0.  1.
         14    1    4    4    0    0  0.27274394982E+02  0.52205122937E+01  0.15470979606E+02  0.31788324590E+02  0.00000000000E+00 0. -1.
         -5    1    5    5    0  502  0.78802405470E+02 -0.90842233539E+02  0.37856273072E+03  0.39723288080E+03  0.47000000000E+01 0.  1.
         13    1    6    6    0    0  0.26092982710E+02 -0.51017134293E+02  0.85400617599E+02  0.10284384874E+03  0.00000000000E+00 0. -1.
        -14    1    6    6    0    0 -0.22364412314E+02  0.73748489389E+01  0.60380023329E+01  0.24310754970E+02  0.00000000000E+00 0.  1.
</event>
<event>
12    1  0.1030140E-001  0.1785538E+03  0.7818608E-02  0.1169591E+00
         21   -1    0    0  503  502  0.00000000000E+00  0.00000000000E+00  0.17537765308E+03  0.17537765308E+03  0.00000000000E+00 0.  1.
         21   -1    0    0  501  503 -0.00000000000E+00 -0.00000000000E+00 -0.19269031869E+03  0.19269031869E+03  0.00000000000E+00 0.  1.
          6    2    1    2  501    0  0.18590990755E+02  0.40453576852E+02 -0.55520333414E+02  0.18698657854E+03  0.17291430338E+03 0.  0.
         24    2    3    3    0    0  0.42238687540E+02  0.73300332553E+02 -0.78671984113E+02  0.14012282012E+03  0.79297403209E+02 0.  0.
         -6    2    1    2    0  502 -0.18590990755E+02 -0.40453576852E+02  0.38207667804E+02  0.18108139323E+03  0.17131412165E+03 0.  0.
        -24    2    5    5    0    0  0.18016036416E+02 -0.42645376052E+02 -0.44029272357E+02  0.90915530788E+02  0.64682696661E+02 0.  0.
          5    1    3    3  501    0 -0.23647696785E+02 -0.32846755702E+02  0.23151650699E+02  0.46863758422E+02  0.47000000000E+01 0. -1.
        -11    1    4    4    0    0 -0.14065411832E+02  0.52095546175E+02 -0.24892709430E+02  0.59425825396E+02  0.00000000000E+00 0.  1.
         12    1    4    4    0    0  0.56304099372E+02  0.21204786378E+02 -0.53779274683E+02  0.80696994721E+02  0.00000000000E+00 0. -1.
         -5    1    5    5    0  502 -0.36607027172E+02  0.21917992009E+01  0.82236940161E+02  0.90165862437E+02  0.47000000000E+01 0.  1.
         13    1    6    6    0    0  0.28855538643E+02 -0.92909741834E+01  0.49074791582E+01  0.30709081122E+02  0.00000000000E+00 0. -1.
        -14    1    6    6    0    0 -0.10839502227E+02 -0.33354401869E+02 -0.48936751515E+02  0.60206449666E+02  0.00000000000E+00 0.  1.
</event>
<event>
12    1  0.1030140E-001  0.2000899E+03  0.7818608E-02  0.1149897E+00
         21   -1    0    0  503  502  0.00000000000E+00  0.00000000000E+00  0.62560578917E+03  0.62560578917E+03  0.00000000000E+00 0. -1.
         21   -1    0    0  501  503 -0.00000000000E+00 -0.00000000000E+00 -0.14655655218E+03  0.14655655218E+03  0.00000000000E+00 0. -1.
          6    2    1    2  501    0  0.57842866306E+02  0.82315265312E+02 -0.51157886119E+02  0.20545646493E+03  0.17167885596E+03 0.  0.
         24    2    3    3    0    0  0.37585409958E+02  0.11254907767E+03  0.15694904121E+01  0.14121695852E+03  0.76549383713E+02 0.  0.
         -6    2    1    2    0  502 -0.57842866306E+02 -0.82315265312E+02  0.53020712311E+03  0.56670587642E+03  0.17295767370E+03 0.  0.
        -24    2    5    5    0    0 -0.49507673345E+02  0.20223188090E+02  0.22237261547E+03  0.24210183461E+03  0.79396039918E+02 0.  0.
          5    1    3    3  501    0  0.20257456348E+02 -0.30233812362E+02 -0.52727376531E+02  0.64239506408E+02  0.47000000000E+01 0. -1.
        -11    1    4    4    0    0 -0.15643686701E+02  0.69570220575E+02  0.11016979484E+02  0.72153408523E+02  0.00000000000E+00 0.  1.
         12    1    4    4    0    0  0.53229096659E+02  0.42978857099E+02 -0.94474890722E+01  0.69063549999E+02  0.00000000000E+00 0. -1.
         -5    1    5    5    0  502 -0.83351929610E+01 -0.10253845340E+03  0.30783450764E+03  0.32460404181E+03  0.47000000000E+01 0.  1.
         13    1    6    6    0    0 -0.29653775741E+02  0.12694289588E+02  0.21806243349E+03  0.22043528825E+03  0.00000000000E+00 0. -1.
        -14    1    6    6    0    0 -0.19853897604E+02  0.75288985010E+01  0.43101819788E+01  0.21666546365E+02  0.00000000000E+00 0.  1.
</event>
<event>
12    1  0.1030140E-001  0.1742166E+03  0.7818608E-02  0.1174625E+00
         21   -1    0    0  501  502  0.00000000000E+00  0.00000000000E+00  0.37127132465E+03  0.37127132465E+03  0.00000000000E+00 0. -1.
         21   -1    0    0  502  503 -0.00000000000E+00 -0.00000000000E+00 -0.10676060565E+03  0.10676060565E+03  0.00000000000E+00 0. -1.
         -6    2    1    2    0  503  0.76699271118E+01  0.60824944165E+01  0.13250371303E+02  0.17471980690E+03  0.17394140986E+03 0.  0.
        -24    2    3    3    0    0  0.26938987410E+02 -0.29630078437E+02 -0.48040810566E+02  0.10106260413E+03  0.79385640284E+02 0.  0.
          6    2    1    2  501    0 -0.76699271118E+01 -0.60824944165E+01  0.25126034769E+03  0.30331212340E+03  0.16961915387E+03 0.  0.
         24    2    5    5    0    0 -0.37451846010E+02  0.15607663164E+02  0.61391987576E+02  0.10984504661E+03  0.81551935639E+02 0.  0.
          5    1    5    5  501    0  0.29781918899E+02 -0.21690157581E+02  0.18986836012E+03  0.19346707679E+03  0.47000000000E+01 0. -1.
        -13    1    6    6    0    0  0.11717798229E+02  0.50730393546E+01 -0.14173742509E+02  0.19077146022E+02  0.00000000000E+00 0.  1.
         14    1    6    6    0    0 -0.49169644239E+02  0.10534623810E+02  0.75565730085E+02  0.90767900585E+02  0.00000000000E+00 0. -1.
         -5    1    3    3    0  503 -0.19269060299E+02  0.35712572854E+02  0.61291181869E+02  0.73657202767E+02  0.47000000000E+01 0.  1.
         13    1    4    4    0    0  0.42697842454E+02  0.10653029344E+02 -0.33913345197E+02  0.55558147619E+02  0.00000000000E+00 0. -1.
        -14    1    4    4    0    0 -0.15758855044E+02 -0.40283107781E+02 -0.14127465369E+02  0.45504456513E+02  0.00000000000E+00 0.  1.
</event>
<event>
12    1  0.1030140E-001  0.2610471E+03  0.7818608E-02  0.1106683E+00
         21   -1    0    0  501  502  0.00000000000E+00  0.00000000000E+00  0.70489748450E+02  0.70489748450E+02  0.00000000000E+00 0. -1.
         21   -1    0    0  502  503 -0.00000000000E+00 -0.00000000000E+00 -0.11614541531E+04  0.11614541531E+04  0.00000000000E+00 0. -1.
         -6    2    1    2    0  503  0.16802881541E+03  0.98878380824E+02 -0.80132028854E+03  0.84276913515E+03  0.17359433554E+03 0.  0.
        -24    2    3    3    0    0  0.12909152690E+02  0.15635380154E+02 -0.21772059421E+03  0.23317730438E+03  0.80983250104E+02 0.  0.
          6    2    1    2  501    0 -0.16802881541E+03 -0.98878380824E+02 -0.28964411609E+03  0.38917476638E+03  0.17190889390E+03 0.  0.
         24    2    5    5    0    0 -0.15393379500E+02 -0.58544521855E+02 -0.12362728942E+03  0.16002836512E+03  0.81614666462E+02 0.  0.
          5    1    5    5  501    0 -0.15263543591E+03 -0.40333858969E+02 -0.16601682667E+03  0.22914640126E+03  0.47000000000E+01 0. -1.
        -13    1    6    6    0    0 -0.88415668508E+01  0.32482313668E+01  0.93355947507E+01  0.13261886771E+02  0.00000000000E+00 0.  1.
         14    1    6    6    0    0 -0.65518126492E+01 -0.61792753222E+02 -0.13296288417E+03  0.14676647834E+03  0.00000000000E+00 0. -1.
         -5    1    3    3    0  503  0.15511966272E+03  0.83243000670E+02 -0.58359969433E+03  0.60959183077E+03  0.47000000000E+01 0.  1.
         11    1    4    4    0    0  0.63981911121E+01 -0.33995552983E+01 -0.21218943950E+03  0.21231309912E+03  0.00000000000E+00 0. -1.
        -12    1    4    4    0    0  0.65109615783E+01  0.19034935453E+02 -0.55311547132E+01  0.20864205253E+02  0.00000000000E+00 0.  1.
</event>
<event>
12    1  0.1030140E-001  0.2297304E+03  0.7818608E-02  0.1127211E+00
         21   -1    0    0  501  502  0.00000000000E+00  0.00000000000E+00  0.69523231141E+03  0.69523231141E+03  0.00000000000E+00 0. -1.
         21   -1    0    0  502  503 -0.00000000000E+00 -0.00000000000E+00 -0.12360568357E+03  0.12360568357E+03  0.00000000000E+00 0. -1.
         -6    2    1    2    0  503 -0.60851962142E+02 -0.13620668849E+03  0.28792444975E+02  0.22939333588E+03  0.17186353416E+03 0.  0.
        -24    2    3    3    0    0  0.20125537786E+02 -0.19074065813E+02  0.36819184982E+02  0.86691109743E+02  0.73422332215E+02 0.  0.
          6    2    1    2  501    0  0.60851962142E+02  0.13620668849E+03  0.54283418287E+03  0.58944465909E+03  0.17470212581E+03 0.  0.
         24    2    5    5    0    0 -0.21815002047E+02  0.72162047170E+02  0.17284699190E+03  0.20493438026E+03  0.80241898272E+02 0.  0.
          5    1    5    5  501    0  0.82666964189E+02  0.64044641318E+02  0.36998719097E+03  0.38451027883E+03  0.47000000000E+01 0. -1.
        -13    1    6    6    0    0 -0.15281238801E+02  0.12117129761E+01 -0.26213817144E+01  0.15551724976E+02  0.00000000000E+00 0.  1.
         14    1    6    6    0    0 -0.65337632458E+01  0.70950334194E+02  0.17546837361E+03  0.18938265529E+03  0.00000000000E+00 0. -1.
         -5    1    3    3    0  503 -0.80977499928E+02 -0.11713262268E+03 -0.80267400068E+01  0.14270222614E+03  0.47000000000E+01 0.  1.
         11    1    4    4    0    0 -0.19060445798E+02 -0.23029471614E+02 -0.37740995648E+01  0.30131395327E+02  0.00000000000E+00 0. -1.
        -12    1    4    4    0    0  0.39185983584E+02  0.39554058003E+01  0.40593284547E+02  0.56559714416E+02  0.00000000000E+00 0.  1.
</event>
<event>
12    1  0.1030140E-001  0.2122942E+03  0.7818608E-02  0.1139862E+00
         21   -1    0    0  501  502  0.00000000000E+00  0.00000000000E+00  0.22365329279E+04  0.22365329279E+04  0.00000000000E+00 0.  1.
         21   -1    0    0  502  503 -0.00000000000E+00 -0.00000000000E+00 -0.40313364527E+02  0.40313364527E+02  0.00000000000E+00 0. -1.
         -6    2    1    2    0  503  0.57373192351E+02 -0.11054859989E+03  0.29138451826E+03  0.36021764667E+03  0.17128671679E+03 0.  0.
        -24    2    3    3    0    0  0.92687717514E+00 -0.11919828142E+03  0.15386041047E+03  0.21123451436E+03  0.82084741286E+02 0.  0.
          6    2    1    2  501    0 -0.57373192351E+02  0.11054859989E+03  0.19048350451E+04  0.19166286457E+04  0.17191899412E+03 0.  0.
         24    2    5    5    0    0 -0.50571109835E+02  0.94704041669E+02  0.78890854237E+03  0.80055903867E+03  0.83616945162E+02 0.  0.
          5    1    5    5  501    0 -0.68020825165E+01  0.15844558217E+02  0.11159265027E+04  0.11160696071E+04  0.47000000000E+01 0. -1.
        -13    1    6    6    0    0 -0.67429356109E+02  0.82360792590E+02  0.73628589314E+03  0.74394014185E+03  0.00000000000E+00 0.  1.
         14    1    6    6    0    0  0.16858246274E+02  0.12343249079E+02  0.52622649228E+02  0.56618896820E+02  0.00000000000E+00 0. -1.
         -5    1    3    3    0  503  0.56446315176E+02  0.86496815317E+01  0.13752410779E+03  0.14898313231E+03  0.47000000000E+01 0.  1.
         11    1    4    4    0    0  0.80769079839E+01  0.11023487590E+02  0.92535736068E+01  0.16504009989E+02  0.00000000000E+00 0. -1.
        -12    1    4    4    0    0 -0.71500308087E+01 -0.13022176901E+03  0.14460683686E+03  0.19473050437E+03  0.00000000000E+00 0.  1.
</event>
<event>
12    1  0.1030140E-001  0.1739218E+03  0.7818608E-02  0.1178055E+00
         21   -1    0    0  501  502  0.00000000000E+00  0.00000000000E+00  0.15576780221E+04  0.15576780221E+04  0.00000000000E+00 0.  1.
         21   -1    0    0  502  503 -0.00000000000E+00 -0.00000000000E+00 -0.60126954354E+02  0.60126954354E+02  0.00000000000E+00 0.  1.
         -6    2    1    2    0  503  0.17239321645E+02 -0.21408495863E+02  0.58836687502E+02  0.16861628636E+03  0.15560905604E+03 0.  0.
        -24    2    3    3    0    0 -0.37918832012E+02  0.16997400626E+02  0.25768299290E+02  0.93562684851E+02  0.79769801924E+02 0.  0.
          6    2    1    2  501    0 -0.17239321645E+02  0.21408495863E+02  0.14387143802E+04  0.14491886901E+04  0.17173605818E+03 0.  0.
         24    2    5    5    0    0 -0.27541495501E+02  0.44962046651E+02  0.45799734586E+03  0.46812350568E+03  0.81227631652E+02 0.  0.
          5    1    5    5  501    0  0.10302173856E+02 -0.23553550788E+02  0.98071703437E+03  0.98106518440E+03  0.47000000000E+01 0. -1.
        -11    1    6    6    0    0 -0.36888248644E+02  0.11646357682E+02  0.38916994043E+03  0.39108774345E+03  0.00000000000E+00 0.  1.
         12    1    6    6    0    0  0.93467531427E+01  0.33315688969E+02  0.68827405425E+02  0.77035762236E+02  0.00000000000E+00 0. -1.
         -5    1    3    3    0  503  0.55158153657E+02 -0.38405896488E+02  0.33068388211E+02  0.75053601505E+02  0.47000000000E+01 0.  1.
         13    1    4    4    0    0  0.16407660616E+02  0.29882097274E+02  0.10736905555E+02  0.35741183602E+02  0.00000000000E+00 0. -1.
        -14    1    4    4    0    0 -0.54326492628E+02 -0.12884696649E+02  0.15031393735E+02  0.57821501248E+02  0.00000000000E+00 0.  1.
</event>
<event>
12    1  0.1030140E-001  0.1866595E+03  0.7818608E-02  0.1161653E+00
         21   -1    0    0  501  502  0.00000000000E+00  0.00000000000E+00  0.10165097609E+04  0.10165097609E+04  0.00000000000E+00 0.  1.
         21   -1    0    0  502  503 -0.00000000000E+00 -0.00000000000E+00 -0.50060447913E+02  0.50060447913E+02  0.00000000000E+00 0.  1.
         -6    2    1    2    0  503  0.17125826063E+02  0.68042356623E+02  0.18214184900E+03  0.26035684726E+03  0.17229909619E+03 0.  0.
        -24    2    3    3    0    0  0.70977894787E+02  0.14484206233E+02  0.10414878253E+03  0.15139112239E+03  0.82611435397E+02 0.  0.
          6    2    1    2  501    0 -0.17125826063E+02 -0.68042356623E+02  0.78430746401E+03  0.80621336157E+03  0.17297031555E+03 0.  0.
         24    2    5    5    0    0 -0.43844719901E+02 -0.10209346133E+03  0.66133805014E+03  0.67576435327E+03  0.83330728286E+02 0.  0.
          5    1    5    5  501    0  0.26718893838E+02  0.34051104708E+02  0.12296941387E+03  0.13044900831E+03  0.47000000000E+01 0. -1.
        -13    1    6    6    0    0 -0.32199052403E+02 -0.31958445424E+02  0.46020834036E+03  0.46243900976E+03  0.00000000000E+00 0.  1.
         14    1    6    6    0    0 -0.11645667498E+02 -0.70135015907E+02  0.20112970978E+03  0.21332534351E+03  0.00000000000E+00 0. -1.
         -5    1    3    3    0  503 -0.53852068725E+02  0.53558150390E+02  0.77993066469E+02  0.10896572487E+03  0.47000000000E+01 0.  1.
         13    1    4    4    0    0  0.11681758558E+02  0.42649492593E+02  0.42831790926E+02  0.61563016620E+02  0.00000000000E+00 0. -1.
        -14    1    4    4    0    0  0.59296136229E+02 -0.28165286360E+02  0.61316991606E+02  0.89828105775E+02  0.00000000000E+00 0.  1.
</event>
<event>
12    1  0.1030140E-001  0.1839517E+03  0.7818608E-02  0.1164166E+00
         21   -1    0    0  503  502  0.00000000000E+00  0.00000000000E+00  0.74801575474E+03  0.74801575474E+03  0.00000000000E+00 0.  1.
         21   -1    0    0  501  503 -0.00000000000E+00 -0.00000000000E+00 -0.49113538097E+02  0.49113538097E+02  0.00000000000E+00 0. -1.
          6    2    1    2  501    0 -0.53745395737E+01  0.64373548673E+02  0.23598033075E+03  0.29920721855E+03  0.17223647606E+03 0.  0.
         24    2    3    3    0    0  0.68579061679E+01  0.16470136820E+02  0.23620800832E+03  0.24954323327E+03  0.78481244870E+02 0.  0.
         -6    2    1    2    0  502  0.53745395737E+01 -0.64373548673E+02  0.46292188590E+03  0.49792207430E+03  0.17163006783E+03 0.  0.
        -24    2    5    5    0    0  0.42125278541E+02 -0.17206436625E+02  0.40209342077E+03  0.41249640226E+03  0.80022261245E+02 0.  0.
          5    1    3    3  501    0 -0.12232445742E+02  0.47903411853E+02 -0.22767756536E+00  0.49663985272E+02  0.47000000000E+01 0.  1.
        -11    1    4    4    0    0 -0.20976920561E+02 -0.12331719683E+02  0.17306873664E+03  0.17477096472E+03  0.00000000000E+00 0.  1.
         12    1    4    4    0    0  0.27834826729E+02  0.28801856502E+02  0.63139271673E+02  0.74772268552E+02  0.00000000000E+00 0. -1.
         -5    1    5    5    0  502 -0.36750738967E+02 -0.47167112047E+02  0.60828465122E+02  0.85425672035E+02  0.47000000000E+01 0.  1.
         11    1    6    6    0    0 -0.13478238227E+02  0.82991285622E+01  0.21656511727E+03  0.21714278357E+03  0.00000000000E+00 0. -1.
        -12    1    6    6    0    0  0.55603516768E+02 -0.25505565188E+02  0.18552830351E+03  0.19535361869E+03  0.00000000000E+00 0.  1.
</event>
<event>
12    1  0.1030140E-001  0.2061885E+03  0.7818608E-02  0.1144729E+00
         21   -1    0    0  501  502  0.00000000000E+00  0.00000000000E+00  0.12241215791E+04  0.12241215791E+04  0.00000000000E+00 0. -1.
         21   -1    0    0  502  503 -0.00000000000E+00 -0.00000000000E+00 -0.10593128174E+03  0.10593128174E+03  0.00000000000E+00 0. -1.
         -6    2    1    2    0  503 -0.28526549839E+02 -0.10992328463E+03  0.13769182371E+02  0.20664771315E+03  0.17209530620E+03 0.  0.
        -24    2    3    3    0    0  0.97556971792E+01 -0.12670761022E+03  0.42051425322E+02  0.15596024637E+03  0.80033017936E+02 0.  0.
          6    2    1    2  501    0  0.28526549839E+02  0.10992328463E+03  0.11044211150E+04  0.11234051477E+04  0.17145329997E+03 0.  0.
         24    2    5    5    0    0  0.24111621878E+01  0.17280091804E+02  0.80076916159E+03  0.80482804014E+03  0.78819469489E+02 0.  0.
          5    1    5    5  501    0  0.26115387651E+02  0.92643192827E+02  0.30365195339E+03  0.31857710754E+03  0.47000000000E+01 0. -1.
        -11    1    6    6    0    0  0.23495183383E+02 -0.19199531704E+02  0.17254628796E+03  0.17519379883E+03  0.00000000000E+00 0.  1.
         12    1    6    6    0    0 -0.21084021195E+02  0.36479623508E+02  0.62822287363E+03  0.62963424132E+03  0.00000000000E+00 0. -1.
         -5    1    3    3    0  503 -0.38282247018E+02  0.16784325592E+02 -0.28282242951E+02  0.50687466781E+02  0.47000000000E+01 0.  1.
         11    1    4    4    0    0 -0.15734740306E+02 -0.12044881805E+03  0.23259297716E+02  0.12367899883E+03  0.00000000000E+00 0. -1.
        -12    1    4    4    0    0  0.25490437486E+02 -0.62587921766E+01  0.18792127606E+02  0.32281247539E+02  0.00000000000E+00 0.  1.
</event>
<event>
12    1  0.1030140E-001  0.1884491E+03  0.7818608E-02  0.1160172E+00
         21   -1    0    0  501  502  0.00000000000E+00  0.00000000000E+00  0.11311622784E+04  0.11311622784E+04  0.00000000000E+00 0.  1.
         21   -1    0    0  502  503 -0.00000000000E+00 -0.00000000000E+00 -0.39957170604E+02  0.39957170604E+02  0.00000000000E+00 0.  1.
         -6    2    1    2    0  503 -0.33860670969E+02  0.64560016222E+02  0.26956123308E+03  0.32814155556E+03  0.17233421417E+03 0.  0.
        -24    2    3    3    0    0 -0.36024357062E+02  0.11003052619E+03  0.19159312149E+03  0.23773488966E+03  0.80034258679E+02 0.  0.
          6    2    1    2  501    0  0.33860670969E+02 -0.64560016222E+02  0.82164387469E+03  0.84297789342E+03  0.17377724605E+03 0.  0.
         24    2    5    5    0    0  0.39786178946E+02 -0.35188234301E+02  0.79987758024E+03  0.80564593939E+03  0.80250136502E+02 0.  0.
          5    1    5    5  501    0 -0.59255079763E+01 -0.29371781921E+02  0.21766294453E+02  0.37331954036E+02  0.47000000000E+01 0. -1.
        -11    1    6    6    0    0 -0.19526781426E+02 -0.27176081652E+02  0.19890466945E+03  0.20170003008E+03  0.00000000000E+00 0.  1.
         12    1    6    6    0    0  0.59312960372E+02 -0.80121526492E+01  0.60097291079E+03  0.60394590930E+03  0.00000000000E+00 0. -1.
         -5    1    3    3    0  503  0.21636860927E+01 -0.45470509972E+02  0.77968111590E+02  0.90406665902E+02  0.47000000000E+01 0.  1.
         11    1    4    4    0    0 -0.13282826138E+02  0.49845171878E+00  0.74943536775E+02  0.76113176446E+02  0.00000000000E+00 0. -1.
        -12    1    4    4    0    0 -0.22741530924E+02  0.10953207447E+03  0.11664958472E+03  0.16162171322E+03  0.00000000000E+00 0.  1.
</event>
<event>
12    1  0.1030140E-001  0.1771557E+03  0.7818608E-02  0.1171193E+00
         21   -1    0    0  503  502  0.00000000000E+00  0.00000000000E+00  0.86580258354E+02  0.86580258354E+02  0.00000000000E+00 0. -1.
         21   -1    0    0  501  503 -0.00000000000E+00 -0.00000000000E+00 -0.44535526349E+03  0.44535526349E+03  0.00000000000E+00 0. -1.
          6    2    1    2  501    0 -0.95888433266E+01 -0.27257455882E+02 -0.29851183054E+03  0.34712164837E+03  0.17478332581E+03 0.  0.
         24    2    3    3    0    0 -0.31607523474E+02 -0.23335500584E+02 -0.62753988354E+02  0.11025870454E+03  0.81702740132E+02 0.  0.
         -6    2    1    2    0  502  0.95888433266E+01  0.27257455882E+02 -0.60263174595E+02  0.18481387347E+03  0.17230671141E+03 0.  0.
        -24    2    5    5    0    0  0.36586624915E+02 -0.77887933138E+00  0.30764131359E+02  0.85702942022E+02  0.71129281714E+02 0.  0.
          5    1    3    3  501    0  0.22018680148E+02 -0.39219552976E+01 -0.23575784218E+03  0.23686294383E+03  0.47000000000E+01 0. -1.
        -13    1    4    4    0    0  0.23086158645E+02 -0.28943266744E+01 -0.42508866523E+02  0.48459793447E+02  0.00000000000E+00 0.  1.
         14    1    4    4    0    0 -0.54693682119E+02 -0.20441173910E+02 -0.20245121831E+02  0.61798911094E+02  0.00000000000E+00 0. -1.
         -5    1    5    5    0  502 -0.26997781588E+02  0.28036335213E+02 -0.91027305955E+02  0.99110931447E+02  0.47000000000E+01 0.  1.
         13    1    6    6    0    0  0.53333517887E+02 -0.14057833775E+02  0.32902637915E+02  0.64223596928E+02  0.00000000000E+00 0. -1.
        -14    1    6    6    0    0 -0.16746892972E+02  0.13278954444E+02 -0.21385065554E+01  0.21479345093E+02  0.00000000000E+00 0.  1.
</event>
<event>
12    1  0.1030140E-001  0.1945776E+03  0.7818608E-02  0.1154780E+00
         21   -1    0    0  503  502  0.00000000000E+00  0.00000000000E+00  0.19174316461E+02  0.19174316461E+02  0.00000000000E+00 0. -1.
         21   -1    0    0  501  503 -0.00000000000E+00 -0.00000000000E+00 -0.19882531867E+04  0.19882531867E+04  0.00000000000E+00 0. -1.
          6    2    1    2  501    0  0.51340194244E+01  0.88304557848E+02 -0.85405456744E+03  0.87555311646E+03  0.17134760714E+03 0.  0.
         24    2    3    3    0    0 -0.51301637895E+01  0.11807999088E+03 -0.50384148203E+03  0.52389529262E+03  0.81491323400E+02 0.  0.
         -6    2    1    2    0  502 -0.51340194244E+01 -0.88304557848E+02 -0.11150243028E+04  0.11318743867E+04  0.17331006422E+03 0.  0.
        -24    2    5    5    0    0  0.34430990004E+02 -0.49379213137E+02 -0.31959047968E+03  0.33449265291E+03  0.78252542362E+02 0.  0.
          5    1    3    3  501    0  0.10264183214E+02 -0.29775433035E+02 -0.35021308541E+03  0.35165782383E+03  0.47000000000E+01 0. -1.
        -13    1    4    4    0    0  0.51857811733E+01 -0.25088656168E+01 -0.40808001119E-01  0.57609372808E+01  0.00000000000E+00 0.  1.
         14    1    4    4    0    0 -0.10315944963E+02  0.12058885650E+03 -0.50380067403E+03  0.51813435534E+03  0.00000000000E+00 0. -1.
         -5    1    5    5    0  502 -0.39565009429E+02 -0.38925344711E+02 -0.79543382312E+03  0.79738173379E+03  0.47000000000E+01 0.  1.
         13    1    6    6    0    0 -0.22248616783E+02 -0.13266291099E+02 -0.46236373744E+02  0.52998091336E+02  0.00000000000E+00 0. -1.
        -14    1    6    6    0    0  0.56679606787E+02 -0.36112922039E+02 -0.27335410594E+03  0.28149456158E+03  0.00000000000E+00 0.  1.
</event>
<event>
12    1  0.1030140E-001  0.1834049E+03  0.7818608E-02  0.1165132E+00
         21   -1    0    0  501  502  0.00000000000E+00  0.00000000000E+00  0.29133432776E+03  0.29133432776E+03  0.00000000000E+00 0.  1.
         21   -1    0    0  502  503 -0.00000000000E+00 -0.00000000000E+00 -0.11566913839E+03  0.11566913839E+03  0.00000000000E+00 0.  1.
         -6    2    1    2    0  503  0.59218050146E+02 -0.83874270190E+01  0.11228751142E+03  0.21295682013E+03  0.17077762038E+03 0.  0.
        -24    2    3    3    0    0 -0.65850042720E+00  0.41428476134E+02  0.97039473720E+02  0.13344947349E+03  0.81702816703E+02 0.  0.
          6    2    1    2  501    0 -0.59218050146E+02  0.83874270190E+01  0.63377677952E+02  0.19404664602E+03  0.17337890407E+03 0.  0.
         24    2    5    5    0    0 -0.80935474105E+02  0.50310963195E+02  0.14290143064E+02  0.12577582158E+03  0.80830718907E+02 0.  0.
          5    1    5    5  501    0  0.21717423959E+02 -0.41923536176E+02  0.49087534888E+02  0.68270824444E+02  0.47000000000E+01 0. -1.
        -11    1    6    6    0    0  0.40802371773E+01  0.18179350289E+02 -0.21185080175E+02  0.28212492523E+02  0.00000000000E+00 0.  1.
         12    1    6    6    0    0 -0.85015711282E+02  0.32131612905E+02  0.35475223239E+02  0.97563329056E+02  0.00000000000E+00 0. -1.
         -5    1    3    3    0  503  0.59876550573E+02 -0.49815903153E+02  0.15248037700E+02  0.79507346636E+02  0.47000000000E+01 0.  1.
         13    1    4    4    0    0  0.24799254326E+02  0.52912689442E+02  0.42770946709E+02  0.72416224712E+02  0.00000000000E+00 0. -1.
        -14    1    4    4    0    0 -0.25457754754E+02 -0.11484213309E+02  0.54268527010E+02  0.61033248777E+02  0.00000000000E+00 0.  1.
</event>
<event>
12    1  0.1030140E-001  0.3390862E+03  0.7818608E-02  0.1067385E+00
         21   -1    0    0  503  502  0.00000000000E+00  0.00000000000E+00  0.17139564713E+04  0.17139564713E+04  0.00000000000E+00 0. -1.
         21   -1    0    0  501  503 -0.00000000000E+00 -0.00000000000E+00 -0.12764792239E+03  0.12764792239E+03  0.00000000000E+00 0.  1.
          6    2    1    2  501    0 -0.17474443175E+03  0.23353122735E+03  0.15583070560E+03  0.37148659470E+03  0.16925315552E+03 0.  0.
         24    2    3    3    0    0 -0.12697270334E+03  0.23133641135E+03  0.16676317024E+03  0.32220613167E+03  0.79801213817E+02 0.  0.
         -6    2    1    2    0  502  0.17474443175E+03 -0.23353122735E+03  0.14304778434E+04  0.14701177990E+04  0.17293649734E+03 0.  0.
        -24    2    5    5    0    0  0.81295351272E+02 -0.34774287022E+02  0.51698884712E+03  0.53058531518E+03  0.80156867808E+02 0.  0.
          5    1    3    3  501    0 -0.47771728411E+02  0.21948160060E+01 -0.10932464646E+02  0.49280463024E+02  0.47000000000E+01 0. -1.
        -11    1    4    4    0    0 -0.92169778558E+02  0.18733774660E+03  0.90554730895E+02  0.22757605029E+03  0.00000000000E+00 0.  1.
         12    1    4    4    0    0 -0.34802924785E+02  0.43998664751E+02  0.76208439349E+02  0.94630081377E+02  0.00000000000E+00 0. -1.
         -5    1    5    5    0  502  0.93449080481E+02 -0.19875694033E+03  0.91348899623E+03  0.93953248385E+03  0.47000000000E+01 0.  1.
         13    1    6    6    0    0  0.26349969264E+01  0.14344660876E+02  0.19398038850E+03  0.19452789935E+03  0.00000000000E+00 0. -1.
        -14    1    6    6    0    0  0.78660354346E+02 -0.49118947898E+02  0.32300845862E+03  0.33605741583E+03  0.00000000000E+00 0.  1.
</event>
<event>
12    1  0.1030140E-001  0.3582422E+03  0.7818608E-02  0.1059596E+00
         21   -1    0    0  501  502  0.00000000000E+00  0.00000000000E+00  0.19053316690E+03  0.19053316690E+03  0.00000000000E+00 0.  1.
         21   -1    0    0  502  503 -0.00000000000E+00 -0.00000000000E+00 -0.68893754995E+03  0.68893754995E+03  0.00000000000E+00 0. -1.
         -6    2    1    2    0  503  0.26990656331E+03 -0.15832364253E+03 -0.17089855101E+03  0.39408678885E+03  0.16787541127E+03 0.  0.
        -24    2    3    3    0    0  0.25198563404E+03 -0.13753349702E+03 -0.95309821287E+02  0.31353161573E+03  0.82497814891E+02 0.  0.
          6    2    1    2  501    0 -0.26990656331E+03  0.15832364253E+03 -0.32750583204E+03  0.48538392799E+03  0.17441777097E+03 0.  0.
         24    2    5    5    0    0 -0.70201316153E+02  0.82015801427E+02 -0.73214486677E+02  0.15313213991E+03  0.80213931089E+02 0.  0.
          5    1    5    5  501    0 -0.19970524716E+03  0.76307841103E+02 -0.25429134537E+03  0.33225178808E+03  0.47000000000E+01 0. -1.
        -11    1    6    6    0    0 -0.44910901002E+02 -0.19421258676E+01 -0.37164523026E+02  0.58326346135E+02  0.00000000000E+00 0.  1.
         12    1    6    6    0    0 -0.25290415151E+02  0.83957927294E+02 -0.36049963651E+02  0.94805793775E+02  0.00000000000E+00 0. -1.
         -5    1    3    3    0  503  0.17920929269E+02 -0.20790145510E+02 -0.75588729720E+02  0.80555173123E+02  0.47000000000E+01 0.  1.
         13    1    4    4    0    0  0.30294871157E+01 -0.25248412576E+02 -0.53097819000E+01  0.25977950528E+02  0.00000000000E+00 0. -1.
        -14    1    4    4    0    0  0.24895614693E+03 -0.11228508444E+03 -0.90000039387E+02  0.28755366520E+03  0.00000000000E+00 0.  1.
</event>
<event>
12    1  0.1030140E-001  0.1994038E+03  0.7818608E-02  0.1150283E+00
         21   -1    0    0  501  502  0.00000000000E+00  0.00000000000E+00  0.13787285095E+03  0.13787285095E+03  0.00000000000E+00 0. -1.
         21   -1    0    0  502  503 -0.00000000000E+00 -0.00000000000E+00 -0.30865463705E+03  0.30865463705E+03  0.00000000000E+00 0.  1.
         -6    2    1    2    0  503  0.17674410696E+02 -0.99759401726E+02 -0.14301764590E+03  0.24538929952E+03  0.17174847381E+03 0.  0.
        -24    2    3    3    0    0 -0.97642461706E+01 -0.77066026624E+02 -0.16876797210E+03  0.20119610476E+03  0.77218723120E+02 0.  0.
          6    2    1    2  501    0 -0.17674410696E+02  0.99759401726E+02 -0.27764140211E+02  0.20113818848E+03  0.17152667535E+03 0.  0.
         24    2    5    5    0    0  0.15962862975E+02  0.10976922729E+03 -0.62766368135E+02  0.15134954773E+03  0.81627032124E+02 0.  0.
          5    1    5    5  501    0 -0.33637273671E+02 -0.10009825569E+02  0.35002227924E+02  0.49788640749E+02  0.47000000000E+01 0. -1.
        -11    1    6    6    0    0 -0.24758834403E+02  0.54463225486E+01 -0.16069133429E+02  0.30014652413E+02  0.00000000000E+00 0.  1.
         12    1    6    6    0    0  0.40721697378E+02  0.10432290475E+03 -0.46697234707E+02  0.12133489532E+03  0.00000000000E+00 0. -1.
         -5    1    3    3    0  503  0.27438656867E+02 -0.22693375102E+02  0.25750326203E+02  0.44193194767E+02  0.47000000000E+01 0.  1.
         11    1    4    4    0    0 -0.43396595127E+02 -0.48381144891E+02 -0.92619715779E+02  0.11314774147E+03  0.00000000000E+00 0. -1.
        -12    1    4    4    0    0  0.33632348957E+02 -0.28684881733E+02 -0.76148256320E+02  0.88048363284E+02  0.00000000000E+00 0.  1.
</event>
<event>
12    1  0.1030140E-001  0.1833906E+03  0.7818608E-02  0.1164882E+00
         21   -1    0    0  503  502  0.00000000000E+00  0.00000000000E+00  0.61507463090E+03  0.61507463090E+03  0.00000000000E+00 0.  1.
         21   -1    0    0  501  503 -0.00000000000E+00 -0.00000000000E+00 -0.17308354697E+03  0.17308354697E+03  0.00000000000E+00 0.  1.
          6    2    1    2  501    0  0.46171824681E+02  0.41850868871E+02 -0.10524164566E+03  0.21144243625E+03  0.17247830950E+03 0.  0.
         24    2    3    3    0    0  0.25817501066E+02  0.85819306045E+02 -0.10971061148E+03  0.16255906881E+03  0.79734157852E+02 0.  0.
         -6    2    1    2    0  502 -0.46171824681E+02 -0.41850868871E+02  0.54723272958E+03  0.57671574162E+03  0.17103816441E+03 0.  0.
        -24    2    5    5    0    0 -0.86643227273E+02 -0.29200638089E+02  0.27065765257E+03  0.29686966609E+03  0.80723649886E+02 0.  0.
          5    1    3    3  501    0  0.20354323614E+02 -0.43968437174E+02  0.44689658216E+01  0.48883367446E+02  0.47000000000E+01 0. -1.
        -13    1    4    4    0    0  0.51180102589E+02  0.78107446873E+02 -0.83228815705E+02  0.12508881613E+03  0.00000000000E+00 0.  1.
         14    1    4    4    0    0 -0.25362601523E+02  0.77118591723E+01 -0.26481795776E+02  0.37470252674E+02  0.00000000000E+00 0. -1.
         -5    1    5    5    0  502  0.40471402592E+02 -0.12650230782E+02  0.27657507701E+03  0.27984607553E+03  0.47000000000E+01 0.  1.
         13    1    6    6    0    0 -0.86036729431E+01  0.10251235803E+02  0.10372139608E+01  0.13423369041E+02  0.00000000000E+00 0. -1.
        -14    1    6    6    0    0 -0.78039554330E+02 -0.39451873892E+02  0.26962043861E+03  0.28344629705E+03  0.00000000000E+00 0.  1.
</event>
<event>
12    1  0.1030140E-001  0.1869249E+03  0.7818608E-02  0.1161311E+00
         21   -1    0    0  503  502  0.00000000000E+00  0.00000000000E+00  0.15339163506E+03  0.15339163506E+03  0.00000000000E+00 0. -1.
         21   -1    0    0  501  503 -0.00000000000E+00 -0.00000000000E+00 -0.26233409406E+03  0.26233409406E+03  0.00000000000E+00 0. -1.
          6    2    1    2  501    0 -0.73343974162E+02  0.11069253425E+02 -0.13014568824E+03  0.22760216183E+03  0.17135628668E+03 0.  0.
         24    2    3    3    0    0 -0.79751952555E+02 -0.50317587974E+02 -0.10576922486E+03  0.16107616352E+03  0.76590912851E+02 0.  0.
         -6    2    1    2    0  502  0.73343974162E+02 -0.11069253425E+02  0.21203229245E+02  0.18812356729E+03  0.17157806597E+03 0.  0.
        -24    2    5    5    0    0 -0.19873157259E+02 -0.51348626259E+01 -0.21418650211E+02  0.85345334217E+02  0.80023485941E+02 0.  0.
          5    1    3    3  501    0  0.64079783932E+01  0.61386841399E+02 -0.24376463381E+02  0.66525998309E+02  0.47000000000E+01 0. -1.
        -11    1    4    4    0    0 -0.89180424658E+02 -0.29873139656E+02 -0.64428607210E+02  0.11400262296E+03  0.00000000000E+00 0.  1.
         12    1    4    4    0    0  0.94284721026E+01 -0.20444448318E+02 -0.41340617648E+02  0.47073540559E+02  0.00000000000E+00 0. -1.
         -5    1    5    5    0  502  0.93217131422E+02 -0.59343907995E+01  0.42621879456E+02  0.10277823307E+03  0.47000000000E+01 0.  1.
         11    1    6    6    0    0 -0.14367318662E+02 -0.16276399956E+02  0.27406330344E+02  0.34963523621E+02  0.00000000000E+00 0. -1.
        -12    1    6    6    0    0 -0.55058385973E+01  0.11141537330E+02 -0.48824980555E+02  0.50381810596E+02  0.00000000000E+00 0.  1.
</event>
<event>
12    1  0.1030140E-001  0.2042209E+03  0.7818608E-02  0.1147729E+00
         21   -1    0    0  503  502  0.00000000000E+00  0.00000000000E+00  0.97322256500E+02  0.97322256500E+02  0.00000000000E+00 0.  1.
         21   -1    0    0  501  503 -0.00000000000E+00 -0.00000000000E+00 -0.42247954492E+03  0.42247954492E+03  0.00000000000E+00 0.  1.
          6    2    1    2  501    0  0.69294542367E+02  0.42667480060E+02 -0.20311818111E+03  0.28803327131E+03  0.18730702717E+03 0.  0.
         24    2    3    3    0    0  0.12245751310E+03  0.29382344404E+02 -0.15524988540E+03  0.21512058366E+03  0.79468068552E+02 0.  0.
         -6    2    1    2    0  502 -0.69294542367E+02 -0.42667480060E+02 -0.12203910731E+03  0.23176853011E+03  0.17944598179E+03 0.  0.
        -24    2    5    5    0    0  0.17825813819E+02 -0.43273987709E+02 -0.11385704124E+03  0.14413656951E+03  0.74976844296E+02 0.  0.
          5    1    3    3  501    0 -0.53162970731E+02  0.13285135655E+02 -0.47868295708E+02  0.72912687649E+02  0.47000000000E+01 0. -1.
        -11    1    4    4    0    0  0.35645222143E+01 -0.19771562257E+02 -0.24581604072E+02  0.31747058942E+02  0.00000000000E+00 0.  1.
         12    1    4    4    0    0  0.11889299088E+03  0.49153906661E+02 -0.13066828133E+03  0.18337352472E+03  0.00000000000E+00 0. -1.
         -5    1    5    5    0  502 -0.87120356185E+02  0.60650764960E+00 -0.81820660716E+01  0.87631960600E+02  0.47000000000E+01 0.  1.
         11    1    6    6    0    0  0.16623846444E+02 -0.63934851928E+02 -0.73790819121E+02  0.99040913506E+02  0.00000000000E+00 0. -1.
        -12    1    6    6    0    0  0.12019673744E+01  0.20660864218E+02 -0.40066222119E+02  0.45095656007E+02  0.00000000000E+00 0.  1.
</event>
<event>
12    1  0.1030140E-001  0.2001604E+03  0.7818608E-02  0.1149761E+00
         21   -1    0    0  503  502  0.00000000000E+00  0.00000000000E+00  0.99493790041E+02  0.99493790041E+02  0.00000000000E+00 0. -1.
         21   -1    0    0  501  503 -0.00000000000E+00 -0.00000000000E+00 -0.75345731249E+03  0.75345731249E+03  0.00000000000E+00 0.  1.
          6    2    1    2  501    0  0.46883357214E+02 -0.92390312243E+02 -0.61826818897E+03  0.64963274537E+03  0.17039111298E+03 0.  0.
         24    2    3    3    0    0  0.61351272846E+02  0.22318496774E+00 -0.23531385434E+03  0.25534516902E+03  0.77875007595E+02 0.  0.
         -6    2    1    2    0  502 -0.46883357214E+02  0.92390312243E+02 -0.35695333484E+02  0.20331835717E+03  0.17126055748E+03 0.  0.
        -24    2    5    5    0    0 -0.50996465151E+02  0.33091389632E+02 -0.80296849981E+02  0.12885584879E+03  0.80377646923E+02 0.  0.
          5    1    3    3  501    0 -0.14467915633E+02 -0.92613497211E+02 -0.38295433463E+03  0.39428757634E+03  0.47000000000E+01 0. -1.
        -11    1    4    4    0    0  0.70529802797E+02 -0.15597910112E+02 -0.21978718935E+03  0.23135288303E+03  0.00000000000E+00 0.  1.
         12    1    4    4    0    0 -0.91785299501E+01  0.15821095080E+02 -0.15526664985E+02  0.23992285992E+02  0.00000000000E+00 0. -1.
         -5    1    5    5    0  502  0.41131079375E+01  0.59298922612E+02  0.44601516497E+02  0.74462508376E+02  0.47000000000E+01 0.  1.
         13    1    6    6    0    0  0.30800369663E+01  0.44041424497E+02 -0.46663385624E+02  0.64238658589E+02  0.00000000000E+00 0. -1.
        -14    1    6    6    0    0 -0.54076502117E+02 -0.10950034865E+02 -0.33633464357E+02  0.64617190201E+02  0.00000000000E+00 0.  1.
</event>
<event>
12    1  0.1030140E-001  0.1922168E+03  0.7818608E-02  0.1156666E+00
         21   -1    0    0  503  502  0.00000000000E+00  0.00000000000E+00  0.43051451264E+03  0.43051451264E+03  0.00000000000E+00 0. -1.
         21   -1    0    0  501  503 -0.00000000000E+00 -0.00000000000E+00 -0.22173217137E+03  0.22173217137E+03  0.00000000000E+00 0.  1.
          6    2    1    2  501    0  0.61582325199E+02  0.58921346240E+02 -0.15120056878E+03  0.24455859495E+03  0.17228809171E+03 0.  0.
         24    2    3    3    0    0  0.10131915385E+03  0.73022444760E+02 -0.12496210270E+03  0.19467469341E+03  0.81760997853E+02 0.  0.
         -6    2    1    2    0  502 -0.61582325199E+02 -0.58921346240E+02  0.35998291005E+03  0.40768808906E+03  0.17134110603E+03 0.  0.
        -24    2    5    5    0    0 -0.45721111492E+01 -0.75877416099E+02  0.13843628094E+03  0.17824818041E+03  0.82640930936E+02 0.  0.
          5    1    3    3  501    0 -0.39736828648E+02 -0.14101098519E+02 -0.26238466080E+02  0.49883901538E+02  0.47000000000E+01 0. -1.
        -11    1    4    4    0    0  0.32207165753E+01 -0.13448908356E+02 -0.30089724797E+02  0.33115520373E+02  0.00000000000E+00 0.  1.
         12    1    4    4    0    0  0.98098437272E+02  0.86471353116E+02 -0.94872377900E+02  0.16155917304E+03  0.00000000000E+00 0. -1.
         -5    1    5    5    0  502 -0.57010214050E+02  0.16956069859E+02  0.22154662911E+03  0.22943990865E+03  0.47000000000E+01 0.  1.
         13    1    6    6    0    0 -0.39428932902E+02 -0.58709435077E+02  0.10704449678E+03  0.12829638657E+03  0.00000000000E+00 0. -1.
        -14    1    6    6    0    0  0.34856821753E+02 -0.17167981022E+02  0.31391784158E+02  0.49951793839E+02  0.00000000000E+00 0.  1.
</event>
<event>
12    1  0.1030140E-001  0.1881749E+03  0.7818608E-02  0.1160953E+00
         21   -1    0    0  501  502  0.00000000000E+00  0.00000000000E+00  0.64905186153E+02  0.64905186153E+02  0.00000000000E+00 0.  1.
         21   -1    0    0  502  503 -0.00000000000E+00 -0.00000000000E+00 -0.56560514569E+03  0.56560514569E+03  0.00000000000E+00 0.  1.
         -6    2    1    2    0  503  0.11612388199E+02 -0.64581818337E+02 -0.32124227852E+03  0.37048177346E+03  0.17249488149E+03 0.  0.
        -24    2    3    3    0    0 -0.41013277298E+02 -0.68449896198E+02 -0.28569889184E+03  0.30668643639E+03  0.77879626750E+02 0.  0.
          6    2    1    2  501    0 -0.11612388199E+02  0.64581818337E+02 -0.17945768102E+03  0.26002855838E+03  0.17636363876E+03 0.  0.
         24    2    5    5    0    0 -0.43668088620E+02  0.10105476055E+03 -0.15671063412E+03  0.20620141294E+03  0.76431886413E+02 0.  0.
          5    1    5    5  501    0  0.32055700421E+02 -0.36472942215E+02 -0.22747046903E+02  0.53827145439E+02  0.47000000000E+01 0. -1.
        -11    1    6    6    0    0 -0.33259813819E+02  0.10739510064E+03 -0.15803116835E+03  0.19394270553E+03  0.00000000000E+00 0.  1.
         12    1    6    6    0    0 -0.10408274801E+02 -0.63403400927E+01  0.13205342330E+01  0.12258707415E+02  0.00000000000E+00 0. -1.
         -5    1    3    3    0  503  0.52625665497E+02  0.38680778616E+01 -0.35543386676E+02  0.63795337069E+02  0.47000000000E+01 0.  1.
         13    1    4    4    0    0 -0.18366188492E+02  0.15559925598E+02 -0.73524020390E+02  0.77364137290E+02  0.00000000000E+00 0. -1.
        -14    1    4    4    0    0 -0.22647088806E+02 -0.84009821796E+02 -0.21217487145E+03  0.22932229910E+03  0.00000000000E+00 0.  1.
</event>
<event>
12    1  0.1030140E-001  0.3136371E+03  0.7818608E-02  0.1079584E+00
         21   -1    0    0  503  502  0.00000000000E+00  0.00000000000E+00  0.41875409055E+03  0.41875409055E+03  0.00000000000E+00 0.  1.
         21   -1    0    0  501  503 -0.00000000000E+00 -0.00000000000E+00 -0.25497243854E+03  0.25497243854E+03  0.00000000000E+00 0.  1.
          6    2    1    2  501    0  0.65747871549E+02  0.25299511788E+03 -0.26803046170E+02  0.30672417248E+03  0.15821505116E+03 0.  0.
         24    2    3    3    0    0 -0.11640378963E+02  0.77933007319E+02 -0.24975097582E+02  0.11525324709E+03  0.80315026078E+02 0.  0.
         -6    2    1    2    0  502 -0.65747871549E+02 -0.25299511788E+03  0.19058469818E+03  0.36700235661E+03  0.17331731100E+03 0.  0.
        -24    2    5    5    0    0  0.26331395604E+02 -0.89294689216E+02  0.95890800116E+02  0.15660880605E+03  0.81635707078E+02 0.  0.
          5    1    3    3  501    0  0.77388250512E+02  0.17506211056E+03 -0.18279485876E+01  0.19147092539E+03  0.47000000000E+01 0. -1.
        -13    1    4    4    0    0  0.29741557229E+02  0.56499560705E+02 -0.25218691581E+02  0.68649420910E+02  0.00000000000E+00 0.  1.
         14    1    4    4    0    0 -0.41381936192E+02  0.21433446614E+02  0.24359399818E+00  0.46603826182E+02  0.00000000000E+00 0. -1.
         -5    1    5    5    0  502 -0.92079267153E+02 -0.16370042867E+03  0.94693898061E+02  0.21039355055E+03  0.47000000000E+01 0.  1.
         13    1    6    6    0    0 -0.24322058052E+02 -0.99445065291E+01  0.71388542195E+01  0.27229009485E+02  0.00000000000E+00 0. -1.
        -14    1    6    6    0    0  0.50653453656E+02 -0.79350182687E+02  0.88751945897E+02  0.12937979657E+03  0.00000000000E+00 0.  1.
</event>
<event>
12    1  0.1030140E-001  0.1821093E+03  0.7818608E-02  0.1166153E+00
         21   -1    0    0  503  502  0.00000000000E+00  0.00000000000E+00  0.24773477918E+04  0.24773477918E+04  0.00000000000E+00 0. -1.
         21   -1    0    0  501  503 -0.00000000000E+00 -0.00000000000E+00 -0.17538142316E+02  0.17538142316E+02  0.00000000000E+00 0. -1.
          6    2    1    2  501    0  0.54562965137E+02 -0.67487977802E+01  0.61867315546E+03  0.64491880571E+03  0.17361200774E+03 0.  0.
         24    2    3    3    0    0 -0.10671303329E+02 -0.55504882691E+02  0.34691216196E+03  0.36117809099E+03  0.83107740796E+02 0.  0.
         -6    2    1    2    0  502 -0.54562965137E+02  0.67487977802E+01  0.18411364940E+04  0.18499671284E+04  0.17196547076E+03 0.  0.
        -24    2    5    5    0    0 -0.94365495213E+01  0.28402979234E+02  0.16548652470E+04  0.16570309617E+04  0.79226539583E+02 0.  0.
          5    1    3    3  501    0  0.65234268466E+02  0.48756084911E+02  0.27176099351E+03  0.28374071472E+03  0.47000000000E+01 0. -1.
        -13    1    4    4    0    0 -0.73308423359E+01  0.29142710619E+01 -0.13766523641E+01  0.80080832231E+01  0.00000000000E+00 0.  1.
         14    1    4    4    0    0 -0.33404609934E+01 -0.58419153753E+02  0.34828881432E+03  0.35317000777E+03  0.00000000000E+00 0. -1.
         -5    1    5    5    0  502 -0.45126415616E+02 -0.21654181453E+02  0.18627124703E+03  0.19293616672E+03  0.47000000000E+01 0.  1.
         13    1    6    6    0    0 -0.29131606985E+02 -0.99077639790E+01  0.11239171509E+04  0.11243382838E+04  0.00000000000E+00 0. -1.
        -14    1    6    6    0    0  0.19695057464E+02  0.38310743213E+02  0.53094809609E+03  0.53269267789E+03  0.00000000000E+00 0.  1.
</event>
<event>
12    1  0.1030140E-001  0.3104102E+03  0.7818608E-02  0.1080375E+00
         21   -1    0    0  503  502  0.00000000000E+00  0.00000000000E+00  0.17579552094E+04  0.17579552094E+04  0.00000000000E+00 0. -1.
         21   -1    0    0  501  503 -0.00000000000E+00 -0.00000000000E+00 -0.94598141593E+02  0.94598141593E+02  0.00000000000E+00 0.  1.
          6    2    1    2  501    0 -0.18697558182E+03  0.17590339355E+03  0.22991695259E+03  0.38628527142E+03  0.17450683015E+03 0.  0.
         24    2    3    3    0    0 -0.21756623150E+02  0.44996255133E+02  0.11064060443E+03  0.14403969267E+03  0.77511780331E+02 0.  0.
         -6    2    1    2    0  502  0.18697558182E+03 -0.17590339355E+03  0.14334401152E+04  0.14662680796E+04  0.17114217836E+03 0.  0.
        -24    2    5    5    0    0  0.16925599853E+03 -0.70012124958E+02  0.98132398114E+03  0.10015552294E+04  0.81035985612E+02 0.  0.
          5    1    3    3  501    0 -0.16521895867E+03  0.13090713842E+03  0.11927634816E+03  0.24224557875E+03  0.47000000000E+01 0. -1.
        -13    1    4    4    0    0 -0.32227714851E+02  0.11936582886E+02  0.74330937780E+01  0.35161889861E+02  0.00000000000E+00 0.  1.
         14    1    4    4    0    0  0.10471091701E+02  0.33059672247E+02  0.10320751065E+03  0.10887780281E+03  0.00000000000E+00 0. -1.
         -5    1    5    5    0  502  0.17719583286E+02 -0.10589126859E+03  0.45211613410E+03  0.46471285016E+03  0.47000000000E+01 0.  1.
         13    1    6    6    0    0  0.11854251167E+03 -0.42437340121E+02  0.83179658598E+03  0.84127214108E+03  0.00000000000E+00 0. -1.
        -14    1    6    6    0    0  0.50713486863E+02 -0.27574784837E+02  0.14952739516E+03  0.16028308835E+03  0.00000000000E+00 0.  1.
</event>
<event>
12    1  0.1030140E-001  0.1994195E+03  0.7818608E-02  0.1150315E+00
         21   -1    0    0  501  502  0.00000000000E+00  0.00000000000E+00  0.19044051377E+03  0.19044051377E+03  0.00000000000E+00 0. -1.
         21   -1    0    0  502  503 -0.00000000000E+00 -0.00000000000E+00 -0.32055173587E+03  0.32055173587E+03  0.00000000000E+00 0.  1.
         -6    2    1    2    0  503 -0.70862412692E+01 -0.10107781340E+03 -0.21622220056E+03  0.29414315654E+03  0.17175918417E+03 0.  0.
        -24    2    3    3    0    0 -0.79571294683E+01 -0.13930089018E+03 -0.17842795015E+03  0.24017782129E+03  0.79879900668E+02 0.  0.
          6    2    1    2  501    0  0.70862412692E+01  0.10107781340E+03  0.86110978448E+02  0.21684909311E+03  0.17129357663E+03 0.  0.
         24    2    5    5    0    0 -0.14205900979E+02  0.13546920769E+03  0.62251872927E+02  0.16965301023E+03  0.79706551446E+02 0.  0.
          5    1    5    5  501    0  0.21292142248E+02 -0.34391394287E+02  0.23859105521E+02  0.47196082875E+02  0.47000000000E+01 0. -1.
        -13    1    6    6    0    0  0.22112996749E+02  0.47683413629E+02 -0.56722138056E+01  0.52866497614E+02  0.00000000000E+00 0.  1.
         14    1    6    6    0    0 -0.36318897728E+02  0.87785794058E+02  0.67924086733E+02  0.11678651262E+03  0.00000000000E+00 0. -1.
         -5    1    3    3    0  503  0.87088819910E+00  0.38223076777E+02 -0.37794250404E+02  0.53965335245E+02  0.47000000000E+01 0.  1.
         13    1    4    4    0    0 -0.12318498784E+02  0.71566899394E+01 -0.15192106411E+02  0.20826994992E+02  0.00000000000E+00 0. -1.
        -14    1    4    4    0    0  0.43613693162E+01 -0.14645758012E+03 -0.16323584374E+03  0.21935082630E+03  0.00000000000E+00 0.  1.
</event>
<event>
12    1  0.1030140E-001  0.2770113E+03  0.7818608E-02  0.1097409E+00
         21   -1    0    0  503  502  0.00000000000E+00  0.00000000000E+00  0.23105768423E+03  0.23105768423E+03  0.00000000000E+00 0.  1.
         21   -1    0    0  501  503 -0.00000000000E+00 -0.00000000000E+00 -0.44461275659E+03  0.44461275659E+03  0.00000000000E+00 0. -1.
          6    2    1    2  501    0 -0.11413422542E+03 -0.18347458415E+03 -0.27729867824E+03  0.39195637695E+03  0.17333695519E+03 0.  0.
         24    2    3    3    0    0 -0.96195974959E+02 -0.63722034604E+02 -0.21419337652E+03  0.25532979440E+03  0.77461849144E+02 0.  0.
         -6    2    1    2    0  502  0.11413422542E+03  0.18347458415E+03  0.63743605876E+02  0.28371406387E+03  0.17245543862E+03 0.  0.
        -24    2    5    5    0    0  0.99592819122E+02  0.42628461527E+02  0.32138845110E+02  0.13855885846E+03  0.80185637994E+02 0.  0.
          5    1    3    3  501    0 -0.17938250458E+02 -0.11975254955E+03 -0.63105301729E+02  0.13662658255E+03  0.47000000000E+01 0. -1.
        -11    1    4    4    0    0 -0.18926204572E+02 -0.15681756043E+02 -0.12683670103E+03  0.12919623609E+03  0.00000000000E+00 0.  1.
         12    1    4    4    0    0 -0.77269770387E+02 -0.48040278561E+02 -0.87356675489E+02  0.12613355831E+03  0.00000000000E+00 0. -1.
         -5    1    5    5    0  502  0.14541406296E+02  0.14084612262E+03  0.31604760766E+02  0.14515520541E+03  0.47000000000E+01 0.  1.
         11    1    6    6    0    0  0.61756575566E+02  0.21111031672E+02  0.58521869427E+02  0.87660478468E+02  0.00000000000E+00 0. -1.
        -12    1    6    6    0    0  0.37836243556E+02  0.21517429854E+02 -0.26383024317E+02  0.50898379994E+02  0.00000000000E+00 0.  1.
</event>
<event>
12    1  0.1030140E-001  0.1759985E+03  0.7818608E-02  0.1172809E+00
         21   -1    0    0  501  502  0.00000000000E+00  0.00000000000E+00  0.12952233668E+02  0.12952233668E+02  0.00000000000E+00 0.  1.
         21   -1    0    0  502  503 -0.00000000000E+00 -0.00000000000E+00 -0.24094910080E+04  0.24094910080E+04  0.00000000000E+00 0.  1.
         -6    2    1    2    0  503 -0.17740497813E+02 -0.17337774144E+02 -0.13984744353E+04  0.14089799227E+04  0.16993632004E+03 0.  0.
        -24    2    3    3    0    0 -0.21733550369E+02 -0.62251739327E+02 -0.52569431339E+03  0.53502315040E+03  0.74482441408E+02 0.  0.
          6    2    1    2  501    0  0.17740497813E+02  0.17337774144E+02 -0.99806433911E+03  0.10134633190E+04  0.17424164330E+03 0.  0.
         24    2    5    5    0    0  0.74301211645E+02  0.37883314978E+02 -0.70996852149E+03  0.71911229771E+03  0.78175313293E+02 0.  0.
          5    1    5    5  501    0 -0.56560713833E+02 -0.20545540834E+02 -0.28809581762E+03  0.29435102128E+03  0.47000000000E+01 0. -1.
        -11    1    6    6    0    0  0.12133224180E+02 -0.11036017697E+02 -0.35747715050E+03  0.35785321285E+03  0.00000000000E+00 0.  1.
         12    1    6    6    0    0  0.62167987466E+02  0.48919332675E+02 -0.35249137099E+03  0.36125908486E+03  0.00000000000E+00 0. -1.
         -5    1    3    3    0  503  0.39930525568E+01  0.44913965183E+02 -0.87278012187E+03  0.87395677231E+03  0.47000000000E+01 0.  1.
         11    1    4    4    0    0 -0.32475220986E+02 -0.32409677604E+02 -0.45771810432E+03  0.46001183703E+03  0.00000000000E+00 0. -1.
        -12    1    4    4    0    0  0.10741670616E+02 -0.29842061723E+02 -0.67976209065E+02  0.75011313376E+02  0.00000000000E+00 0.  1.
</event>
<event>
12    1  0.1030140E-001  0.1748342E+03  0.7818608E-02  0.1173455E+00
         21   -1    0    0  503  502  0.00000000000E+00  0.00000000000E+00  0.19160130818E+03  0.19160130818E+03  0.00000000000E+00 0.  1.
         21   -1    0    0  501  503 -0.00000000000E+00 -0.00000000000E+00 -0.20033148741E+03  0.20033148741E+03  0.00000000000E+00 0.  1.
          6    2    1    2  501    0 -0.21396358528E+02  0.71176675078E+01 -0.94964107036E+02  0.19896025152E+03  0.17337397356E+03 0.  0.
         24    2    3    3    0    0 -0.69529296578E+02  0.31744017685E+02 -0.90578707429E+02  0.14451249143E+03  0.82688283327E+02 0.  0.
         -6    2    1    2    0  502  0.21396358528E+02 -0.71176675078E+01  0.86233927811E+02  0.19297254407E+03  0.17115386969E+03 0.  0.
        -24    2    5    5    0    0  0.41366789602E+02 -0.31042958628E+02 -0.41965825164E+01  0.97207180443E+02  0.82199440768E+02 0.  0.
          5    1    3    3  501    0  0.48132938049E+02 -0.24626350177E+02 -0.43853996070E+01  0.54447760083E+02  0.47000000000E+01 0. -1.
        -13    1    4    4    0    0 -0.49330371617E+02 -0.22317567763E+02 -0.35558999498E+02  0.64776553166E+02  0.00000000000E+00 0.  1.
         14    1    4    4    0    0 -0.20198924960E+02  0.54061585448E+02 -0.55019707931E+02  0.79735938268E+02  0.00000000000E+00 0. -1.
         -5    1    5    5    0  502 -0.19970431074E+02  0.23925291120E+02  0.90430510327E+02  0.95765363627E+02  0.47000000000E+01 0.  1.
         11    1    6    6    0    0  0.22228684731E+02  0.26672397542E+02 -0.99813093847E+01  0.36126967110E+02  0.00000000000E+00 0. -1.
        -12    1    6    6    0    0  0.19138104872E+02 -0.57715356170E+02  0.57847268682E+01  0.61080213334E+02  0.00000000000E+00 0.  1.
</event>
<event>
12    1  0.1030140E-001  0.1807042E+03  0.7818608E-02  0.1167135E+00
         21   -1    0    0  503  502  0.00000000000E+00  0.00000000000E+00  0.16649688685E+03  0.16649688685E+03  0.00000000000E+00 0.  1.
         21   -1    0    0  501  503 -0.00000000000E+00 -0.00000000000E+00 -0.19617674409E+03  0.19617674409E+03  0.00000000000E+00 0.  1.
          6    2    1    2  501    0 -0.78579386306E+01  0.55341798056E+02 -0.19049132006E+02  0.18170543627E+03  0.17184159662E+03 0.  0.
         24    2    3    3    0    0  0.21242598530E+02  0.89597905200E+02 -0.45570793538E+02  0.12930495278E+03  0.78511406693E+02 0.  0.
         -6    2    1    2    0  502  0.78579386306E+01 -0.55341798056E+02 -0.10630725239E+02  0.18096819467E+03  0.17179060903E+03 0.  0.
        -24    2    5    5    0    0  0.48846293095E+02  0.19873257253E+02 -0.16941639268E+02  0.94949200356E+02  0.77119548780E+02 0.  0.
          5    1    3    3  501    0 -0.29100537161E+02 -0.34256107144E+02  0.26521661532E+02  0.52400483491E+02  0.47000000000E+01 0. -1.
        -11    1    4    4    0    0  0.23127399347E+02  0.33439133997E+02 -0.58886021223E+02  0.71558478034E+02  0.00000000000E+00 0.  1.
         12    1    4    4    0    0 -0.18848008168E+01  0.56158771203E+02  0.13315227685E+02  0.57746474745E+02  0.00000000000E+00 0. -1.
         -5    1    5    5    0  502 -0.40988354465E+02 -0.75215055309E+02  0.63109140284E+01  0.86018994314E+02  0.47000000000E+01 0.  1.
         11    1    6    6    0    0  0.48743679091E+02  0.44941255238E+02 -0.21018363743E+02  0.69551666321E+02  0.00000000000E+00 0. -1.
        -12    1    6    6    0    0  0.10261400444E+00 -0.25067997984E+02  0.40767244749E+01  0.25397534034E+02  0.00000000000E+00 0.  1.
</event>
<event>
12    1  0.1030140E-001  0.1827618E+03  0.7818608E-02  0.1165294E+00
         21   -1    0    0  501  502  0.00000000000E+00  0.00000000000E+00  0.11152707595E+04  0.11152707595E+04  0.00000000000E+00 0.  1.
         21   -1    0    0  502  503 -0.00000000000E+00 -0.00000000000E+00 -0.33337143442E+02  0.33337143442E+02  0.00000000000E+00 0.  1.
         -6    2    1    2    0  503  0.57928946833E+02  0.16420900416E+02  0.72733721024E+03  0.74994753841E+03  0.17255863965E+03 0.  0.
        -24    2    3    3    0    0 -0.27712289900E+02  0.31617426788E+02  0.27565439101E+03  0.28994230471E+03  0.79457939132E+02 0.  0.
          6    2    1    2  501    0 -0.57928946833E+02 -0.16420900416E+02  0.35459640581E+03  0.39866036452E+03  0.17194785947E+03 0.  0.
         24    2    5    5    0    0  0.17512509737E+02  0.23171253416E+02  0.10885535832E+03  0.13852635206E+03  0.80600658804E+02 0.  0.
          5    1    5    5  501    0 -0.75441456570E+02 -0.39592153832E+02  0.24574104749E+03  0.26013401246E+03  0.47000000000E+01 0. -1.
        -11    1    6    6    0    0 -0.23452202281E+02  0.47731960427E+01  0.37439290178E+01  0.24224082991E+02  0.00000000000E+00 0.  1.
         12    1    6    6    0    0  0.40964712018E+02  0.18398057373E+02  0.10511142930E+03  0.11430226907E+03  0.00000000000E+00 0. -1.
         -5    1    3    3    0  503  0.85641236732E+02 -0.15196526372E+02  0.45168281923E+03  0.46000523370E+03  0.47000000000E+01 0.  1.
         13    1    4    4    0    0  0.20052406934E+01  0.39549338381E+02  0.58638928757E+02  0.70758003945E+02  0.00000000000E+00 0. -1.
        -14    1    4    4    0    0 -0.29717530593E+02 -0.79319115929E+01  0.21701546225E+03  0.21918430077E+03  0.00000000000E+00 0.  1.
</event>
<event>
12    1  0.1030140E-001  0.1987004E+03  0.7818608E-02  0.1151117E+00
         21   -1    0    0  501  502  0.00000000000E+00  0.00000000000E+00  0.16284867228E+03  0.16284867228E+03  0.00000000000E+00 0. -1.
         21   -1    0    0  502  503 -0.00000000000E+00 -0.00000000000E+00 -0.26568055024E+03  0.26568055024E+03  0.00000000000E+00 0.  1.
         -6    2    1    2    0  503 -0.46355955548E+02 -0.86352772901E+02  0.13913494667E+02  0.19918695072E+03  0.17284727362E+03 0.  0.
        -24    2    3    3    0    0  0.41116191755E+01 -0.81466880765E+02  0.62042493840E+02  0.12912027817E+03  0.78543090842E+02 0.  0.
          6    2    1    2  501    0  0.46355955548E+02  0.86352772901E+02 -0.11674537263E+03  0.22934227181E+03  0.17135553567E+03 0.  0.
         24    2    5    5    0    0  0.68585529862E+02  0.77470258234E+02 -0.23608127072E+02  0.13306304481E+03  0.80267144049E+02 0.  0.
          5    1    5    5  501    0 -0.22229574314E+02  0.88825146668E+01 -0.93137245558E+02  0.96279226996E+02  0.47000000000E+01 0. -1.
        -11    1    6    6    0    0  0.37747645754E+02  0.77011641457E+02 -0.43697722205E+02  0.96255745833E+02  0.00000000000E+00 0.  1.
         12    1    6    6    0    0  0.30837884107E+02  0.45861677664E+00  0.20089595133E+02  0.36807298980E+02  0.00000000000E+00 0. -1.
         -5    1    3    3    0  503 -0.50467574724E+02 -0.48858921358E+01 -0.48128999173E+02  0.70066672547E+02  0.47000000000E+01 0.  1.
         13    1    4    4    0    0 -0.33558941847E+02 -0.62569872111E+02  0.36407715560E+02  0.79791686447E+02  0.00000000000E+00 0. -1.
        -14    1    4    4    0    0  0.37670561023E+02 -0.18897008654E+02  0.25634778280E+02  0.49328591722E+02  0.00000000000E+00 0.  1.
</event>
<event>
12    1  0.1030140E-001  0.1808998E+03  0.7818608E-02  0.1167525E+00
         21   -1    0    0  501  502  0.00000000000E+00  0.00000000000E+00  0.22381091358E+03  0.22381091358E+03  0.00000000000E+00 0. -1.
         21   -1    0    0  502  503 -0.00000000000E+00 -0.00000000000E+00 -0.15952164055E+03  0.15952164055E+03  0.00000000000E+00 0. -1.
         -6    2    1    2    0  503 -0.15514299087E+01 -0.57441203554E+02 -0.26952385714E+02  0.18289660127E+03  0.17153086270E+03 0.  0.
        -24    2    3    3    0    0  0.52718716658E+02  0.51190503831E+01 -0.29108975613E+02  0.99916030888E+02  0.79563892590E+02 0.  0.
          6    2    1    2  501    0  0.15514299087E+01  0.57441203554E+02  0.91241658734E+02  0.20043595286E+03  0.16896044540E+03 0.  0.
         24    2    5    5    0    0  0.12583925281E+01 -0.35225624763E+02  0.21551795434E+02  0.84392883320E+02  0.73588386835E+02 0.  0.
          5    1    5    5  501    0  0.29303738055E+00  0.92666828317E+02  0.69689863300E+02  0.11604306954E+03  0.47000000000E+01 0. -1.
        -11    1    6    6    0    0  0.21880580281E+02  0.32002573251E+01  0.32611982328E+02  0.39402320131E+02  0.00000000000E+00 0.  1.
         12    1    6    6    0    0 -0.20622187753E+02 -0.38425882088E+02 -0.11060186893E+02  0.44990563189E+02  0.00000000000E+00 0. -1.
         -5    1    3    3    0  503 -0.54270146567E+02 -0.62560253937E+02  0.21565898994E+01  0.82980570383E+02  0.47000000000E+01 0.  1.
         13    1    4    4    0    0  0.71643831743E+02 -0.87358149820E+00 -0.99669598232E+01  0.72339076989E+02  0.00000000000E+00 0. -1.
        -14    1    4    4    0    0 -0.18925115085E+02  0.59926318813E+01 -0.19142015790E+02  0.27576953899E+02  0.00000000000E+00 0.  1.
</event>
<event>
12    1  0.1030140E-001  0.2001049E+03  0.7818608E-02  0.1150265E+00
         21   -1    0    0  503  502  0.00000000000E+00  0.00000000000E+00  0.21100244314E+03  0.21100244314E+03  0.00000000000E+00 0. -1.
         21   -1    0    0  501  503 -0.00000000000E+00 -0.00000000000E+00 -0.19504150337E+03  0.19504150337E+03  0.00000000000E+00 0. -1.
          6    2    1    2  501    0  0.10657283669E+02  0.94687515772E+02  0.49165047161E+02  0.20605624016E+03  0.17596212351E+03 0.  0.
         24    2    3    3    0    0  0.10512516020E+01 -0.10759984314E+02 -0.15451975751E+02  0.81923646635E+02  0.79723509274E+02 0.  0.
         -6    2    1    2    0  502 -0.10657283669E+02 -0.94687515772E+02 -0.33204107392E+02  0.19998770635E+03  0.17266518643E+03 0.  0.
        -24    2    5    5    0    0 -0.57780577719E+02 -0.89156533472E+02 -0.59144689824E+02  0.14570879310E+03  0.80283718333E+02 0.  0.
          5    1    3    3  501    0  0.96060320674E+01  0.10544750009E+03  0.64617022911E+02  0.12413259353E+03  0.47000000000E+01 0. -1.
        -11    1    4    4    0    0  0.14668531469E+02  0.32199196525E+02 -0.72266837730E+01  0.36113418983E+02  0.00000000000E+00 0.  1.
         12    1    4    4    0    0 -0.13617279867E+02 -0.42959180839E+02 -0.82252919778E+01  0.45810227651E+02  0.00000000000E+00 0. -1.
         -5    1    5    5    0  502  0.47123294049E+02 -0.55309823006E+01  0.25940582432E+02  0.54278913255E+02  0.47000000000E+01 0.  1.
         11    1    6    6    0    0  0.13255544196E+02 -0.50054916807E+02 -0.27830737792E+02  0.58785662491E+02  0.00000000000E+00 0. -1.
        -12    1    6    6    0    0 -0.71036121915E+02 -0.39101616665E+02 -0.31313952032E+02  0.86923130607E+02  0.00000000000E+00 0.  1.
</event>
<event>
12    1  0.1030140E-001  0.2410228E+03  0.7818608E-02  0.1119120E+00
         21   -1    0    0  501  502  0.00000000000E+00  0.00000000000E+00  0.29756437777E+03  0.29756437777E+03  0.00000000000E+00 0.  1.
         21   -1    0    0  502  503 -0.00000000000E+00 -0.00000000000E+00 -0.30512725695E+03  0.30512725695E+03  0.00000000000E+00 0.  1.
         -6    2    1    2    0  503 -0.16950149765E+03 -0.76555734666E+01 -0.18466254959E+03  0.30359919464E+03  0.17112231956E+03 0.  0.
        -24    2    3    3    0    0 -0.12974367256E+02  0.20062128813E+02 -0.67905022272E+02  0.10630899276E+03  0.78228426255E+02 0.  0.
          6    2    1    2  501    0  0.16950149765E+03  0.76555734666E+01  0.17709967042E+03  0.29909244009E+03  0.17118010674E+03 0.  0.
         24    2    5    5    0    0  0.11317071781E+03  0.20114009147E+02  0.32662848805E+02  0.14348892208E+03  0.79435661611E+02 0.  0.
          5    1    5    5  501    0  0.56330779845E+02 -0.12458435681E+02  0.14443682161E+03  0.15560351800E+03  0.47000000000E+01 0. -1.
        -13    1    6    6    0    0 -0.55429393782E+01  0.10272528873E+02  0.20705973221E+02  0.23769441588E+02  0.00000000000E+00 0.  1.
         14    1    6    6    0    0  0.11871365718E+03  0.98414802745E+01  0.11956875584E+02  0.11971948049E+03  0.00000000000E+00 0. -1.
         -5    1    3    3    0  503 -0.15652713040E+03 -0.27717702280E+02 -0.11675752732E+03  0.19729020188E+03  0.47000000000E+01 0.  1.
         13    1    4    4    0    0  0.14900335723E-01  0.93843015247E+01  0.17181311957E+02  0.19577099318E+02  0.00000000000E+00 0. -1.
        -14    1    4    4    0    0 -0.12989267591E+02  0.10677827288E+02 -0.85086334229E+02  0.86731893446E+02  0.00000000000E+00 0.  1.
</event>
<event>
12    1  0.1030140E-001  0.1736029E+03  0.7818608E-02  0.1174527E+00
         21   -1    0    0  501  502  0.00000000000E+00  0.00000000000E+00  0.25063106999E+03  0.25063106999E+03  0.00000000000E+00 0. -1.
         21   -1    0    0  502  503 -0.00000000000E+00 -0.00000000000E+00 -0.14797289730E+03  0.14797289730E+03  0.00000000000E+00 0. -1.
         -6    2    1    2    0  503  0.28224002760E+01  0.62275786219E+01  0.13938973722E+03  0.22263749246E+03  0.17346816863E+03 0.  0.
        -24    2    3    3    0    0  0.60707102581E+02 -0.13976527900E+02  0.59178502872E+02  0.12156931350E+03  0.86001785723E+02 0.  0.
          6    2    1    2  501    0 -0.28224002760E+01 -0.62275786219E+01 -0.36731564541E+02  0.17596647483E+03  0.17195419085E+03 0.  0.
         24    2    5    5    0    0  0.13564380407E+02  0.23341905773E+02  0.38931418519E+02  0.92961306349E+02  0.79983199168E+02 0.  0.
          5    1    5    5  501    0 -0.16386780683E+02 -0.29569484395E+02 -0.75662983060E+02  0.83005168478E+02  0.47000000000E+01 0. -1.
        -11    1    6    6    0    0  0.13214597087E+02  0.51446581274E+02  0.12920303732E+02  0.54665442004E+02  0.00000000000E+00 0.  1.
         12    1    6    6    0    0  0.34978332014E+00 -0.28104675501E+02  0.26011114788E+02  0.38295864345E+02  0.00000000000E+00 0. -1.
         -5    1    3    3    0  503 -0.57884702305E+02  0.20204106522E+02  0.80211234352E+02  0.10106817896E+03  0.47000000000E+01 0.  1.
         13    1    4    4    0    0 -0.61893553463E+01  0.25997454744E+02  0.24562446044E+02  0.36297238579E+02  0.00000000000E+00 0. -1.
        -14    1    4    4    0    0  0.66896457928E+02 -0.39973982644E+02  0.34616056828E+02  0.85272074925E+02  0.00000000000E+00 0.  1.
</event>
<event>
12    1  0.1030140E-001  0.1972438E+03  0.7818608E-02  0.1152175E+00
         21   -1    0    0  503  502  0.00000000000E+00  0.00000000000E+00  0.52879436647E+03  0.52879436647E+03  0.00000000000E+00 0. -1.
         21   -1    0    0  501  503 -0.00000000000E+00 -0.00000000000E+00 -0.13185306246E+03  0.13185306246E+03  0.00000000000E+00 0.  1.
          6    2    1    2  501    0  0.58728027714E+02  0.76540826686E+02 -0.21548521133E+02  0.19800411966E+03  0.17156285510E+03 0.  0.
         24    2    3    3    0    0  0.10256380086E+03  0.29957179420E+02 -0.17322555641E+02  0.13372690765E+03  0.78524194044E+02 0.  0.
         -6    2    1    2    0  502 -0.58728027714E+02 -0.76540826686E+02  0.41848982515E+03  0.46264330927E+03  0.17203958401E+03 0.  0.
        -24    2    5    5    0    0 -0.37153234681E+02  0.22637835149E+01  0.33405660466E+03  0.34505633292E+03  0.78003655102E+02 0.  0.
          5    1    3    3  501    0 -0.43835773145E+02  0.46583647266E+02 -0.42259654918E+01  0.64277212013E+02  0.47000000000E+01 0. -1.
        -13    1    4    4    0    0  0.55552311016E+02  0.16851900052E+02 -0.48642698094E+02  0.75737427157E+02  0.00000000000E+00 0.  1.
         14    1    4    4    0    0  0.47011489843E+02  0.13105279368E+02  0.31320142453E+02  0.57989480493E+02  0.00000000000E+00 0. -1.
         -5    1    5    5    0  502 -0.21574793033E+02 -0.78804610201E+02  0.84433220491E+02  0.11758697634E+03  0.47000000000E+01 0.  1.
         13    1    6    6    0    0 -0.56738757148E+02  0.19834109376E+02  0.22966234894E+03  0.23739728932E+03  0.00000000000E+00 0. -1.
        -14    1    6    6    0    0  0.19585522467E+02 -0.17570325861E+02  0.10439425572E+03  0.10765904360E+03  0.00000000000E+00 0.  1.
</event>
<event>
12    1  0.1030140E-001  0.1783563E+03  0.7818608E-02  0.1171107E+00
         21   -1    0    0  501  502  0.00000000000E+00  0.00000000000E+00  0.53405406018E+03  0.53405406018E+03  0.00000000000E+00 0.  1.
         21   -1    0    0  502  503 -0.00000000000E+00 -0.00000000000E+00 -0.80069706487E+02  0.80069706487E+02  0.00000000000E+00 0. -1.
         -6    2    1    2    0  503 -0.39522807836E+02 -0.22471323922E+02  0.60143210449E+02  0.18177919447E+03  0.16540694375E+03 0.  0.
        -24    2    3    3    0    0 -0.84029816534E+02 -0.41360872341E+02  0.38483970366E+02  0.12859177543E+03  0.79265988330E+02 0.  0.
          6    2    1    2  501    0  0.39522807836E+02  0.22471323922E+02  0.39384114325E+03  0.43234457220E+03  0.17246440288E+03 0.  0.
         24    2    5    5    0    0 -0.49982840848E+01 -0.23449631166E+02  0.33510355263E+03  0.34537873815E+03  0.80107513580E+02 0.  0.
          5    1    5    5  501    0  0.44521091921E+02  0.45920955088E+02  0.58737590616E+02  0.86965834058E+02  0.47000000000E+01 0. -1.
        -13    1    6    6    0    0 -0.19071918382E+02  0.19807020793E+02  0.21838691612E+03  0.22011111121E+03  0.00000000000E+00 0.  1.
         14    1    6    6    0    0  0.14073634297E+02 -0.43256651959E+02  0.11671663651E+03  0.12526762694E+03  0.00000000000E+00 0. -1.
         -5    1    3    3    0  503  0.44507008697E+02  0.18889548419E+02  0.21659240083E+02  0.53187419035E+02  0.47000000000E+01 0.  1.
         13    1    4    4    0    0 -0.30976427649E+02  0.20930516103E+02 -0.17228852601E+01  0.37424509453E+02  0.00000000000E+00 0. -1.
        -14    1    4    4    0    0 -0.53053388885E+02 -0.62291388444E+02  0.40206855626E+02  0.91167265978E+02  0.00000000000E+00 0.  1.
</event>
<event>
12    1  0.1030140E-001  0.1814740E+03  0.7818608E-02  0.1166612E+00
         21   -1    0    0  501  502  0.00000000000E+00  0.00000000000E+00  0.18941786362E+03  0.18941786362E+03  0.00000000000E+00 0. -1.
         21   -1    0    0  502  503 -0.00000000000E+00 -0.00000000000E+00 -0.28339438531E+03  0.28339438531E+03  0.00000000000E+00 0. -1.
         -6    2    1    2    0  503 -0.51577706115E+00  0.60207219515E+02 -0.19449192016E+03  0.26536066005E+03  0.17018812411E+03 0.  0.
        -24    2    3    3    0    0  0.47225413452E+02 -0.90057333859E+01 -0.77359734748E+02  0.12109807662E+03  0.79805217187E+02 0.  0.
          6    2    1    2  501    0  0.51577706115E+00 -0.60207219515E+02  0.10051539846E+03  0.20745158888E+03  0.17119474610E+03 0.  0.
         24    2    5    5    0    0  0.11838134989E+02 -0.56930636930E+02 -0.74478994254E+01  0.98745124156E+02  0.79459986643E+02 0.  0.
          5    1    5    5  501    0 -0.11322357928E+02 -0.32765825847E+01  0.10796329789E+03  0.10870646473E+03  0.47000000000E+01 0. -1.
        -13    1    6    6    0    0  0.42280567974E+02 -0.16630521063E+02  0.75560896107E+01  0.46057737127E+02  0.00000000000E+00 0.  1.
         14    1    6    6    0    0 -0.30442432985E+02 -0.40300115867E+02 -0.15003989036E+02  0.52687387029E+02  0.00000000000E+00 0. -1.
         -5    1    3    3    0  503 -0.47741190513E+02  0.69212952901E+02 -0.11713218541E+03  0.14426258344E+03  0.47000000000E+01 0.  1.
         11    1    4    4    0    0  0.36566387887E+02 -0.33079992782E+02 -0.80686270374E+02  0.94560355713E+02  0.00000000000E+00 0. -1.
        -12    1    4    4    0    0  0.10659025565E+02  0.24074259396E+02  0.33265356264E+01  0.26537720903E+02  0.00000000000E+00 0.  1.
</event>
<event>
12    1  0.1030140E-001  0.2381955E+03  0.7818608E-02  0.1121075E+00
         21   -1    0    0  501  502  0.00000000000E+00  0.00000000000E+00  0.17194033800E+03  0.17194033800E+03  0.00000000000E+00 0. -1.
         21   -1    0    0  502  503 -0.00000000000E+00 -0.00000000000E+00 -0.39843581984E+03  0.39843581984E+03  0.00000000000E+00 0.  1.
         -6    2    1    2    0  503  0.10993698625E+03  0.12255136537E+03 -0.23206758155E+03  0.33255445049E+03  0.17213983279E+03 0.  0.
        -24    2    3    3    0    0  0.58250748244E+02 -0.35747914359E+01 -0.30026258657E+02  0.88788044301E+02  0.59798091918E+02 0.  0.
          6    2    1    2  501    0 -0.10993698625E+03 -0.12255136537E+03  0.55720997063E+01  0.23782170735E+03  0.17153174077E+03 0.  0.
         24    2    5    5    0    0 -0.59191618494E+02 -0.91727454130E+02 -0.64199867603E+02  0.14608609117E+03  0.72814486829E+02 0.  0.
          5    1    5    5  501    0 -0.50745367756E+02 -0.30823911239E+02  0.69771967309E+02  0.91735616175E+02  0.47000000000E+01 0. -1.
        -13    1    6    6    0    0 -0.26265415204E+02 -0.89345832859E+02 -0.64133722769E+02  0.11307380015E+03  0.00000000000E+00 0.  1.
         14    1    6    6    0    0 -0.32926203290E+02 -0.23816212705E+01 -0.66144833549E-01  0.33012291016E+02  0.00000000000E+00 0. -1.
         -5    1    3    3    0  503  0.51686238006E+02  0.12612615680E+03 -0.20204132289E+03  0.24376640619E+03  0.47000000000E+01 0.  1.
         13    1    4    4    0    0 -0.68831950570E+01 -0.15712516532E+02 -0.40728133316E+01  0.17630920521E+02  0.00000000000E+00 0. -1.
        -14    1    4    4    0    0  0.65133943301E+02  0.12137725096E+02 -0.25953445325E+02  0.71157123781E+02  0.00000000000E+00 0.  1.
</event>
<event>
12    1  0.1030140E-001  0.2411813E+03  0.7818608E-02  0.1119026E+00
         21   -1    0    0  501  502  0.00000000000E+00  0.00000000000E+00  0.32777008156E+02  0.32777008156E+02  0.00000000000E+00 0. -1.
         21   -1    0    0  502  503 -0.00000000000E+00 -0.00000000000E+00 -0.21041543987E+04  0.21041543987E+04  0.00000000000E+00 0.  1.
         -6    2    1    2    0  503 -0.96977352900E+02  0.13792158212E+03 -0.61219539946E+03  0.65795185738E+03  0.17230922703E+03 0.  0.
        -24    2    3    3    0    0 -0.61955390797E+02  0.60340472792E+02 -0.51528317010E+03  0.52888041765E+03  0.81965283388E+02 0.  0.
          6    2    1    2  501    0  0.96977352900E+02 -0.13792158212E+03 -0.14591819911E+04  0.14789795495E+04  0.17245711024E+03 0.  0.
         24    2    5    5    0    0  0.11818937183E+03 -0.52227935984E+02 -0.84795001031E+03  0.86138747127E+03  0.79200194277E+02 0.  0.
          5    1    5    5  501    0 -0.21212018933E+02 -0.85693646139E+02 -0.61123198081E+03  0.61759207824E+03  0.47000000000E+01 0. -1.
        -11    1    6    6    0    0  0.12020006538E+03 -0.38011388858E+02 -0.82301303152E+03  0.83261237767E+03  0.00000000000E+00 0.  1.
         12    1    6    6    0    0 -0.20106935440E+01 -0.14216547127E+02 -0.24936978790E+02  0.28775093604E+02  0.00000000000E+00 0. -1.
         -5    1    3    3    0  503 -0.35021962103E+02  0.77581109331E+02 -0.96912229367E+02  0.12907143974E+03  0.47000000000E+01 0.  1.
         13    1    4    4    0    0 -0.17437568384E+02 -0.20441150922E+02 -0.12275022217E+03  0.12565638258E+03  0.00000000000E+00 0. -1.
        -14    1    4    4    0    0 -0.44517822413E+02  0.80781623715E+02 -0.39253294793E+03  0.40322403507E+03  0.00000000000E+00 0.  1.
</event>
<event>
12    1  0.1030140E-001  0.1963164E+03  0.7818608E-02  0.1153789E+00
         21   -1    0    0  501  502  0.00000000000E+00  0.00000000000E+00  0.26459637590E+03  0.26459637590E+03  0.00000000000E+00 0. -1.
         21   -1    0    0  502  503 -0.00000000000E+00 -0.00000000000E+00 -0.16801218397E+03  0.16801218397E+03  0.00000000000E+00 0. -1.
         -6    2    1    2    0  503  0.80288104194E+02 -0.31151380760E+02  0.13197226424E+03  0.23312815255E+03  0.17180066584E+03 0.  0.
        -24    2    3    3    0    0  0.10126273952E+03  0.39476342809E+01  0.14004637972E+03  0.19118584068E+03  0.81665849492E+02 0.  0.
          6    2    1    2  501    0 -0.80288104194E+02  0.31151380760E+02 -0.35388072311E+02  0.19948040732E+03  0.17641861876E+03 0.  0.
         24    2    5    5    0    0 -0.86379311059E+02  0.37733082063E+02  0.34099941065E+02  0.12925864719E+03  0.81607726539E+02 0.  0.
          5    1    5    5  501    0  0.60912068652E+01 -0.65817013030E+01 -0.69488013376E+02  0.70221760133E+02  0.47000000000E+01 0. -1.
        -13    1    6    6    0    0 -0.29354453397E+02  0.39449816566E+02 -0.17639268049E+02  0.52240939297E+02  0.00000000000E+00 0.  1.
         14    1    6    6    0    0 -0.57024857662E+02 -0.17167345036E+01  0.51739209115E+02  0.77017707890E+02  0.00000000000E+00 0. -1.
         -5    1    3    3    0  503 -0.20974635329E+02 -0.35099015041E+02 -0.80741154756E+01  0.41942311866E+02  0.47000000000E+01 0.  1.
         13    1    4    4    0    0  0.88268664148E+02 -0.30439915562E+02  0.10196203716E+03  0.13825412309E+03  0.00000000000E+00 0. -1.
        -14    1    4    4    0    0  0.12994075374E+02  0.34387549843E+02  0.38084342555E+02  0.52931717589E+02  0.00000000000E+00 0.  1.
</event>
<event>
12    1  0.1030140E-001  0.1970222E+03  0.7818608E-02  0.1152786E+00
         21   -1    0    0  501  502  0.00000000000E+00  0.00000000000E+00  0.16180403657E+04  0.16180403657E+04  0.00000000000E+00 0. -1.
         21   -1    0    0  502  503 -0.00000000000E+00 -0.00000000000E+00 -0.37495215883E+03  0.37495215883E+03  0.00000000000E+00 0. -1.
         -6    2    1    2    0  503  0.93833643999E+02 -0.49456166450E+01 -0.34317376958E+03  0.39454176999E+03  0.17048683312E+03 0.  0.
        -24    2    3    3    0    0  0.81733810824E+02  0.47288407611E+02 -0.15251847945E+03  0.19643490764E+03  0.80051090193E+02 0.  0.
          6    2    1    2  501    0 -0.93833643999E+02  0.49456166450E+01  0.15862619764E+04  0.15984507545E+04  0.17317200949E+03 0.  0.
         24    2    5    5    0    0  0.27420156170E+01  0.36710105950E+02  0.49856235580E+03  0.50600011695E+03  0.78208344807E+02 0.  0.
          5    1    5    5  501    0 -0.96575659616E+02 -0.31764489305E+02  0.10876996206E+04  0.10924506376E+04  0.47000000000E+01 0. -1.
        -11    1    6    6    0    0  0.21024955605E+01  0.60263450248E+02  0.40757255326E+03  0.41200908982E+03  0.00000000000E+00 0.  1.
         12    1    6    6    0    0  0.63952005649E+00 -0.23553344298E+02  0.90989802549E+02  0.93991027132E+02  0.00000000000E+00 0. -1.
         -5    1    3    3    0  503  0.12099833175E+02 -0.52234024256E+02 -0.19065529013E+03  0.19810686234E+03  0.47000000000E+01 0.  1.
         13    1    4    4    0    0 -0.60461437421E+01  0.32964423424E+02 -0.55361784100E+02  0.64715811087E+02  0.00000000000E+00 0. -1.
        -14    1    4    4    0    0  0.87779954566E+02  0.14323984188E+02 -0.97156695348E+02  0.13171909656E+03  0.00000000000E+00 0.  1.
</event>
<event>
12    1  0.1030140E-001  0.2213380E+03  0.7818608E-02  0.1132921E+00
         21   -1    0    0  503  502  0.00000000000E+00  0.00000000000E+00  0.42750773389E+02  0.42750773389E+02  0.00000000000E+00 0. -1.
         21   -1    0    0  501  503 -0.00000000000E+00 -0.00000000000E+00 -0.13603568519E+04  0.13603568519E+04  0.00000000000E+00 0. -1.
          6    2    1    2  501    0 -0.54992512668E+02 -0.12612828101E+03 -0.93767926093E+03  0.96340898764E+03  0.17315299987E+03 0.  0.
         24    2    3    3    0    0 -0.32959660069E+02 -0.14299669016E+03 -0.54237287844E+03  0.56710201588E+03  0.76824244656E+02 0.  0.
         -6    2    1    2    0  502  0.54992512668E+02  0.12612828101E+03 -0.37992681757E+03  0.43969863764E+03  0.17337238971E+03 0.  0.
        -24    2    5    5    0    0  0.75122703158E+02  0.19726032400E+02 -0.20982690759E+03  0.23799902819E+03  0.81139813808E+02 0.  0.
          5    1    3    3  501    0 -0.22032852599E+02  0.16868409153E+02 -0.39530638249E+03  0.39630697175E+03  0.47000000000E+01 0. -1.
        -11    1    4    4    0    0  0.10934647217E+02  0.42694427377E+01 -0.31406868469E+02  0.33528883639E+02  0.00000000000E+00 0.  1.
         12    1    4    4    0    0 -0.43894307286E+02 -0.14726613290E+03 -0.51096600997E+03  0.53357313225E+03  0.00000000000E+00 0. -1.
         -5    1    5    5    0  502 -0.20130190491E+02  0.10640224861E+03 -0.17009990998E+03  0.20169960946E+03  0.47000000000E+01 0.  1.
         11    1    6    6    0    0  0.67142170290E+02  0.26906619150E+02 -0.80484217356E+02  0.10821158177E+03  0.00000000000E+00 0. -1.
        -12    1    6    6    0    0  0.79805328687E+01 -0.71805867498E+01 -0.12934269023E+03  0.12978744642E+03  0.00000000000E+00 0.  1.
</event>
<event>
12    1  0.1030140E-001  0.1893097E+03  0.7818608E-02  0.1159092E+00
         21   -1    0    0  503  502  0.00000000000E+00  0.00000000000E+00  0.40592904347E+03  0.40592904347E+03  0.00000000000E+00 0. -1.
         21   -1    0    0  501  503 -0.00000000000E+00 -0.00000000000E+00 -0.10625844203E+03  0.10625844203E+03  0.00000000000E+00 0. -1.
          6    2    1    2  501    0 -0.21163066865E+02 -0.76851883494E+02  0.44484471136E+02  0.19446599244E+03  0.17170925033E+03 0.  0.
         24    2    3    3    0    0  0.14064436796E+02  0.17467238338E+02 -0.14067044146E+01  0.83717792678E+02  0.80645999257E+02 0.  0.
         -6    2    1    2    0  502  0.21163066865E+02  0.76851883494E+02  0.25518613031E+03  0.31772149306E+03  0.17167672717E+03 0.  0.
        -24    2    5    5    0    0  0.59906708260E+02  0.57114710013E+02  0.24808113896E+03  0.27341351784E+03  0.79748331874E+02 0.  0.
          5    1    3    3  501    0 -0.35227503660E+02 -0.94319121832E+02  0.45891175550E+02  0.11074819976E+03  0.47000000000E+01 0. -1.
        -11    1    4    4    0    0 -0.11182237820E+02  0.14434224585E+02  0.34902494887E+02  0.39390016900E+02  0.00000000000E+00 0.  1.
         12    1    4    4    0    0  0.25246674615E+02  0.30330137524E+01 -0.36309199302E+02  0.44327775778E+02  0.00000000000E+00 0. -1.
         -5    1    5    5    0  502 -0.38743641395E+02  0.19737173481E+02  0.71049913485E+01  0.44307975215E+02  0.47000000000E+01 0.  1.
         13    1    6    6    0    0  0.50722201439E+02  0.74674669868E+02  0.16582637847E+03  0.18880528550E+03  0.00000000000E+00 0. -1.
        -14    1    6    6    0    0  0.91845068204E+01 -0.17559959855E+02  0.82254760491E+02  0.84608232336E+02  0.00000000000E+00 0.  1.
</event>
<event>
12    1  0.1030140E-001  0.2767489E+03  0.7818608E-02  0.1097817E+00
         21   -1    0    0  501  502  0.00000000000E+00  0.00000000000E+00  0.66259901660E+02  0.66259901660E+02  0.00000000000E+00 0. -1.
         21   -1    0    0  502  503 -0.00000000000E+00 -0.00000000000E+00 -0.14191950964E+04  0.14191950964E+04  0.00000000000E+00 0.  1.
         -6    2    1    2    0  503 -0.92097856035E+02  0.19527379518E+03 -0.10048911451E+04  0.10423032954E+04  0.17313600441E+03 0.  0.
        -24    2    3    3    0    0 -0.77522085706E+02  0.81391274240E+02 -0.33804262836E+03  0.36562706863E+03  0.82317200096E+02 0.  0.
          6    2    1    2  501    0  0.92097856035E+02 -0.19527379518E+03 -0.34804404960E+03  0.44315170257E+03  0.16921850036E+03 0.  0.
         24    2    5    5    0    0  0.51692966781E+02 -0.96068830800E+01 -0.73612653021E+02  0.10932624106E+03  0.61391768857E+02 0.  0.
          5    1    5    5  501    0  0.40404889254E+02 -0.18566691210E+03 -0.27443139658E+03  0.33382546151E+03  0.47000000000E+01 0. -1.
        -13    1    6    6    0    0  0.44835361034E+02 -0.27308445977E+01 -0.83907250597E+02  0.95174018587E+02  0.00000000000E+00 0.  1.
         14    1    6    6    0    0  0.68576057475E+01 -0.68760384822E+01  0.10294597576E+02  0.14152222478E+02  0.00000000000E+00 0. -1.
         -5    1    3    3    0  503 -0.14575770328E+02  0.11388252094E+03 -0.66684851674E+03  0.67667622682E+03  0.47000000000E+01 0.  1.
         13    1    4    4    0    0  0.87562367949E+01 -0.10059012623E+02 -0.26347713878E+02  0.29530618760E+02  0.00000000000E+00 0. -1.
        -14    1    4    4    0    0 -0.86278322501E+02  0.91450286863E+02 -0.31169491448E+03  0.33609644987E+03  0.00000000000E+00 0.  1.
</event>
<event>
12    1  0.1030140E-001  0.2206327E+03  0.7818608E-02  0.1133542E+00
         21   -1    0    0  501  502  0.00000000000E+00  0.00000000000E+00  0.67897743096E+02  0.67897743096E+02  0.00000000000E+00 0. -1.
         21   -1    0    0  502  503 -0.00000000000E+00 -0.00000000000E+00 -0.72332220991E+03  0.72332220991E+03  0.00000000000E+00 0.  1.
         -6    2    1    2    0  503  0.52993148381E+02  0.12702755172E+03 -0.28496981905E+03  0.36039778618E+03  0.17243692713E+03 0.  0.
        -24    2    3    3    0    0  0.32855139460E+02  0.10973351001E+03 -0.95699367651E+02  0.16921719863E+03  0.79719432600E+02 0.  0.
          6    2    1    2  501    0 -0.52993148381E+02 -0.12702755172E+03 -0.37045464776E+03  0.43082216683E+03  0.17154247496E+03 0.  0.
         24    2    5    5    0    0 -0.88905582638E+02 -0.62098283239E+02 -0.16738709658E+03  0.21457223462E+03  0.79135354689E+02 0.  0.
          5    1    5    5  501    0  0.35912434256E+02 -0.64929268481E+02 -0.20306755118E+03  0.21624993221E+03  0.47000000000E+01 0. -1.
        -11    1    6    6    0    0 -0.80485171584E+02 -0.78483922099E+02 -0.15795729049E+03  0.19387649288E+03  0.00000000000E+00 0.  1.
         12    1    6    6    0    0 -0.84204110533E+01  0.16385638860E+02 -0.94298060931E+01  0.20695741739E+02  0.00000000000E+00 0. -1.
         -5    1    3    3    0  503  0.20138008921E+02  0.17294041710E+02 -0.18927045140E+03  0.19118058755E+03  0.47000000000E+01 0.  1.
         13    1    4    4    0    0  0.24485922154E+02  0.11484487267E+03 -0.10362277179E+03  0.15660965486E+03  0.00000000000E+00 0. -1.
        -14    1    4    4    0    0  0.83692173061E+01 -0.51113626630E+01  0.79234041389E+01  0.12607543763E+02  0.00000000000E+00 0.  1.
</event>
<event>
12    1  0.1030140E-001  0.1786035E+03  0.7818608E-02  0.1170028E+00
         21   -1    0    0  503  502  0.00000000000E+00  0.00000000000E+00  0.11563949299E+03  0.11563949299E+03  0.00000000000E+00 0.  1.
         21   -1    0    0  501  503 -0.00000000000E+00 -0.00000000000E+00 -0.27045673835E+03  0.27045673835E+03  0.00000000000E+00 0.  1.
          6    2    1    2  501    0  0.24604041910E+02  0.24006390213E+02 -0.76456362816E+02  0.19105869774E+03  0.17168629799E+03 0.  0.
         24    2    3    3    0    0  0.31468699844E+02  0.83066439534E+01 -0.11867771149E+03  0.14525107998E+03  0.77163447485E+02 0.  0.
         -6    2    1    2    0  502 -0.24604041910E+02 -0.24006390213E+02 -0.78360882541E+02  0.19503753361E+03  0.17526421755E+03 0.  0.
        -24    2    5    5    0    0  0.31175252825E+02  0.56804799659E+01 -0.61436910871E+02  0.12945437419E+03  0.10945216644E+03 0.  0.
          5    1    3    3  501    0 -0.68646579334E+01  0.15699746260E+02  0.42221348671E+02  0.45807617760E+02  0.47000000000E+01 0. -1.
        -11    1    4    4    0    0  0.75519135760E+01  0.37989781389E+02 -0.30883376707E+02  0.49538246289E+02  0.00000000000E+00 0.  1.
         12    1    4    4    0    0  0.23916786268E+02 -0.29683137435E+02 -0.87794334781E+02  0.95712833690E+02  0.00000000000E+00 0. -1.
         -5    1    5    5    0  502 -0.55779294735E+02 -0.29686870179E+02 -0.16923971670E+02  0.65583159418E+02  0.47000000000E+01 0.  1.
         11    1    6    6    0    0 -0.36299032029E+01 -0.16471302846E+02 -0.81747509869E+02  0.83469367942E+02  0.00000000000E+00 0. -1.
        -12    1    6    6    0    0  0.34805156027E+02  0.22151782812E+02  0.20310598998E+02  0.45985006247E+02  0.00000000000E+00 0.  1.
</event>
<event>
12    1  0.1030140E-001  0.1925613E+03  0.7818608E-02  0.1156360E+00
         21   -1    0    0  503  502  0.00000000000E+00  0.00000000000E+00  0.67880179683E+02  0.67880179683E+02  0.00000000000E+00 0.  1.
         21   -1    0    0  501  503 -0.00000000000E+00 -0.00000000000E+00 -0.13681246836E+04  0.13681246836E+04  0.00000000000E+00 0.  1.
          6    2    1    2  501    0 -0.66108200722E+02  0.55105090233E+02 -0.12068636770E+04  0.12219958682E+04  0.17130995841E+03 0.  0.
         24    2    3    3    0    0 -0.23765867769E+02  0.79541672204E+02 -0.46562863564E+03  0.47913552046E+03  0.76610224836E+02 0.  0.
         -6    2    1    2    0  502  0.66108200722E+02 -0.55105090233E+02 -0.93380826947E+02  0.21400899512E+03  0.17225854399E+03 0.  0.
        -24    2    5    5    0    0  0.87619147104E+02 -0.78724669683E+02 -0.32606180372E+02  0.14518855474E+03  0.78370050868E+02 0.  0.
          5    1    3    3  501    0 -0.42342332953E+02 -0.24436581971E+02 -0.74123504135E+03  0.74286034772E+03  0.47000000000E+01 0. -1.
        -11    1    4    4    0    0  0.22112964369E+02  0.26351966886E+02 -0.24996443576E+03  0.25232048767E+03  0.00000000000E+00 0.  1.
         12    1    4    4    0    0 -0.45878832138E+02  0.53189705317E+02 -0.21566419988E+03  0.22681503279E+03  0.00000000000E+00 0. -1.
         -5    1    5    5    0  502 -0.21510946383E+02  0.23619579450E+02 -0.60774646576E+02  0.68820440380E+02  0.47000000000E+01 0.  1.
         13    1    6    6    0    0 -0.10279510254E+02  0.58375500244E+01 -0.53943039515E+01  0.12993992322E+02  0.00000000000E+00 0. -1.
        -14    1    6    6    0    0  0.97898657359E+02 -0.84562219707E+02 -0.27211876420E+02  0.13219456242E+03  0.00000000000E+00 0.  1.
</event>
<event>
12    1  0.1030140E-001  0.1729841E+03  0.7818608E-02  0.1175094E+00
         21   -1    0    0  503  502  0.00000000000E+00  0.00000000000E+00  0.63165461001E+02  0.63165461001E+02  0.00000000000E+00 0. -1.
         21   -1    0    0  501  503 -0.00000000000E+00 -0.00000000000E+00 -0.47558132444E+03  0.47558132444E+03  0.00000000000E+00 0. -1.
          6    2    1    2  501    0  0.54130541519E+01 -0.22148490468E+00 -0.23390131488E+03  0.29016892596E+03  0.17163574884E+03 0.  0.
         24    2    3    3    0    0  0.33097693046E+02 -0.54683429292E+02 -0.18317575275E+03  0.21062198843E+03  0.81991041519E+02 0.  0.
         -6    2    1    2    0  502 -0.54130541519E+01  0.22148490468E+00 -0.17851454856E+03  0.24857785948E+03  0.17289927116E+03 0.  0.
        -24    2    5    5    0    0 -0.53245103090E+02 -0.28516660301E+02 -0.60644389421E+02  0.11808168977E+03  0.81346804313E+02 0.  0.
          5    1    3    3  501    0 -0.27684638894E+02  0.54461944387E+02 -0.50725562128E+02  0.79546937530E+02  0.47000000000E+01 0. -1.
        -13    1    4    4    0    0 -0.59254870577E+01 -0.47331280275E+01  0.69016938056E+01  0.10254134541E+02  0.00000000000E+00 0.  1.
         14    1    4    4    0    0  0.39023180104E+02 -0.49950301264E+02 -0.19007744656E+03  0.20036785389E+03  0.00000000000E+00 0. -1.
         -5    1    5    5    0  502  0.47832048938E+02  0.28738145206E+02 -0.11787015914E+03  0.13049616972E+03  0.47000000000E+01 0.  1.
         11    1    6    6    0    0 -0.22666936649E+02  0.27445944121E+02 -0.33128948356E+02  0.48627122935E+02  0.00000000000E+00 0. -1.
        -12    1    6    6    0    0 -0.30578166441E+02 -0.55962604423E+02 -0.27515441065E+02  0.69454566831E+02  0.00000000000E+00 0.  1.
</event>
<event>
12    1  0.1030140E-001  0.1924392E+03  0.7818608E-02  0.1156529E+00
         21   -1    0    0  501  502  0.00000000000E+00  0.00000000000E+00  0.16378046287E+03  0.16378046287E+03  0.00000000000E+00 0.  1.
         21   -1    0    0  502  503 -0.00000000000E+00 -0.00000000000E+00 -0.24757600839E+03  0.24757600839E+03  0.00000000000E+00 0.  1.
         -6    2    1    2    0  503 -0.44305547317E+02 -0.71730694330E+02 -0.10439492269E+03  0.21893183187E+03  0.17298720499E+03 0.  0.
        -24    2    3    3    0    0  0.14456640474E+02 -0.73736437842E+02 -0.11720669930E+02  0.10907909023E+03  0.78197296007E+02 0.  0.
          6    2    1    2  501    0  0.44305547317E+02  0.71730694330E+02  0.20599377171E+02  0.19242463938E+03  0.17174001708E+03 0.  0.
         24    2    5    5    0    0  0.42185022874E+02  0.26619505183E+02 -0.51942603486E+02  0.10684458932E+03  0.78927549051E+02 0.  0.
          5    1    5    5  501    0  0.21205244424E+01  0.45111189147E+02  0.72541980657E+02  0.85580050057E+02  0.47000000000E+01 0. -1.
        -11    1    6    6    0    0  0.13270992054E+02 -0.20333086585E+02  0.78397792267E+01  0.25515010847E+02  0.00000000000E+00 0.  1.
         12    1    6    6    0    0  0.28914030820E+02  0.46952591768E+02 -0.59782382713E+02  0.81329578475E+02  0.00000000000E+00 0. -1.
         -5    1    3    3    0  503 -0.58762187791E+02  0.20057435120E+01 -0.92674252763E+02  0.10985274164E+03  0.47000000000E+01 0.  1.
         11    1    4    4    0    0  0.45144654974E+02 -0.34408795491E+02  0.36520323149E+01  0.56880070498E+02  0.00000000000E+00 0. -1.
        -12    1    4    4    0    0 -0.30688014500E+02 -0.39327642352E+02 -0.15372702245E+02  0.52199019734E+02  0.00000000000E+00 0.  1.
</event>
<event>
12    1  0.1030140E-001  0.1748971E+03  0.7818608E-02  0.1172858E+00
         21   -1    0    0  503  502  0.00000000000E+00  0.00000000000E+00  0.31818557652E+03  0.31818557652E+03  0.00000000000E+00 0.  1.
         21   -1    0    0  501  503 -0.00000000000E+00 -0.00000000000E+00 -0.20759175944E+03  0.20759175944E+03  0.00000000000E+00 0.  1.
          6    2    1    2  501    0 -0.28814910049E+02  0.21107558240E+01 -0.13738108114E+03  0.22232957796E+03  0.17240105989E+03 0.  0.
         24    2    3    3    0    0  0.35118508860E+02  0.41432301963E+02 -0.46459527220E+02  0.10433599758E+03  0.76010311214E+02 0.  0.
         -6    2    1    2    0  502  0.28814910049E+02 -0.21107558240E+01  0.24797489822E+03  0.30344775799E+03  0.17249416613E+03 0.  0.
        -24    2    5    5    0    0  0.28004013540E+02  0.20114035276E+02  0.26260668366E+03  0.27641485142E+03  0.79082871668E+02 0.  0.
          5    1    3    3  501    0 -0.63933418909E+02 -0.39321546139E+02 -0.90921553924E+02  0.11799358039E+03  0.47000000000E+01 0. -1.
        -11    1    4    4    0    0 -0.24986792767E+01  0.35221545740E+02 -0.54910927972E+02  0.65284076873E+02  0.00000000000E+00 0.  1.
         12    1    4    4    0    0  0.37617188137E+02  0.62107562233E+01  0.84514007516E+01  0.39051920706E+02  0.00000000000E+00 0. -1.
         -5    1    5    5    0  502  0.81089650858E+00 -0.22224791100E+02 -0.14631785438E+02  0.27032906571E+02  0.47000000000E+01 0.  1.
         11    1    6    6    0    0  0.14984391787E+02 -0.23084236406E+02  0.35755915327E+02  0.45120942461E+02  0.00000000000E+00 0. -1.
        -12    1    6    6    0    0  0.13019621753E+02  0.43198271682E+02  0.22685076833E+03  0.23129390896E+03  0.00000000000E+00 0.  1.
</event>
<event>
12    1  0.1030140E-001  0.1979985E+03  0.7818608E-02  0.1154637E+00
         21   -1    0    0  501  502  0.00000000000E+00  0.00000000000E+00  0.16694522494E+03  0.16694522494E+03  0.00000000000E+00 0.  1.
         21   -1    0    0  502  503 -0.00000000000E+00 -0.00000000000E+00 -0.22347679858E+03  0.22347679858E+03  0.00000000000E+00 0. -1.
         -6    2    1    2    0  503 -0.99850412185E+01 -0.70950434522E+02 -0.59591232672E+02  0.20677168785E+03  0.18457993032E+03 0.  0.
        -24    2    3    3    0    0  0.14245129287E+02  0.33734876126E+02 -0.47223278614E+02  0.98507327529E+02  0.78311493143E+02 0.  0.
          6    2    1    2  501    0  0.99850412185E+01  0.70950434522E+02  0.30596590315E+01  0.18365033568E+03  0.16906927300E+03 0.  0.
         24    2    5    5    0    0  0.62397153225E+02  0.38760589674E+02  0.34629599789E+02  0.11435411099E+03  0.80510033391E+02 0.  0.
          5    1    5    5  501    0 -0.52412112006E+02  0.32189844848E+02 -0.31569940758E+02  0.69296224686E+02  0.47000000000E+01 0. -1.
        -13    1    6    6    0    0  0.21010949636E+02 -0.22562005746E+02  0.25111097507E+02  0.39762687610E+02  0.00000000000E+00 0.  1.
         14    1    6    6    0    0  0.41386203588E+02  0.61322595420E+02  0.95185022815E+01  0.74591423382E+02  0.00000000000E+00 0. -1.
         -5    1    3    3    0  503 -0.24230170505E+02 -0.10468531065E+03 -0.12367954058E+02  0.10826436032E+03  0.47000000000E+01 0.  1.
         13    1    4    4    0    0 -0.26371301909E+02 -0.43732352924E+01 -0.30062835742E+02  0.40228657001E+02  0.00000000000E+00 0. -1.
        -14    1    4    4    0    0  0.40616431196E+02  0.38108111418E+02 -0.17160442872E+02  0.58278670528E+02  0.00000000000E+00 0.  1.
</event>
<event>
12    1  0.1030140E-001  0.2376984E+03  0.7818608E-02  0.1121365E+00
         21   -1    0    0  503  502  0.00000000000E+00  0.00000000000E+00  0.19971550769E+03  0.19971550769E+03  0.00000000000E+00 0.  1.
         21   -1    0    0  501  503 -0.00000000000E+00 -0.00000000000E+00 -0.31043980623E+03  0.31043980623E+03  0.00000000000E+00 0.  1.
          6    2    1    2  501    0 -0.21735278264E+02 -0.16178552682E+03 -0.13163446446E+03  0.27171341352E+03  0.17278185045E+03 0.  0.
         24    2    3    3    0    0 -0.25967693538E+02 -0.18359470231E+03 -0.84192849210E+02  0.21911730784E+03  0.80886481640E+02 0.  0.
         -6    2    1    2    0  502  0.21735278264E+02  0.16178552682E+03  0.20910165918E+02  0.23844190040E+03  0.17254079466E+03 0.  0.
        -24    2    5    5    0    0  0.95830943759E+01  0.16938361597E+03  0.59051202006E+02  0.19742684017E+03  0.81900352290E+02 0.  0.
          5    1    3    3  501    0  0.42324152749E+01  0.21809175498E+02 -0.47441615248E+02  0.52596105676E+02  0.47000000000E+01 0. -1.
        -11    1    4    4    0    0 -0.37969478191E+02 -0.13553553124E+03 -0.26761942116E+02  0.14327513060E+03  0.00000000000E+00 0.  1.
         12    1    4    4    0    0  0.12001784652E+02 -0.48059171076E+02 -0.57430907094E+02  0.75842177243E+02  0.00000000000E+00 0. -1.
         -5    1    5    5    0  502  0.12152183888E+02 -0.75980891510E+01 -0.38141036088E+02  0.41015060232E+02  0.47000000000E+01 0.  1.
         11    1    6    6    0    0  0.14683711896E+02  0.48871031646E+01 -0.10559570688E+02  0.18734986136E+02  0.00000000000E+00 0. -1.
        -12    1    6    6    0    0 -0.51006175205E+01  0.16449651280E+03  0.69610772693E+02  0.17869185403E+03  0.00000000000E+00 0.  1.
</event>
<event>
12    1  0.1030140E-001  0.1754801E+03  0.7818608E-02  0.1172501E+00
         21   -1    0    0  501  502  0.00000000000E+00  0.00000000000E+00  0.88879497501E+02  0.88879497501E+02  0.00000000000E+00 0.  1.
         21   -1    0    0  502  503 -0.00000000000E+00 -0.00000000000E+00 -0.34450499292E+03  0.34450499292E+03  0.00000000000E+00 0.  1.
         -6    2    1    2    0  503  0.20481448127E+02 -0.11798142577E+01 -0.12929883493E+03  0.21797120857E+03  0.17427672642E+03 0.  0.
        -24    2    3    3    0    0  0.36088101642E+02 -0.42929073066E+02 -0.14120397221E+03  0.17159890499E+03  0.79764440912E+02 0.  0.
          6    2    1    2  501    0 -0.20481448127E+02  0.11798142577E+01 -0.12632666050E+03  0.21541328186E+03  0.17327312304E+03 0.  0.
         24    2    5    5    0    0 -0.38472932943E+02  0.15838644775E+01 -0.79191363122E+00  0.88508122572E+02  0.79689305670E+02 0.  0.
          5    1    5    5  501    0  0.17991484816E+02 -0.40405021981E+00 -0.12553474687E+03  0.12690515929E+03  0.47000000000E+01 0. -1.
        -11    1    6    6    0    0 -0.29871620127E+02  0.37250267631E+02 -0.13600857083E+02  0.49647552216E+02  0.00000000000E+00 0.  1.
         12    1    6    6    0    0 -0.86013128161E+01 -0.35666403154E+02  0.12808943452E+02  0.38860570357E+02  0.00000000000E+00 0. -1.
         -5    1    3    3    0  503 -0.15606653515E+02  0.41749258808E+02  0.11905137281E+02  0.46372303573E+02  0.47000000000E+01 0.  1.
         13    1    4    4    0    0 -0.60137156488E+01 -0.29059767554E+02 -0.73163406584E+01  0.30564091788E+02  0.00000000000E+00 0. -1.
        -14    1    4    4    0    0  0.42101817291E+02 -0.13869305512E+02 -0.13388763155E+03  0.14103481321E+03  0.00000000000E+00 0.  1.
</event>
<event>
12    1  0.1030140E-001  0.2497904E+03  0.7818608E-02  0.1113544E+00
         21   -1    0    0  501  502  0.00000000000E+00  0.00000000000E+00  0.45172596032E+03  0.45172596032E+03  0.00000000000E+00 0.  1.
         21   -1    0    0  502  503 -0.00000000000E+00 -0.00000000000E+00 -0.20296546332E+03  0.20296546332E+03  0.00000000000E+00 0.  1.
         -6    2    1    2    0  503  0.17429171579E+03 -0.49322250573E+02 -0.61055362887E+02  0.25714388258E+03  0.17200271049E+03 0.  0.
        -24    2    3    3    0    0  0.12350129467E+03  0.18886536678E+02 -0.81752691073E+02  0.16949358349E+03  0.80220329692E+02 0.  0.
          6    2    1    2  501    0 -0.17429171579E+03  0.49322250573E+02  0.30981585989E+03  0.39754754106E+03  0.17102015602E+03 0.  0.
         24    2    5    5    0    0 -0.18083470498E+03  0.10081144418E+02  0.20457793314E+03  0.28494298366E+03  0.80855137212E+02 0.  0.
          5    1    5    5  501    0  0.65429891851E+01  0.39241106155E+02  0.10523792675E+03  0.11260455740E+03  0.47000000000E+01 0. -1.
        -13    1    6    6    0    0 -0.18684508539E+03  0.13743152130E+02  0.20521927878E+03  0.27787571421E+03  0.00000000000E+00 0.  1.
         14    1    6    6    0    0  0.60103804161E+01 -0.36620077117E+01 -0.64134564164E+00  0.70672694486E+01  0.00000000000E+00 0. -1.
         -5    1    3    3    0  503  0.50790421124E+02 -0.68208787251E+02  0.20697328186E+02  0.87650299088E+02  0.47000000000E+01 0.  1.
         13    1    4    4    0    0  0.31037870747E+02 -0.23558834594E+02 -0.49013422380E+02  0.62615362982E+02  0.00000000000E+00 0. -1.
        -14    1    4    4    0    0  0.92463423920E+02  0.42445371271E+02 -0.32739268693E+02  0.10687822051E+03  0.00000000000E+00 0.  1.
</event>
<event>
12    1  0.1030140E-001  0.1800613E+03  0.7818608E-02  0.1168144E+00
         21   -1    0    0  501  502  0.00000000000E+00  0.00000000000E+00  0.46480372034E+02  0.46480372034E+02  0.00000000000E+00 0.  1.
         21   -1    0    0  502  503 -0.00000000000E+00 -0.00000000000E+00 -0.90066968259E+03  0.90066968259E+03  0.00000000000E+00 0.  1.
         -6    2    1    2    0  503 -0.33125398943E+02 -0.41949427993E+02 -0.65398531103E+03  0.67788491144E+03  0.17021785909E+03 0.  0.
        -24    2    3    3    0    0 -0.37829415355E+02 -0.52377281786E+02 -0.65735749498E+03  0.66506580345E+03  0.77583518882E+02 0.  0.
          6    2    1    2  501    0  0.33125398943E+02  0.41949427993E+02 -0.20020399952E+03  0.26926514318E+03  0.17194484390E+03 0.  0.
         24    2    5    5    0    0  0.33085055051E+01  0.56760686493E+02 -0.39268542648E+02  0.10485488866E+03  0.78865756154E+02 0.  0.
          5    1    5    5  501    0  0.29816893438E+02 -0.14811258500E+02 -0.16093545688E+03  0.16441025452E+03  0.47000000000E+01 0. -1.
        -13    1    6    6    0    0 -0.22932280924E+01 -0.16816438346E+02  0.63284565456E+01  0.18113554483E+02  0.00000000000E+00 0.  1.
         14    1    6    6    0    0  0.56017335976E+01  0.73577124839E+02 -0.45596999194E+02  0.86741334175E+02  0.00000000000E+00 0. -1.
         -5    1    3    3    0  503  0.47040164120E+01  0.10427853794E+02  0.33721839469E+01  0.12819107992E+02  0.47000000000E+01 0.  1.
         11    1    4    4    0    0 -0.36203807114E+02 -0.36644685762E+02 -0.17438006227E+03  0.18182946616E+03  0.00000000000E+00 0. -1.
        -12    1    4    4    0    0 -0.16256082415E+01 -0.15732596024E+02 -0.48297743270E+03  0.48323633729E+03  0.00000000000E+00 0.  1.
</event>
<event>
12    1  0.1030140E-001  0.1836764E+03  0.7818608E-02  0.1164812E+00
         21   -1    0    0  501  502  0.00000000000E+00  0.00000000000E+00  0.35264280855E+03  0.35264280855E+03  0.00000000000E+00 0. -1.
         21   -1    0    0  502  503 -0.00000000000E+00 -0.00000000000E+00 -0.14046406233E+03  0.14046406233E+03  0.00000000000E+00 0. -1.
         -6    2    1    2    0  503  0.54385772512E+02 -0.92648531329E+01 -0.35329887883E+02  0.18489013903E+03  0.17289451344E+03 0.  0.
        -24    2    3    3    0    0  0.24971941828E+02  0.49799592096E+02 -0.62865431219E+02  0.11323765636E+03  0.75941471700E+02 0.  0.
          6    2    1    2  501    0 -0.54385772512E+02  0.92648531329E+01  0.24750863410E+03  0.30821673186E+03  0.17519526274E+03 0.  0.
         24    2    5    5    0    0 -0.63117631472E+01  0.61330301699E+02  0.96987973784E+02  0.14178211859E+03  0.83031667650E+02 0.  0.
          5    1    5    5  501    0 -0.48074009364E+02 -0.52065448566E+02  0.15052066032E+03  0.16643461326E+03  0.47000000000E+01 0. -1.
        -13    1    6    6    0    0  0.28482072483E+02 -0.27787311117E+01  0.15992272794E+02  0.32782656827E+02  0.00000000000E+00 0.  1.
         14    1    6    6    0    0 -0.34793835630E+02  0.64109032810E+02  0.80995700990E+02  0.10899946176E+03  0.00000000000E+00 0. -1.
         -5    1    3    3    0  503  0.29413830684E+02 -0.59064445229E+02  0.27535543337E+02  0.71652482668E+02  0.47000000000E+01 0.  1.
         11    1    4    4    0    0  0.24959896455E+02  0.94240063342E+01  0.11157893218E+02  0.28918971412E+02  0.00000000000E+00 0. -1.
        -12    1    4    4    0    0  0.12045372105E-01  0.40375585761E+02 -0.74023324437E+02  0.84318684948E+02  0.00000000000E+00 0.  1.
</event>
<event>
12    1  0.1030140E-001  0.1996101E+03  0.7818608E-02  0.1150305E+00
         21   -1    0    0  501  502  0.00000000000E+00  0.00000000000E+00  0.53661066442E+03  0.53661066442E+03  0.00000000000E+00 0. -1.
         21   -1    0    0  502  503 -0.00000000000E+00 -0.00000000000E+00 -0.77564779427E+02  0.77564779427E+02  0.00000000000E+00 0. -1.
         -6    2    1    2    0  503  0.97381176598E+02  0.28912936686E+02  0.16159529160E+03  0.25595615908E+03  0.17053288727E+03 0.  0.
        -24    2    3    3    0    0  0.97847623126E+02 -0.24509580134E+02  0.61094713429E+02  0.14204110701E+03  0.79172187044E+02 0.  0.
          6    2    1    2  501    0 -0.97381176598E+02 -0.28912936686E+02  0.29745059340E+03  0.35821928477E+03  0.17182883636E+03 0.  0.
         24    2    5    5    0    0 -0.92841409196E+02 -0.80577086382E+02  0.20064952868E+03  0.24829963238E+03  0.79248217447E+02 0.  0.
          5    1    5    5  501    0 -0.45397674020E+01  0.51664149696E+02  0.96801064712E+02  0.10991965239E+03  0.47000000000E+01 0. -1.
        -13    1    6    6    0    0 -0.16723063103E+02 -0.58031307003E+02  0.51633983539E+02  0.79456665473E+02  0.00000000000E+00 0.  1.
         14    1    6    6    0    0 -0.76118346093E+02 -0.22545779379E+02  0.14901554514E+03  0.16884296691E+03  0.00000000000E+00 0. -1.
         -5    1    3    3    0  503 -0.46644652733E+00  0.53422516821E+02  0.10050057817E+03  0.11391505207E+03  0.47000000000E+01 0.  1.
         11    1    4    4    0    0  0.82001980255E+02  0.17038147188E+02  0.40771932755E+02  0.93150274964E+02  0.00000000000E+00 0. -1.
        -12    1    4    4    0    0  0.15845642871E+02 -0.41547727322E+02  0.20322780674E+02  0.48890832044E+02  0.00000000000E+00 0.  1.
</event>
<event>
12    1  0.1030140E-001  0.1734011E+03  0.7818608E-02  0.1174443E+00
         21   -1    0    0  501  502  0.00000000000E+00  0.00000000000E+00  0.98634143654E+02  0.98634143654E+02  0.00000000000E+00 0.  1.
         21   -1    0    0  502  503 -0.00000000000E+00 -0.00000000000E+00 -0.31636848476E+03  0.31636848476E+03  0.00000000000E+00 0.  1.
         -6    2    1    2    0  503  0.18512698827E+02 -0.40192454423E+01 -0.68026363337E+02  0.18591654046E+03  0.17198400959E+03 0.  0.
        -24    2    3    3    0    0 -0.59793590260E+01 -0.29786502306E+02  0.23297829767E+02  0.87804305391E+02  0.79017837982E+02 0.  0.
          6    2    1    2  501    0 -0.18512698827E+02  0.40192454423E+01 -0.14970797777E+03  0.22908608795E+03  0.17236322907E+03 0.  0.
         24    2    5    5    0    0 -0.43413602639E+02  0.45924935198E+02 -0.14699172205E+03  0.18003907082E+03  0.82544897495E+02 0.  0.
          5    1    5    5  501    0  0.24900903812E+02 -0.41905689756E+02 -0.27162557162E+01  0.49047017133E+02  0.47000000000E+01 0. -1.
        -11    1    6    6    0    0 -0.16975465693E+02 -0.22867078978E+02 -0.27130616945E+02  0.39333701991E+02  0.00000000000E+00 0.  1.
         12    1    6    6    0    0 -0.26438136946E+02  0.68792014176E+02 -0.11986110511E+03  0.14070536883E+03  0.00000000000E+00 0. -1.
         -5    1    3    3    0  503  0.24492057853E+02  0.25767256864E+02 -0.91324193104E+02  0.98112235069E+02  0.47000000000E+01 0.  1.
         11    1    4    4    0    0  0.32025909827E+02 -0.13963326657E+02 -0.82980447648E+01  0.35909482570E+02  0.00000000000E+00 0. -1.
        -12    1    4    4    0    0 -0.38005268852E+02 -0.15823175649E+02  0.31595874532E+02  0.51894822821E+02  0.00000000000E+00 0.  1.
</event>
<event>
12    1  0.1030140E-001  0.1896602E+03  0.7818608E-02  0.1159295E+00
         21   -1    0    0  501  502  0.00000000000E+00  0.00000000000E+00  0.43360304759E+02  0.43360304759E+02  0.00000000000E+00 0. -1.
         21   -1    0    0  502  503 -0.00000000000E+00 -0.00000000000E+00 -0.81959567085E+03  0.81959567085E+03  0.00000000000E+00 0. -1.
         -6    2    1    2    0  503  0.77394505396E+02 -0.37619917250E+02 -0.39060857120E+03  0.43321299135E+03  0.16641295726E+03 0.  0.
        -24    2    3    3    0    0  0.25203705530E+02  0.18667550306E+02 -0.31229410717E+03  0.32345232504E+03  0.78167083810E+02 0.  0.
          6    2    1    2  501    0 -0.77394505396E+02  0.37619917250E+02 -0.38562679489E+03  0.42974298425E+03  0.16901431873E+03 0.  0.
         24    2    5    5    0    0 -0.59047888653E+02  0.10122648795E+02 -0.38345010485E+03  0.39628366421E+03  0.80110164370E+02 0.  0.
          5    1    5    5  501    0 -0.18346616743E+02  0.27497268454E+02 -0.21766900425E+01  0.33459320046E+02  0.47000000000E+01 0. -1.
        -13    1    6    6    0    0 -0.20441740988E+01  0.34689232212E+02 -0.93124416428E+02  0.99396571441E+02  0.00000000000E+00 0.  1.
         14    1    6    6    0    0 -0.57003714554E+02 -0.24566583416E+02 -0.29032568842E+03  0.29688709277E+03  0.00000000000E+00 0. -1.
         -5    1    3    3    0  503  0.52190799866E+02 -0.56287467555E+02 -0.78314464024E+02  0.10976066631E+03  0.47000000000E+01 0.  1.
         13    1    4    4    0    0 -0.12515636760E+02  0.13312215727E+02 -0.14758765957E+02  0.23487814365E+02  0.00000000000E+00 0. -1.
        -14    1    4    4    0    0  0.37719342290E+02  0.53553345781E+01 -0.29753534122E+03  0.29996451067E+03  0.00000000000E+00 0.  1.
</event>
<event>
12    1  0.1030140E-001  0.2058387E+03  0.7818608E-02  0.1145350E+00
         21   -1    0    0  501  502  0.00000000000E+00  0.00000000000E+00  0.21096960934E+03  0.21096960934E+03  0.00000000000E+00 0. -1.
         21   -1    0    0  502  503 -0.00000000000E+00 -0.00000000000E+00 -0.34363707590E+03  0.34363707590E+03  0.00000000000E+00 0. -1.
         -6    2    1    2    0  503  0.96891463727E+02 -0.55855420168E+02 -0.24621363378E+03  0.31952732592E+03  0.17020215875E+03 0.  0.
        -24    2    3    3    0    0  0.10652232032E+03  0.11404289439E+02 -0.18075004317E+03  0.22505937563E+03  0.80647888456E+02 0.  0.
          6    2    1    2  501    0 -0.96891463727E+02  0.55855420168E+02  0.11354616723E+03  0.23507935932E+03  0.17280564048E+03 0.  0.
         24    2    5    5    0    0 -0.64148577833E+02 -0.64443327686E+01  0.36293000757E+00  0.10171560495E+03  0.78672505418E+02 0.  0.
          5    1    5    5  501    0 -0.32742885893E+02  0.62299752937E+02  0.11318323722E+03  0.13336375437E+03  0.47000000000E+01 0. -1.
        -11    1    6    6    0    0 -0.27861080017E+02  0.17532720254E+02 -0.33218575543E+02  0.46766545952E+02  0.00000000000E+00 0.  1.
         12    1    6    6    0    0 -0.36287497816E+02 -0.23977053022E+02  0.33581505550E+02  0.54949058995E+02  0.00000000000E+00 0. -1.
         -5    1    3    3    0  503 -0.96308565905E+01 -0.67259709608E+02 -0.65463590617E+02  0.94467950288E+02  0.47000000000E+01 0.  1.
         11    1    4    4    0    0  0.73086790178E+01  0.19175217058E+02 -0.21870502419E+01  0.20637076512E+02  0.00000000000E+00 0. -1.
        -12    1    4    4    0    0  0.99213641300E+02 -0.77709276181E+01 -0.17856299293E+03  0.20442229912E+03  0.00000000000E+00 0.  1.
</event>
<event>
12    1  0.1030140E-001  0.2659195E+03  0.7818608E-02  0.1103655E+00
         21   -1    0    0  501  502  0.00000000000E+00  0.00000000000E+00  0.13712811494E+04  0.13712811494E+04  0.00000000000E+00 0. -1.
         21   -1    0    0  502  503 -0.00000000000E+00 -0.00000000000E+00 -0.64365552936E+02  0.64365552936E+02  0.00000000000E+00 0. -1.
         -6    2    1    2    0  503  0.76141769878E+01 -0.20262446795E+03  0.33297974626E+03  0.42606054618E+03  0.17186455972E+03 0.  0.
        -24    2    3    3    0    0 -0.42107526884E+02 -0.16059293069E+03  0.17054305347E+03  0.25099865106E+03  0.79701044759E+02 0.  0.
          6    2    1    2  501    0 -0.76141769878E+01  0.20262446795E+03  0.97393585017E+03  0.10095861561E+04  0.17204219159E+03 0.  0.
         24    2    5    5    0    0  0.57201369775E+01  0.17968105208E+03  0.53595981880E+03  0.57078175970E+03  0.78872615021E+02 0.  0.
          5    1    5    5  501    0 -0.13334313965E+02  0.22943415866E+02  0.43797603137E+03  0.43880439642E+03  0.47000000000E+01 0. -1.
        -11    1    6    6    0    0  0.32344326782E+02  0.11069795023E+03  0.24838292450E+03  0.27385081494E+03  0.00000000000E+00 0.  1.
         12    1    6    6    0    0 -0.26624189805E+02  0.68983101849E+02  0.28757689430E+03  0.29693094476E+03  0.00000000000E+00 0. -1.
         -5    1    3    3    0  503  0.49721703872E+02 -0.42031537255E+02  0.16243669279E+03  0.17506189512E+03  0.47000000000E+01 0.  1.
         13    1    4    4    0    0  0.17688199177E+02 -0.85181694039E+02  0.68492156080E+02  0.11072474355E+03  0.00000000000E+00 0. -1.
        -14    1    4    4    0    0 -0.59795726062E+02 -0.75411236655E+02  0.10205089739E+03  0.14027390751E+03  0.00000000000E+00 0.  1.
</event>
<event>
12    1  0.1030140E-001  0.1785718E+03  0.7818608E-02  0.1169699E+00
         21   -1    0    0  503  502  0.00000000000E+00  0.00000000000E+00  0.71354041155E+03  0.71354041155E+03  0.00000000000E+00 0.  1.
         21   -1    0    0  501  503 -0.00000000000E+00 -0.00000000000E+00 -0.10580087044E+03  0.10580087044E+03  0.00000000000E+00 0.  1.
          6    2    1    2  501    0  0.34202654282E+02 -0.35296823360E+02 -0.95204236717E+01  0.17677006651E+03  0.16953268312E+03 0.  0.
         24    2    3    3    0    0 -0.46308921786E+02 -0.14671782127E+02 -0.12000748815E+01  0.93111089636E+02  0.79425798112E+02 0.  0.
         -6    2    1    2    0  502 -0.34202654282E+02  0.35296823360E+02  0.61725996478E+03  0.64257121548E+03  0.17167473766E+03 0.  0.
        -24    2    5    5    0    0 -0.44697026029E+02 -0.77808019557E+01  0.16561819646E+03  0.18873403043E+03  0.78312082281E+02 0.  0.
          5    1    3    3  501    0  0.80511576069E+02 -0.20625041233E+02 -0.83203487902E+01  0.83658976870E+02  0.47000000000E+01 0. -1.
        -13    1    4    4    0    0  0.17223159547E+01 -0.27695742872E+02 -0.25538639247E+02  0.37712632367E+02  0.00000000000E+00 0.  1.
         14    1    4    4    0    0 -0.48031237741E+02  0.13023960744E+02  0.24338564365E+02  0.55398457269E+02  0.00000000000E+00 0. -1.
         -5    1    5    5    0  502  0.10494371746E+02  0.43077625316E+02  0.45164176832E+03  0.45383718505E+03  0.47000000000E+01 0.  1.
         13    1    6    6    0    0 -0.15498822352E+02 -0.28227863705E+02  0.18039290852E+02  0.36911269256E+02  0.00000000000E+00 0. -1.
        -14    1    6    6    0    0 -0.29198203677E+02  0.20447061749E+02  0.14757890560E+03  0.15182276118E+03  0.00000000000E+00 0.  1.
</event>
<event>
12    1  0.1030140E-001  0.2035002E+03  0.7818608E-02  0.1147059E+00
         21   -1    0    0  503  502  0.00000000000E+00  0.00000000000E+00  0.59011354681E+02  0.59011354681E+02  0.00000000000E+00 0.  1.
         21   -1    0    0  501  503 -0.00000000000E+00 -0.00000000000E+00 -0.11090848265E+04  0.11090848265E+04  0.00000000000E+00 0. -1.
          6    2    1    2  501    0 -0.91830299585E+02 -0.52217342768E+02 -0.87976637083E+03  0.90273443253E+03  0.17257211137E+03 0.  0.
         24    2    3    3    0    0 -0.59348757633E+01 -0.13814490251E+02 -0.17714144880E+03  0.19382211498E+03  0.77213059007E+02 0.  0.
         -6    2    1    2    0  502  0.91830299585E+02  0.52217342768E+02 -0.17030710095E+03  0.26536174861E+03  0.17393359131E+03 0.  0.
        -24    2    5    5    0    0  0.48147877205E+02  0.10166266928E+03 -0.11413953628E+03  0.17858686941E+03  0.78815733068E+02 0.  0.
          5    1    3    3  501    0 -0.85895423822E+02 -0.38402852517E+02 -0.70262492203E+03  0.70891231755E+03  0.47000000000E+01 0. -1.
        -11    1    4    4    0    0 -0.30685336980E+01  0.15708851271E+02 -0.15735323264E+03  0.15816517862E+03  0.00000000000E+00 0.  1.
         12    1    4    4    0    0 -0.28663420653E+01 -0.29523341522E+02 -0.19788216161E+02  0.35656936356E+02  0.00000000000E+00 0. -1.
         -5    1    5    5    0  502  0.43682422380E+02 -0.49445326515E+02 -0.56167564662E+02  0.86774879194E+02  0.47000000000E+01 0.  1.
         13    1    6    6    0    0  0.60924365013E+02  0.37272318847E+02 -0.65203840624E+02  0.96708556170E+02  0.00000000000E+00 0. -1.
        -14    1    6    6    0    0 -0.12776487807E+02  0.64390350437E+02 -0.48935695660E+02  0.81878313245E+02  0.00000000000E+00 0.  1.
</event>
<event>
12    1  0.1030140E-001  0.2088981E+03  0.7818608E-02  0.1145069E+00
         21   -1    0    0  501  502  0.00000000000E+00  0.00000000000E+00  0.31232265874E+03  0.31232265874E+03  0.00000000000E+00 0. -1.
         21   -1    0    0  502  503 -0.00000000000E+00 -0.00000000000E+00 -0.22178661642E+03  0.22178661642E+03  0.00000000000E+00 0.  1.
         -6    2    1    2    0  503 -0.36618329024E+02 -0.11306421765E+03 -0.12607838722E+03  0.23317697938E+03  0.15604910975E+03 0.  0.
        -24    2    3    3    0    0  0.10176534031E+02 -0.69954814444E+02 -0.13215874737E+03  0.16908922210E+03  0.78281495993E+02 0.  0.
          6    2    1    2  501    0  0.36618329024E+02  0.11306421765E+03  0.21661442954E+03  0.30093229578E+03  0.17179643834E+03 0.  0.
         24    2    5    5    0    0  0.30134939165E+02  0.12591480014E+03  0.10136251310E+03  0.18469002267E+03  0.84103471762E+02 0.  0.
          5    1    5    5  501    0  0.64833898589E+01 -0.12850582486E+02  0.11525191644E+03  0.11624227311E+03  0.47000000000E+01 0. -1.
        -11    1    6    6    0    0  0.12689413662E+02  0.92154182050E+02  0.11164637501E+03  0.14532146277E+03  0.00000000000E+00 0.  1.
         12    1    6    6    0    0  0.17445525503E+02  0.33760618086E+02 -0.10283861907E+02  0.39368559910E+02  0.00000000000E+00 0. -1.
         -5    1    3    3    0  503 -0.46794863055E+02 -0.43109403205E+02  0.60803601513E+01  0.64087757276E+02  0.47000000000E+01 0.  1.
         13    1    4    4    0    0  0.47057858657E+01 -0.10786404157E+02  0.97241595057E+01  0.15265982227E+02  0.00000000000E+00 0. -1.
        -14    1    4    4    0    0  0.54707481658E+01 -0.59168410287E+02 -0.14188290688E+03  0.15382323987E+03  0.00000000000E+00 0.  1.
</event>
<event>
12    1  0.1030140E-001  0.2063104E+03  0.7818608E-02  0.1145128E+00
         21   -1    0    0  503  502  0.00000000000E+00  0.00000000000E+00  0.12978570816E+03  0.12978570816E+03  0.00000000000E+00 0. -1.
         21   -1    0    0  501  503 -0.00000000000E+00 -0.00000000000E+00 -0.46799569239E+03  0.46799569239E+03  0.00000000000E+00 0.  1.
          6    2    1    2  501    0 -0.90302893094E+02  0.69590784513E+02 -0.20359231093E+01  0.20334891188E+03  0.16837204397E+03 0.  0.
         24    2    3    3    0    0 -0.59026603483E+02  0.78925613943E+02  0.55035975045E+02  0.13743505225E+03  0.78396700085E+02 0.  0.
         -6    2    1    2    0  502  0.90302893094E+02 -0.69590784513E+02 -0.33617406113E+03  0.39443248867E+03  0.17194911732E+03 0.  0.
        -24    2    5    5    0    0 -0.16922435627E+02 -0.20156273590E+00 -0.12757400626E+03  0.14979355450E+03  0.76658805373E+02 0.  0.
          5    1    3    3  501    0 -0.31276289612E+02 -0.93348294298E+01 -0.57071898155E+02  0.65913859630E+02  0.47000000000E+01 0. -1.
        -11    1    4    4    0    0 -0.35910350726E+02  0.35140337727E+02 -0.14296878400E+02  0.52237891964E+02  0.00000000000E+00 0.  1.
         12    1    4    4    0    0 -0.23116252756E+02  0.43785276215E+02  0.69332853445E+02  0.85197160291E+02  0.00000000000E+00 0. -1.
         -5    1    5    5    0  502  0.10722532872E+03 -0.69389221777E+02 -0.20860005487E+03  0.24463893416E+03  0.47000000000E+01 0.  1.
         13    1    6    6    0    0 -0.22111199795E+02  0.16662907861E+02 -0.12914465116E+03  0.13207913756E+03  0.00000000000E+00 0. -1.
        -14    1    6    6    0    0  0.51887641673E+01 -0.16864470597E+02  0.15706449022E+01  0.17714416940E+02  0.00000000000E+00 0.  1.
</event>
<event>
12    1  0.1030140E-001  0.2112671E+03  0.7818608E-02  0.1140618E+00
         21   -1    0    0  501  502  0.00000000000E+00  0.00000000000E+00  0.20478583341E+03  0.20478583341E+03  0.00000000000E+00 0.  1.
         21   -1    0    0  502  503 -0.00000000000E+00 -0.00000000000E+00 -0.28796895710E+03  0.28796895710E+03  0.00000000000E+00 0.  1.
         -6    2    1    2    0  503  0.91891956895E+02  0.78961810805E+02 -0.16333188256E+03  0.26704134886E+03  0.17307420036E+03 0.  0.
        -24    2    3    3    0    0  0.11938173875E+02  0.94152378384E+02 -0.12675746856E+03  0.17769293800E+03  0.80623408693E+02 0.  0.
          6    2    1    2  501    0 -0.91891956895E+02 -0.78961810805E+02  0.80148758870E+02  0.22571344165E+03  0.17275310383E+03 0.  0.
         24    2    5    5    0    0 -0.42020190619E+02 -0.44514588750E+02  0.11728079542E+03  0.15447663713E+03  0.79755886397E+02 0.  0.
          5    1    5    5  501    0 -0.49871766276E+02 -0.34447222054E+02 -0.37132036549E+02  0.71236804512E+02  0.47000000000E+01 0. -1.
        -11    1    6    6    0    0 -0.50567483435E+02 -0.38373345485E+02  0.36930727549E+02  0.73440197862E+02  0.00000000000E+00 0.  1.
         12    1    6    6    0    0  0.85472928157E+01 -0.61412432651E+01  0.80350067870E+02  0.81036439272E+02  0.00000000000E+00 0. -1.
         -5    1    3    3    0  503  0.79953783020E+02 -0.15190567579E+02 -0.36574414000E+02  0.89348410854E+02  0.47000000000E+01 0.  1.
         11    1    4    4    0    0 -0.14840072688E+02  0.47431870762E+02 -0.12297522853E+02  0.51198038924E+02  0.00000000000E+00 0. -1.
        -12    1    4    4    0    0  0.26778246563E+02  0.46720507621E+02 -0.11445994571E+03  0.12649489908E+03  0.00000000000E+00 0.  1.
</event>
<event>
12    1  0.1030140E-001  0.2260150E+03  0.7818608E-02  0.1130845E+00
         21   -1    0    0  503  502  0.00000000000E+00  0.00000000000E+00  0.78330685644E+02  0.78330685644E+02  0.00000000000E+00 0.  1.
         21   -1    0    0  501  503 -0.00000000000E+00 -0.00000000000E+00 -0.10847051804E+04  0.10847051804E+04  0.00000000000E+00 0. -1.
          6    2    1    2  501    0 -0.39632189190E+01  0.14572397780E+03 -0.87442694147E+03  0.90132427307E+03  0.16282439759E+03 0.  0.
         24    2    3    3    0    0 -0.29960803658E+02  0.11254383825E+03 -0.39214892668E+03  0.41718486172E+03  0.81845359494E+02 0.  0.
         -6    2    1    2    0  502  0.39632189190E+01 -0.14572397780E+03 -0.13194755329E+03  0.26171159298E+03  0.17271831481E+03 0.  0.
        -24    2    5    5    0    0 -0.18674006330E+02 -0.16061720698E+02 -0.32759551413E+02  0.96832562777E+02  0.87730608234E+02 0.  0.
          5    1    3    3  501    0  0.25997584739E+02  0.33180139552E+02 -0.48227801479E+03  0.48413941135E+03  0.47000000000E+01 0. -1.
        -11    1    4    4    0    0 -0.51317627078E+02  0.96472781056E+02 -0.35488010999E+03  0.37132248625E+03  0.00000000000E+00 0.  1.
         12    1    4    4    0    0  0.21356823421E+02  0.16071057190E+02 -0.37268816691E+02  0.45862375466E+02  0.00000000000E+00 0. -1.
         -5    1    5    5    0  502  0.22637225249E+02 -0.12966225710E+03 -0.99188001879E+02  0.16487903020E+03  0.47000000000E+01 0.  1.
         13    1    6    6    0    0 -0.41876287914E+02 -0.39725431236E+02 -0.17261325647E+02  0.60246881575E+02  0.00000000000E+00 0. -1.
        -14    1    6    6    0    0  0.23202281584E+02  0.23663710538E+02 -0.15498225766E+02  0.36585681203E+02  0.00000000000E+00 0.  1.
</event>
<event>
12    1  0.1030140E-001  0.1821559E+03  0.7818608E-02  0.1166452E+00
         21   -1    0    0  503  502  0.00000000000E+00  0.00000000000E+00  0.33526479466E+03  0.33526479466E+03  0.00000000000E+00 0.  1.
         21   -1    0    0  501  503 -0.00000000000E+00 -0.00000000000E+00 -0.28222702853E+03  0.28222702853E+03  0.00000000000E+00 0.  1.
          6    2    1    2  501    0 -0.29863619655E+02 -0.38356531342E+02 -0.22344087847E+03  0.28640089167E+03  0.17244299146E+03 0.  0.
         24    2    3    3    0    0 -0.59510205325E+02 -0.22816370584E+02 -0.23048386715E+03  0.25187394092E+03  0.79092463589E+02 0.  0.
         -6    2    1    2    0  502  0.29863619655E+02  0.38356531342E+02  0.27647864460E+03  0.33109093153E+03  0.17554972158E+03 0.  0.
        -24    2    5    5    0    0  0.62646926556E+02  0.57915983099E+02  0.11729252365E+03  0.16732393709E+03  0.83431800380E+02 0.  0.
          5    1    3    3  501    0  0.29646585670E+02 -0.15540160758E+02  0.70429886812E+01  0.34526950746E+02  0.47000000000E+01 0. -1.
        -11    1    4    4    0    0  0.14024237322E+02 -0.13817132407E+02 -0.99156463400E+02  0.10109202053E+03  0.00000000000E+00 0.  1.
         12    1    4    4    0    0 -0.73534442647E+02 -0.89992381771E+01 -0.13132740375E+03  0.15078192040E+03  0.00000000000E+00 0. -1.
         -5    1    5    5    0  502 -0.32783306901E+02 -0.19559451756E+02  0.15918612095E+03  0.16376699444E+03  0.47000000000E+01 0.  1.
         13    1    6    6    0    0  0.34371096608E+02  0.15733658393E+01  0.27723160299E+00  0.34408205699E+02  0.00000000000E+00 0. -1.
        -14    1    6    6    0    0  0.28275829949E+02  0.56342617259E+02  0.11701529205E+03  0.13291573139E+03  0.00000000000E+00 0.  1.
</event>
<event>
12    1  0.1030140E-001  0.2029604E+03  0.7818608E-02  0.1147501E+00
         21   -1    0    0  503  502  0.00000000000E+00  0.00000000000E+00  0.12325189615E+03  0.12325189615E+03  0.00000000000E+00 0. -1.
         21   -1    0    0  501  503 -0.00000000000E+00 -0.00000000000E+00 -0.52236772999E+03  0.52236772999E+03  0.00000000000E+00 0. -1.
          6    2    1    2  501    0  0.10150412188E+03 -0.40427449138E+02 -0.39389781464E+03  0.44259214513E+03  0.16969046275E+03 0.  0.
         24    2    3    3    0    0  0.75393008891E+02 -0.43187061520E+02 -0.39861770892E+03  0.41550389890E+03  0.78728546687E+02 0.  0.
         -6    2    1    2    0  502 -0.10150412188E+03  0.40427449138E+02 -0.52180191974E+01  0.20302748100E+03  0.17104228985E+03 0.  0.
        -24    2    5    5    0    0 -0.64795101395E+02  0.57768342043E+02 -0.62676137912E+02  0.13251660129E+03  0.78081783067E+02 0.  0.
          5    1    3    3  501    0  0.26111112990E+02  0.27596123820E+01  0.47198942764E+01  0.27088246234E+02  0.47000000000E+01 0. -1.
        -13    1    4    4    0    0  0.26490326314E+02 -0.47124873810E+02 -0.10800444170E+03  0.12077851856E+03  0.00000000000E+00 0.  1.
         14    1    4    4    0    0  0.48902682577E+02  0.39378122895E+01 -0.29061326722E+03  0.29472538033E+03  0.00000000000E+00 0. -1.
         -5    1    5    5    0  502 -0.36709020485E+02 -0.17340892905E+02  0.57458118715E+02  0.70510879713E+02  0.47000000000E+01 0.  1.
         13    1    6    6    0    0 -0.46595857971E+02 -0.66056896398E+01 -0.40352576504E+02  0.61993060468E+02  0.00000000000E+00 0. -1.
        -14    1    6    6    0    0 -0.18199243424E+02  0.64374031683E+02 -0.22323561408E+02  0.70523540823E+02  0.00000000000E+00 0.  1.
</event>
<event>
12    1  0.1030140E-001  0.2127454E+03  0.7818608E-02  0.1139458E+00
         21   -1    0    0  503  502  0.00000000000E+00  0.00000000000E+00  0.24066130377E+03  0.24066130377E+03  0.00000000000E+00 0.  1.
         21   -1    0    0  501  503 -0.00000000000E+00 -0.00000000000E+00 -0.20749131194E+03  0.20749131194E+03  0.00000000000E+00 0.  1.
          6    2    1    2  501    0 -0.12197843733E+03 -0.27092455357E+02 -0.52361402173E+02  0.21885755147E+03  0.17188417929E+03 0.  0.
         24    2    3    3    0    0 -0.81670284297E+02 -0.15263202022E+02 -0.10161819125E+03  0.15394992707E+03  0.80444531080E+02 0.  0.
         -6    2    1    2    0  502  0.12197843733E+03  0.27092455357E+02  0.85531394008E+02  0.22929506424E+03  0.17218555924E+03 0.  0.
        -24    2    5    5    0    0  0.49882995076E+02 -0.47864653214E+01 -0.20243642238E+02  0.97293296559E+02  0.80900908871E+02 0.  0.
          5    1    3    3  501    0 -0.40308153035E+02 -0.11829253335E+02  0.49256789073E+02  0.64907624401E+02  0.47000000000E+01 0. -1.
        -11    1    4    4    0    0 -0.52041190204E+02 -0.29215278308E+02 -0.15275442484E+02  0.61604846461E+02  0.00000000000E+00 0.  1.
         12    1    4    4    0    0 -0.29629094093E+02  0.13952076286E+02 -0.86342748762E+02  0.92345080612E+02  0.00000000000E+00 0. -1.
         -5    1    5    5    0  502  0.72095442256E+02  0.31878920678E+02  0.10577503625E+03  0.13200176768E+03  0.47000000000E+01 0.  1.
         13    1    6    6    0    0 -0.18063971363E+02  0.69599163215E+01 -0.20693917445E+02  0.28337002591E+02  0.00000000000E+00 0. -1.
        -14    1    6    6    0    0  0.67946966439E+02 -0.11746381643E+02  0.45027520733E+00  0.68956293968E+02  0.00000000000E+00 0.  1.
</event>
<event>
12    1  0.1030140E-001  0.1898716E+03  0.7818608E-02  0.1159029E+00
         21   -1    0    0  503  502  0.00000000000E+00  0.00000000000E+00  0.34182428604E+03  0.34182428604E+03  0.00000000000E+00 0.  1.
         21   -1    0    0  501  503 -0.00000000000E+00 -0.00000000000E+00 -0.14854094633E+03  0.14854094633E+03  0.00000000000E+00 0.  1.
          6    2    1    2  501    0 -0.19949446058E+02 -0.76754799432E+02 -0.36709527530E+02  0.19338775878E+03  0.17251653892E+03 0.  0.
         24    2    3    3    0    0 -0.37275918460E+02 -0.40130608427E+02  0.39850095048E+02  0.10664097888E+03  0.82366913699E+02 0.  0.
         -6    2    1    2    0  502  0.19949446058E+02  0.76754799432E+02  0.22999286724E+03  0.29697747359E+03  0.17032211014E+03 0.  0.
        -24    2    5    5    0    0  0.99421949761E+01  0.38931604953E+02  0.35582227503E+02  0.98613348912E+02  0.82728354054E+02 0.  0.
          5    1    3    3  501    0  0.17326472403E+02 -0.36624191005E+02 -0.76559622578E+02  0.86746779894E+02  0.47000000000E+01 0. -1.
        -11    1    4    4    0    0  0.24332119754E+02 -0.22639001697E+02  0.23002717753E+02  0.40419073141E+02  0.00000000000E+00 0.  1.
         12    1    4    4    0    0 -0.61608038214E+02 -0.17491606730E+02  0.16847377296E+02  0.66221905744E+02  0.00000000000E+00 0. -1.
         -5    1    5    5    0  502  0.10007251082E+02  0.37823194479E+02  0.19441063974E+03  0.19836412468E+03  0.47000000000E+01 0.  1.
         13    1    6    6    0    0  0.21890535125E+01 -0.25530051432E+02  0.18109159465E+02  0.31377016077E+02  0.00000000000E+00 0. -1.
        -14    1    6    6    0    0  0.77531414637E+01  0.64461656385E+02  0.17473068039E+02  0.67236332835E+02  0.00000000000E+00 0.  1.
</event>
<event>
12    1  0.1030140E-001  0.1863475E+03  0.7818608E-02  0.1163012E+00
         21   -1    0    0  503  502  0.00000000000E+00  0.00000000000E+00  0.28688610991E+03  0.28688610991E+03  0.00000000000E+00 0. -1.
         21   -1    0    0  501  503 -0.00000000000E+00 -0.00000000000E+00 -0.13917340614E+03  0.13917340614E+03  0.00000000000E+00 0. -1.
          6    2    1    2  501    0  0.65529667067E+02 -0.27555508287E+02 -0.10684217066E+02  0.18148850218E+03  0.16664477378E+03 0.  0.
         24    2    3    3    0    0  0.43842986296E+02 -0.81476329516E+02 -0.59030794618E+01  0.12298451632E+03  0.80806838750E+02 0.  0.
         -6    2    1    2    0  502 -0.65529667067E+02  0.27555508287E+02  0.15839692083E+03  0.24457101387E+03  0.17225548755E+03 0.  0.
        -24    2    5    5    0    0 -0.27265587926E+02  0.82888588764E+02  0.10588217738E+03  0.15909717092E+03  0.80541566144E+02 0.  0.
          5    1    3    3  501    0  0.21686680771E+02  0.53920821229E+02 -0.47811376037E+01  0.58503985862E+02  0.47000000000E+01 0. -1.
        -13    1    4    4    0    0  0.36904267488E+02 -0.47626532251E+02  0.34810700928E+02  0.69584455392E+02  0.00000000000E+00 0.  1.
         14    1    4    4    0    0  0.69387188072E+01 -0.33849797265E+02 -0.40713780390E+02  0.53400060929E+02  0.00000000000E+00 0. -1.
         -5    1    5    5    0  502 -0.38264079140E+02 -0.55333080477E+02  0.52514743454E+02  0.85473842944E+02  0.47000000000E+01 0.  1.
         13    1    6    6    0    0 -0.33179372788E+02  0.38805859072E+02  0.10247442242E+03  0.11448918170E+03  0.00000000000E+00 0. -1.
        -14    1    6    6    0    0  0.59137848612E+01  0.44082729692E+02  0.34077549618E+01  0.44607989221E+02  0.00000000000E+00 0.  1.
</event>
<event>
12    1  0.1030140E-001  0.1997604E+03  0.7818608E-02  0.1150123E+00
         21   -1    0    0  503  502  0.00000000000E+00  0.00000000000E+00  0.58394602151E+03  0.58394602151E+03  0.00000000000E+00 0.  1.
         21   -1    0    0  501  503 -0.00000000000E+00 -0.00000000000E+00 -0.11366343795E+03  0.11366343795E+03  0.00000000000E+00 0. -1.
          6    2    1    2  501    0 -0.98974667672E+02  0.20375026070E+02  0.13860157037E+02  0.19938696718E+03  0.17132405610E+03 0.  0.
         24    2    3    3    0    0 -0.32403424224E+01  0.13825762466E+02  0.52855568750E+02  0.95701452184E+02  0.78507358097E+02 0.  0.
         -6    2    1    2    0  502  0.98974667672E+02 -0.20375026070E+02  0.45642242653E+03  0.49822249228E+03  0.17231684145E+03 0.  0.
        -24    2    5    5    0    0  0.52249768649E+02 -0.77404155624E+02  0.24203000456E+03  0.27145887438E+03  0.79937198724E+02 0.  0.
          5    1    3    3  501    0 -0.95734325249E+02  0.65492636032E+01 -0.38995411713E+02  0.10368551499E+03  0.47000000000E+01 0. -1.
        -13    1    4    4    0    0  0.36642745743E+02 -0.24054090979E+01  0.24458541703E+02  0.44121390172E+02  0.00000000000E+00 0.  1.
         14    1    4    4    0    0 -0.39883088165E+02  0.16231171564E+02  0.28397027048E+02  0.51580062011E+02  0.00000000000E+00 0. -1.
         -5    1    5    5    0  502  0.46724899023E+02  0.57029129554E+02  0.21439242197E+03  0.22676361790E+03  0.47000000000E+01 0.  1.
         13    1    6    6    0    0  0.42678970445E+02 -0.65938851875E+02  0.93210567522E+02  0.12189190540E+03  0.00000000000E+00 0. -1.
        -14    1    6    6    0    0  0.95707982042E+01 -0.11465303748E+02  0.14881943704E+03  0.14956696898E+03  0.00000000000E+00 0.  1.
</event>
<event>
12    1  0.1030140E-001  0.1785692E+03  0.7818608E-02  0.1169853E+00
         21   -1    0    0  501  502  0.00000000000E+00  0.00000000000E+00  0.85645195951E+03  0.85645195951E+03  0.00000000000E+00 0. -1.
         21   -1    0    0  502  503 -0.00000000000E+00 -0.00000000000E+00 -0.40082822235E+02  0.40082822235E+02  0.00000000000E+00 0. -1.
         -6    2    1    2    0  503  0.29801706929E+02 -0.38886393025E+02  0.54165557134E+03  0.57033123463E+03  0.17171681902E+03 0.  0.
        -24    2    3    3    0    0  0.72449172646E+02 -0.92822577066E+01  0.46768101938E+03  0.47983518224E+03  0.78620756197E+02 0.  0.
          6    2    1    2  501    0 -0.29801706929E+02  0.38886393025E+02  0.27471356593E+03  0.32620354711E+03  0.16894057400E+03 0.  0.
         24    2    5    5    0    0 -0.51486361556E+02  0.23798159516E+02  0.69520967796E+02  0.11926401158E+03  0.78571888561E+02 0.  0.
          5    1    5    5  501    0  0.21684654627E+02  0.15088233509E+02  0.20519259813E+03  0.20693953553E+03  0.47000000000E+01 0. -1.
        -11    1    6    6    0    0 -0.60785262484E+02  0.26155486617E+02  0.80811530719E+02  0.10444836577E+03  0.00000000000E+00 0.  1.
         12    1    6    6    0    0  0.92989009284E+01 -0.23573271014E+01 -0.11290562923E+02  0.14815645806E+02  0.00000000000E+00 0. -1.
         -5    1    3    3    0  503 -0.42647465717E+02 -0.29604135318E+02  0.73974551961E+02  0.90496052389E+02  0.47000000000E+01 0.  1.
         13    1    4    4    0    0  0.12185644340E+02  0.21344533122E+02  0.26586460942E+03  0.26699825760E+03  0.00000000000E+00 0. -1.
        -14    1    4    4    0    0  0.60263528306E+02 -0.30626790829E+02  0.20181640996E+03  0.21283692464E+03  0.00000000000E+00 0.  1.
</event>
<event>
12    1  0.1030140E-001  0.2345639E+03  0.7818608E-02  0.1124525E+00
         21   -1    0    0  503  502  0.00000000000E+00  0.00000000000E+00  0.90176632321E+02  0.90176632321E+02  0.00000000000E+00 0.  1.
         21   -1    0    0  501  503 -0.00000000000E+00 -0.00000000000E+00 -0.61486897578E+03  0.61486897578E+03  0.00000000000E+00 0. -1.
          6    2    1    2  501    0 -0.14985824823E+03 -0.10033333015E+02 -0.32327103019E+03  0.39586807434E+03  0.17218946247E+03 0.  0.
         24    2    3    3    0    0 -0.15046398925E+02 -0.23837060277E+02 -0.67540356220E+02  0.10641160920E+03  0.77247208957E+02 0.  0.
         -6    2    1    2    0  502  0.14985824823E+03  0.10033333015E+02 -0.20142131327E+03  0.30917753376E+03  0.18017224983E+03 0.  0.
        -24    2    5    5    0    0  0.18472404079E+02 -0.10265153775E+00 -0.15044951531E+03  0.16780853994E+03  0.71995896898E+02 0.  0.
          5    1    3    3  501    0 -0.13481184931E+03  0.13803727262E+02 -0.25573067397E+03  0.28945646514E+03  0.47000000000E+01 0. -1.
        -13    1    4    4    0    0 -0.32360952130E+02  0.70376655915E+00  0.13739152260E+00  0.32368895355E+02  0.00000000000E+00 0.  1.
         14    1    4    4    0    0  0.17314553205E+02 -0.24540826836E+02 -0.67677747742E+02  0.74042713848E+02  0.00000000000E+00 0. -1.
         -5    1    5    5    0  502  0.13138584415E+03  0.10135984553E+02 -0.50971797957E+02  0.14136899382E+03  0.47000000000E+01 0.  1.
         13    1    6    6    0    0  0.33180389463E+02  0.25007227843E+02 -0.61498171543E+02  0.74218089388E+02  0.00000000000E+00 0. -1.
        -14    1    6    6    0    0 -0.14707985384E+02 -0.25109879381E+02 -0.88951343769E+02  0.93590450554E+02  0.00000000000E+00 0.  1.
</event>
<event>
12    1  0.1030140E-001  0.2429384E+03  0.7818608E-02  0.1117902E+00
         21   -1    0    0  503  502  0.00000000000E+00  0.00000000000E+00  0.29413825628E+03  0.29413825628E+03  0.00000000000E+00 0. -1.
         21   -1    0    0  501  503 -0.00000000000E+00 -0.00000000000E+00 -0.48955510489E+03  0.48955510489E+03  0.00000000000E+00 0. -1.
          6    2    1    2  501    0  0.94043179854E+02 -0.14356512355E+03 -0.39888558374E+03  0.46704260903E+03  0.17194192438E+03 0.  0.
         24    2    3    3    0    0  0.14145394049E+02 -0.98669584673E+02 -0.10954189563E+03  0.16349504202E+03  0.69248991006E+02 0.  0.
         -6    2    1    2    0  502 -0.94043179854E+02  0.14356512355E+03  0.20346873513E+03  0.31665075214E+03  0.17150250225E+03 0.  0.
        -24    2    5    5    0    0 -0.31804196990E+02  0.11107443115E+03  0.20285567359E+03  0.24628171118E+03  0.78455214955E+02 0.  0.
          5    1    3    3  501    0  0.79897785804E+02 -0.44895538879E+02 -0.28934368811E+03  0.30354756701E+03  0.47000000000E+01 0. -1.
        -13    1    4    4    0    0 -0.23364482334E+02 -0.30375235044E+02 -0.15423157467E+02  0.41308930329E+02  0.00000000000E+00 0.  1.
         14    1    4    4    0    0  0.37509876383E+02 -0.68294349629E+02 -0.94118738158E+02  0.12218611169E+03  0.00000000000E+00 0. -1.
         -5    1    5    5    0  502 -0.62238982864E+02  0.32490692405E+02  0.61306153608E+00  0.70369040958E+02  0.47000000000E+01 0.  1.
         13    1    6    6    0    0 -0.34666428292E+02  0.27581398203E+02  0.12291270067E+03  0.13065231251E+03  0.00000000000E+00 0. -1.
        -14    1    6    6    0    0  0.28622313025E+01  0.83493032944E+02  0.79942972915E+02  0.11562939867E+03  0.00000000000E+00 0.  1.
</event>
<event>
12    1  0.1030140E-001  0.2268363E+03  0.7818608E-02  0.1128946E+00
         21   -1    0    0  503  502  0.00000000000E+00  0.00000000000E+00  0.20719736723E+03  0.20719736723E+03  0.00000000000E+00 0. -1.
         21   -1    0    0  501  503 -0.00000000000E+00 -0.00000000000E+00 -0.36489743971E+03  0.36489743971E+03  0.00000000000E+00 0.  1.
          6    2    1    2  501    0  0.31511044566E+02  0.14456764922E+03 -0.24073375424E+03  0.33053877778E+03  0.17149458316E+03 0.  0.
         24    2    3    3    0    0  0.39754517918E+02  0.16907983238E+03 -0.23559496960E+03  0.30375633794E+03  0.81206599022E+02 0.  0.
         -6    2    1    2    0  502 -0.31511044566E+02 -0.14456764922E+03  0.83033681768E+02  0.24155602915E+03  0.17193595256E+03 0.  0.
        -24    2    5    5    0    0  0.48086043497E+02 -0.65721082457E+02  0.30129791539E+02  0.11756655734E+03  0.79262619240E+02 0.  0.
          5    1    3    3  501    0 -0.82434733522E+01 -0.24512183160E+02 -0.51387846390E+01  0.26782439839E+02  0.47000000000E+01 0. -1.
        -13    1    4    4    0    0  0.37014084476E+02  0.29304219597E+02 -0.91653423524E+02  0.10309767107E+03  0.00000000000E+00 0.  1.
         14    1    4    4    0    0  0.27404334426E+01  0.13977561278E+03 -0.14394154608E+03  0.20065866688E+03  0.00000000000E+00 0. -1.
         -5    1    5    5    0  502 -0.79597088063E+02 -0.78846566762E+02  0.52903890228E+02  0.12398947181E+03  0.47000000000E+01 0.  1.
         13    1    6    6    0    0 -0.37518073951E+01 -0.59621984645E+02  0.26171702669E+02  0.65221278218E+02  0.00000000000E+00 0. -1.
        -14    1    6    6    0    0  0.51837850892E+02 -0.60990978115E+01  0.39580888705E+01  0.52345279126E+02  0.00000000000E+00 0.  1.
</event>
<event>
12    1  0.1030140E-001  0.1876792E+03  0.7818608E-02  0.1161647E+00
         21   -1    0    0  501  502  0.00000000000E+00  0.00000000000E+00  0.20147911222E+03  0.20147911222E+03  0.00000000000E+00 0.  1.
         21   -1    0    0  502  503 -0.00000000000E+00 -0.00000000000E+00 -0.19868544825E+03  0.19868544825E+03  0.00000000000E+00 0.  1.
         -6    2    1    2    0  503  0.74755551146E+02  0.16702462932E+02 -0.73895745871E+02  0.20170286450E+03  0.17133621798E+03 0.  0.
        -24    2    3    3    0    0  0.39016823800E+01  0.12565316848E+02  0.20546714712E+02  0.83470656289E+02  0.79825263313E+02 0.  0.
          6    2    1    2  501    0 -0.74755551146E+02 -0.16702462932E+02  0.76689409845E+02  0.19846169597E+03  0.16624805109E+03 0.  0.
         24    2    5    5    0    0 -0.81646591018E+02 -0.18953271402E+02  0.11286609990E+03  0.16126767128E+03  0.79013372106E+02 0.  0.
          5    1    5    5  501    0  0.68910398720E+01  0.22508084702E+01 -0.36176690058E+02  0.37194024692E+02  0.47000000000E+01 0. -1.
        -13    1    6    6    0    0 -0.94866128239E+02 -0.27644889701E+02  0.10238331604E+03  0.14228902142E+03  0.00000000000E+00 0.  1.
         14    1    6    6    0    0  0.13219537222E+02  0.86916182992E+01  0.10482783867E+02  0.18978649863E+02  0.00000000000E+00 0. -1.
         -5    1    3    3    0  503  0.70853868765E+02  0.41371460833E+01 -0.94442460583E+02  0.11823220821E+03  0.47000000000E+01 0.  1.
         11    1    4    4    0    0 -0.30350894119E+02  0.29700375949E+02  0.83707924646E+01  0.43282320546E+02  0.00000000000E+00 0. -1.
        -12    1    4    4    0    0  0.34252576499E+02 -0.17135059101E+02  0.12175922247E+02  0.40188335743E+02  0.00000000000E+00 0.  1.
</event>
<event>
12    1  0.1030140E-001  0.1929740E+03  0.7818608E-02  0.1155905E+00
         21   -1    0    0  501  502  0.00000000000E+00  0.00000000000E+00  0.62908147617E+02  0.62908147617E+02  0.00000000000E+00 0. -1.
         21   -1    0    0  502  503 -0.00000000000E+00 -0.00000000000E+00 -0.59319813166E+03  0.59319813166E+03  0.00000000000E+00 0. -1.
         -6    2    1    2    0  503 -0.78717819429E+02  0.33491962043E+02 -0.28662879067E+03  0.34528521730E+03  0.17247495767E+03 0.  0.
        -24    2    3    3    0    0  0.24892618758E+02  0.11335715172E+02 -0.15006806800E+03  0.17237789196E+03  0.80284317885E+02 0.  0.
          6    2    1    2  501    0  0.78717819429E+02 -0.33491962043E+02 -0.24366119337E+03  0.31082106198E+03  0.17297615095E+03 0.  0.
         24    2    5    5    0    0  0.66729282605E+02 -0.32696438361E+02 -0.26351448401E+03  0.28714404734E+03  0.86544591995E+02 0.  0.
          5    1    5    5  501    0  0.11988536823E+02 -0.79552368214E+00  0.19853290637E+02  0.23677014639E+02  0.47000000000E+01 0. -1.
        -11    1    6    6    0    0  0.17733709885E+02 -0.84252981089E+01 -0.20904574382E+03  0.20996569511E+03  0.00000000000E+00 0.  1.
         12    1    6    6    0    0  0.48995572720E+02 -0.24271140252E+02 -0.54468740188E+02  0.77178352230E+02  0.00000000000E+00 0. -1.
         -5    1    3    3    0  503 -0.10361043819E+03  0.22156246871E+02 -0.13656072268E+03  0.17290732533E+03  0.47000000000E+01 0.  1.
         11    1    4    4    0    0  0.71953227540E+01  0.41346759632E+02 -0.11717181288E+03  0.12446108201E+03  0.00000000000E+00 0. -1.
        -12    1    4    4    0    0  0.17697296004E+02 -0.30011044460E+02 -0.32896255120E+02  0.47916809956E+02  0.00000000000E+00 0.  1.
</event>
<event>
12    1  0.1030140E-001  0.2231185E+03  0.7818608E-02  0.1131628E+00
         21   -1    0    0  503  502  0.00000000000E+00  0.00000000000E+00  0.85033230716E+03  0.85033230716E+03  0.00000000000E+00 0.  1.
         21   -1    0    0  501  503 -0.00000000000E+00 -0.00000000000E+00 -0.58529325697E+02  0.58529325697E+02  0.00000000000E+00 0.  1.
          6    2    1    2  501    0  0.32222627307E+02 -0.13878958394E+03  0.40969760749E+03  0.46638407361E+03  0.17135089207E+03 0.  0.
         24    2    3    3    0    0  0.38671359256E+02 -0.15062531246E+02  0.23358867082E+03  0.25100901171E+03  0.81972574385E+02 0.  0.
         -6    2    1    2    0  502 -0.32222627307E+02  0.13878958394E+03  0.38210537397E+03  0.44247755924E+03  0.17170039982E+03 0.  0.
        -24    2    5    5    0    0 -0.54874047522E+01  0.46824142763E+02  0.70075695807E+02  0.11604682456E+03  0.79584234559E+02 0.  0.
          5    1    3    3  501    0 -0.64487319496E+01 -0.12372705269E+03  0.17610893668E+03  0.21537506190E+03  0.47000000000E+01 0. -1.
        -13    1    4    4    0    0 -0.31670818225E+01 -0.19885871933E+02  0.18749136553E+03  0.18856959049E+03  0.00000000000E+00 0.  1.
         14    1    4    4    0    0  0.41838441079E+02  0.48233406868E+01  0.46097305283E+02  0.62439421215E+02  0.00000000000E+00 0. -1.
         -5    1    5    5    0  502 -0.26735222554E+02  0.91965441176E+02  0.31202967816E+03  0.32643073469E+03  0.47000000000E+01 0.  1.
         11    1    6    6    0    0 -0.36303430300E+02  0.15653788340E+01  0.18281010585E+02  0.40676587989E+02  0.00000000000E+00 0. -1.
        -12    1    6    6    0    0  0.30816025547E+02  0.45258763929E+02  0.51794685221E+02  0.75370236567E+02  0.00000000000E+00 0.  1.
</event>
<event>
12    1  0.1030140E-001  0.1984345E+03  0.7818608E-02  0.1153629E+00
         21   -1    0    0  503  502  0.00000000000E+00  0.00000000000E+00  0.18348711750E+04  0.18348711750E+04  0.00000000000E+00 0. -1.
         21   -1    0    0  501  503 -0.00000000000E+00 -0.00000000000E+00 -0.30683468906E+02  0.30683468906E+02  0.00000000000E+00 0.  1.
          6    2    1    2  501    0 -0.32641541563E+02 -0.85245958756E+02  0.37549751333E+03  0.42470534846E+03  0.17619281134E+03 0.  0.
         24    2    3    3    0    0 -0.83949655883E+02 -0.27392536514E+02  0.24888389757E+03  0.27627139426E+03  0.81146737700E+02 0.  0.
         -6    2    1    2    0  502  0.32641541563E+02  0.85245958756E+02  0.14286901928E+04  0.14408492955E+04  0.16296834536E+03 0.  0.
        -24    2    5    5    0    0  0.34623258025E+02  0.10879712818E+03  0.71588605449E+03  0.72763795629E+03  0.62678284220E+02 0.  0.
          5    1    3    3  501    0  0.51308114320E+02 -0.57853422242E+02  0.12661361576E+03  0.14843395419E+03  0.47000000000E+01 0. -1.
        -13    1    4    4    0    0 -0.40936155669E+02 -0.53003071774E+02  0.11169094794E+03  0.13023042007E+03  0.00000000000E+00 0.  1.
         14    1    4    4    0    0 -0.43013500213E+02  0.25610535260E+02  0.13719294963E+03  0.14604097420E+03  0.00000000000E+00 0. -1.
         -5    1    5    5    0  502 -0.19817164625E+01 -0.23551169428E+02  0.71280413830E+03  0.71321133920E+03  0.47000000000E+01 0.  1.
         13    1    6    6    0    0 -0.71852056660E+01  0.64252093146E+01  0.19036022393E+03  0.19060410633E+03  0.00000000000E+00 0. -1.
        -14    1    6    6    0    0  0.41808463691E+02  0.10237191887E+03  0.52552583056E+03  0.53703384995E+03  0.00000000000E+00 0.  1.
</event>
<event>
12    1  0.1030140E-001  0.1841818E+03  0.7818608E-02  0.1165137E+00
         21   -1    0    0  501  502  0.00000000000E+00  0.00000000000E+00  0.32045727349E+03  0.32045727349E+03  0.00000000000E+00 0. -1.
         21   -1    0    0  502  503 -0.00000000000E+00 -0.00000000000E+00 -0.12789741673E+03  0.12789741673E+03  0.00000000000E+00 0.  1.
         -6    2    1    2    0  503 -0.52601088660E+02 -0.40235183013E+02 -0.43916849171E+01  0.17870149258E+03  0.16591923359E+03 0.  0.
        -24    2    3    3    0    0  0.15973669682E+02 -0.41747341665E+02  0.37673941108E+02  0.98101300283E+02  0.78781600767E+02 0.  0.
          6    2    1    2  501    0  0.52601088660E+02  0.40235183013E+02  0.19695154168E+03  0.26965319764E+03  0.17186387854E+03 0.  0.
         24    2    5    5    0    0  0.94539565250E+02  0.41801475435E+02  0.10245132900E+03  0.16614634141E+03  0.80145113407E+02 0.  0.
          5    1    5    5  501    0 -0.41938476590E+02 -0.15662924224E+01  0.94500212679E+02  0.10350685623E+03  0.47000000000E+01 0. -1.
        -11    1    6    6    0    0  0.44248292883E+02 -0.20954010789E+02  0.27191404834E+02  0.56003164982E+02  0.00000000000E+00 0.  1.
         12    1    6    6    0    0  0.50291272368E+02  0.62755486224E+02  0.75259924169E+02  0.11014317643E+03  0.00000000000E+00 0. -1.
         -5    1    3    3    0  503 -0.68574758342E+02  0.15121586518E+01 -0.42065626025E+02  0.80600192297E+02  0.47000000000E+01 0.  1.
         13    1    4    4    0    0 -0.29998805070E+02 -0.61698712640E+01  0.39078715560E+01  0.30875023516E+02  0.00000000000E+00 0. -1.
        -14    1    4    4    0    0  0.45972474752E+02 -0.35577470401E+02  0.33766069552E+02  0.67226276767E+02  0.00000000000E+00 0.  1.
</event>
<event>
12    1  0.1030140E-001  0.1900607E+03  0.7818608E-02  0.1158542E+00
         21   -1    0    0  503  502  0.00000000000E+00  0.00000000000E+00  0.11127139756E+03  0.11127139756E+03  0.00000000000E+00 0.  1.
         21   -1    0    0  501  503 -0.00000000000E+00 -0.00000000000E+00 -0.32361426408E+03  0.32361426408E+03  0.00000000000E+00 0.  1.
          6    2    1    2  501    0 -0.20834440361E+02  0.76716281789E+02 -0.10675386724E+03  0.21798956315E+03  0.17263719088E+03 0.  0.
         24    2    3    3    0    0  0.39705246113E+02  0.81600401058E+02 -0.95476046283E+02  0.15603645584E+03  0.83645490712E+02 0.  0.
         -6    2    1    2    0  502  0.20834440361E+02 -0.76716281789E+02 -0.10558899929E+03  0.21689609849E+03  0.17197505335E+03 0.  0.
        -24    2    5    5    0    0  0.73503628540E+02 -0.82249648325E+02 -0.64510605328E+02  0.14970840632E+03  0.77994875899E+02 0.  0.
          5    1    3    3  501    0 -0.60539686475E+02 -0.48841192694E+01 -0.11277820954E+02  0.61953107307E+02  0.47000000000E+01 0. -1.
        -13    1    4    4    0    0 -0.19346837075E+02  0.55468582835E+02 -0.48547069904E+02  0.76209459930E+02  0.00000000000E+00 0.  1.
         14    1    4    4    0    0  0.59052083188E+02  0.26131818223E+02 -0.46928976378E+02  0.79826995913E+02  0.00000000000E+00 0. -1.
         -5    1    5    5    0  502 -0.52669188179E+02  0.55333665359E+01 -0.41078393961E+02  0.67187692170E+02  0.47000000000E+01 0.  1.
         13    1    6    6    0    0  0.39268032145E+02  0.64632993378E+01 -0.15266877452E+02  0.42624290423E+02  0.00000000000E+00 0. -1.
        -14    1    6    6    0    0  0.34235596395E+02 -0.88712947663E+02 -0.49243727876E+02  0.10708411590E+03  0.00000000000E+00 0.  1.
</event>
<event>
12    1  0.1030140E-001  0.1811736E+03  0.7818608E-02  0.1167537E+00
         21   -1    0    0  503  502  0.00000000000E+00  0.00000000000E+00  0.32775502231E+03  0.32775502231E+03  0.00000000000E+00 0. -1.
         21   -1    0    0  501  503 -0.00000000000E+00 -0.00000000000E+00 -0.90990924087E+03  0.90990924087E+03  0.00000000000E+00 0.  1.
          6    2    1    2  501    0 -0.10387095239E+02 -0.43111006751E+02 -0.87587713696E+03  0.89441860326E+03  0.17566282519E+03 0.  0.
         24    2    3    3    0    0  0.37904800345E+02 -0.15961535356E+01 -0.71638615798E+03  0.72261914868E+03  0.86775486758E+02 0.  0.
         -6    2    1    2    0  502  0.10387095239E+02  0.43111006751E+02  0.29372291841E+03  0.34324565992E+03  0.17198249796E+03 0.  0.
        -24    2    5    5    0    0 -0.39051225714E+02  0.39273861287E+02  0.27565145134E+03  0.29025944298E+03  0.72106776382E+02 0.  0.
          5    1    3    3  501    0 -0.48291895584E+02 -0.41514853215E+02 -0.15949097898E+03  0.17179945457E+03  0.47000000000E+01 0. -1.
        -13    1    4    4    0    0  0.36882385392E+02  0.18670776340E+02 -0.14251881418E+03  0.14839312867E+03  0.00000000000E+00 0.  1.
         14    1    4    4    0    0  0.10224149521E+01 -0.20266929875E+02 -0.57386734380E+03  0.57422602001E+03  0.00000000000E+00 0. -1.
         -5    1    5    5    0  502  0.49438320953E+02  0.38371454634E+01  0.18071467064E+02  0.52986216942E+02  0.47000000000E+01 0.  1.
         11    1    6    6    0    0  0.19682377895E+02  0.90373175253E+01  0.10621694972E+03  0.10840253463E+03  0.00000000000E+00 0. -1.
        -12    1    6    6    0    0 -0.58733603609E+02  0.30236543762E+02  0.16943450163E+03  0.18185690835E+03  0.00000000000E+00 0.  1.
</event>
<event>
12    1  0.1030140E-001  0.1889294E+03  0.7818608E-02  0.1159572E+00
         21   -1    0    0  503  502  0.00000000000E+00  0.00000000000E+00  0.19822883863E+03  0.19822883863E+03  0.00000000000E+00 0.  1.
         21   -1    0    0  501  503 -0.00000000000E+00 -0.00000000000E+00 -0.21428051159E+03  0.21428051159E+03  0.00000000000E+00 0. -1.
          6    2    1    2  501    0 -0.64892858727E+02 -0.45918342381E+02 -0.91140121648E+02  0.20920519411E+03  0.17070651478E+03 0.  0.
         24    2    3    3    0    0 -0.82184795645E+02 -0.63975545298E+01 -0.72596792576E+01  0.11476514768E+03  0.79517713998E+02 0.  0.
         -6    2    1    2    0  502  0.64892858727E+02  0.45918342381E+02  0.75088448686E+02  0.20330415611E+03  0.17139056999E+03 0.  0.
        -24    2    5    5    0    0  0.38475620967E+02  0.75253510277E+02  0.10265498595E+03  0.15492620138E+03  0.79502311396E+02 0.  0.
          5    1    3    3  501    0  0.17291936918E+02 -0.39520787852E+02 -0.83880442391E+02  0.94440046434E+02  0.47000000000E+01 0. -1.
        -11    1    4    4    0    0  0.51173787351E+01 -0.18421228598E+02  0.14496247194E+02  0.23993132578E+02  0.00000000000E+00 0.  1.
         12    1    4    4    0    0 -0.87302174380E+02  0.12023674068E+02 -0.21755926452E+02  0.90772015100E+02  0.00000000000E+00 0. -1.
         -5    1    5    5    0  502  0.26417237760E+02 -0.29335167896E+02 -0.27566537263E+02  0.48377954721E+02  0.47000000000E+01 0.  1.
         11    1    6    6    0    0 -0.14821000127E+02  0.55715202390E+02  0.38828308003E+02  0.69508872272E+02  0.00000000000E+00 0. -1.
        -12    1    6    6    0    0  0.53296621094E+02  0.19538307888E+02  0.63826677945E+02  0.85417329112E+02  0.00000000000E+00 0.  1.
</event>
<event>
12    1  0.1030140E-001  0.1920871E+03  0.7818608E-02  0.1156945E+00
         21   -1    0    0  501  502  0.00000000000E+00  0.00000000000E+00  0.44982819029E+02  0.44982819029E+02  0.00000000000E+00 0. -1.
         21   -1    0    0  502  503 -0.00000000000E+00 -0.00000000000E+00 -0.19914507236E+04  0.19914507236E+04  0.00000000000E+00 0. -1.
         -6    2    1    2    0  503 -0.70665872556E+02  0.42025212927E+02 -0.19178289613E+03  0.27143716006E+03  0.17360204074E+03 0.  0.
        -24    2    3    3    0    0 -0.69378490393E+02  0.29069364970E+02 -0.33135949902E+02  0.11218749791E+03  0.76352083150E+02 0.  0.
          6    2    1    2  501    0  0.70665872556E+02 -0.42025212927E+02 -0.17546850084E+04  0.17649963826E+04  0.17185158586E+03 0.  0.
         24    2    5    5    0    0  0.10168174114E+03 -0.65511391412E+02 -0.11512840260E+04  0.11603242232E+04  0.79161073599E+02 0.  0.
          5    1    5    5  501    0 -0.31015868586E+02  0.23486178485E+02 -0.60340098246E+03  0.60467215937E+03  0.47000000000E+01 0. -1.
        -11    1    6    6    0    0  0.24163883991E+01 -0.25720622635E+02 -0.89085824741E+02  0.92755989194E+02  0.00000000000E+00 0.  1.
         12    1    6    6    0    0  0.99265352743E+02 -0.39790768777E+02 -0.10621982012E+04  0.10675682340E+04  0.00000000000E+00 0. -1.
         -5    1    3    3    0  503 -0.12873821638E+01  0.12955847958E+02 -0.15864694623E+03  0.15924966216E+03  0.47000000000E+01 0.  1.
         13    1    4    4    0    0 -0.41794906417E+02  0.32977434957E+02  0.16097147875E+02  0.55618734151E+02  0.00000000000E+00 0. -1.
        -14    1    4    4    0    0 -0.27583583975E+02 -0.39080699878E+01 -0.49233097777E+02  0.56568763754E+02  0.00000000000E+00 0.  1.
</event>
<event>
12    1  0.1030140E-001  0.2335801E+03  0.7818608E-02  0.1124731E+00
         21   -1    0    0  503  502  0.00000000000E+00  0.00000000000E+00  0.72015849931E+03  0.72015849931E+03  0.00000000000E+00 0. -1.
         21   -1    0    0  501  503 -0.00000000000E+00 -0.00000000000E+00 -0.96564208777E+02  0.96564208777E+02  0.00000000000E+00 0. -1.
          6    2    1    2  501    0  0.15789319462E+03  0.17415517922E+02  0.11911213548E+03  0.26219722777E+03  0.17124872046E+03 0.  0.
         24    2    3    3    0    0  0.28673406020E+02 -0.21252411850E+02  0.74294833447E+01  0.87017128023E+02  0.79012366908E+02 0.  0.
         -6    2    1    2    0  502 -0.15789319462E+03 -0.17415517922E+02  0.50448215506E+03  0.55452548032E+03  0.16662143434E+03 0.  0.
        -24    2    5    5    0    0 -0.24159701149E+02  0.20176059927E+02  0.10689634586E+03  0.13334340606E+03  0.73231623142E+02 0.  0.
          5    1    3    3  501    0  0.12921978860E+03  0.38667929772E+02  0.11168265213E+03  0.17518009974E+03  0.47000000000E+01 0. -1.
        -11    1    4    4    0    0 -0.26721353987E+02 -0.15618171630E+02  0.10055133259E+01  0.30967226240E+02  0.00000000000E+00 0.  1.
         12    1    4    4    0    0  0.55394760007E+02 -0.56342402201E+01  0.64239700188E+01  0.56049901783E+02  0.00000000000E+00 0. -1.
         -5    1    5    5    0  502 -0.13373349347E+03 -0.37591577849E+02  0.39758580920E+03  0.42118207426E+03  0.47000000000E+01 0.  1.
         13    1    6    6    0    0 -0.29924673053E+02  0.14905899161E+02  0.11636304425E+03  0.12107035126E+03  0.00000000000E+00 0. -1.
        -14    1    6    6    0    0  0.57649719035E+01  0.52701607658E+01 -0.94666983946E+01  0.12273054797E+02  0.00000000000E+00 0.  1.
</event>
<event>
12    1  0.1030140E-001  0.1816953E+03  0.7818608E-02  0.1167048E+00
         21   -1    0    0  501  502  0.00000000000E+00  0.00000000000E+00  0.14475923763E+04  0.14475923763E+04  0.00000000000E+00 0.  1.
         21   -1    0    0  502  503 -0.00000000000E+00 -0.00000000000E+00 -0.24969548554E+02  0.24969548554E+02  0.00000000000E+00 0.  1.
         -6    2    1    2    0  503 -0.53199183898E+02 -0.69038410217E+01  0.46656027767E+03  0.49938734129E+03  0.16979813825E+03 0.  0.
        -24    2    3    3    0    0 -0.75035309239E+01 -0.19282234130E+02  0.43357463537E+03  0.44149554640E+03  0.80642702915E+02 0.  0.
          6    2    1    2  501    0  0.53199183898E+02  0.69038410217E+01  0.95606255004E+03  0.97317458353E+03  0.17359537508E+03 0.  0.
         24    2    5    5    0    0 -0.23384797457E+02 -0.28361024728E+02  0.33405844450E+03  0.34546452764E+03  0.79996868936E+02 0.  0.
          5    1    5    5  501    0  0.76583981355E+02  0.35264865750E+02  0.62200410555E+03  0.62771005589E+03  0.47000000000E+01 0. -1.
        -11    1    6    6    0    0  0.28331863852E+02 -0.20096187281E+02  0.15844897762E+03  0.16221168195E+03  0.00000000000E+00 0.  1.
         12    1    6    6    0    0 -0.51716661309E+02 -0.82648374469E+01  0.17560946688E+03  0.18325284568E+03  0.00000000000E+00 0. -1.
         -5    1    3    3    0  503 -0.45695652974E+02  0.12378393108E+02  0.32985642303E+02  0.57891794883E+02  0.47000000000E+01 0.  1.
         11    1    4    4    0    0 -0.40299535523E+02 -0.25429481031E+02  0.20292583366E+03  0.20844568846E+03  0.00000000000E+00 0. -1.
        -12    1    4    4    0    0  0.32796004599E+02  0.61472469008E+01  0.23064880171E+03  0.23304985795E+03  0.00000000000E+00 0.  1.
</event>
<event>
12    1  0.1030140E-001  0.1924208E+03  0.7818608E-02  0.1156716E+00
         21   -1    0    0  503  502  0.00000000000E+00  0.00000000000E+00  0.78613497104E+02  0.78613497104E+02  0.00000000000E+00 0. -1.
         21   -1    0    0  501  503 -0.00000000000E+00 -0.00000000000E+00 -0.52241741322E+03  0.52241741322E+03  0.00000000000E+00 0.  1.
          6    2    1    2  501    0 -0.51387719935E+02 -0.67935450736E+02 -0.12251449670E+03  0.22652768763E+03  0.17043787177E+03 0.  0.
         24    2    3    3    0    0  0.27914827648E+02  0.82039685876E+00 -0.60028605509E+02  0.10428678928E+03  0.80575370214E+02 0.  0.
         -6    2    1    2    0  502  0.51387719935E+02  0.67935450736E+02 -0.32128941942E+03  0.37450322270E+03  0.17253941449E+03 0.  0.
        -24    2    5    5    0    0 -0.32478413545E+02  0.87612219605E+01 -0.18433635813E+03  0.20329180751E+03  0.78841992066E+02 0.  0.
          5    1    3    3  501    0 -0.79302547583E+02 -0.68755847594E+02 -0.62485891187E+02  0.12224089835E+03  0.47000000000E+01 0. -1.
        -13    1    4    4    0    0  0.32977421647E+02 -0.21479307143E+02 -0.69232609366E+02  0.79636833020E+02  0.00000000000E+00 0.  1.
         14    1    4    4    0    0 -0.50625939996E+01  0.22299704002E+02  0.92040038563E+01  0.24649956259E+02  0.00000000000E+00 0. -1.
         -5    1    5    5    0  502  0.83866133481E+02  0.59174228775E+02 -0.13695306129E+03  0.17121141519E+03  0.47000000000E+01 0.  1.
         13    1    6    6    0    0 -0.47211114313E+01 -0.15273489425E+02 -0.67980676266E+00  0.16000953396E+02  0.00000000000E+00 0. -1.
        -14    1    6    6    0    0 -0.27757302114E+02  0.24034711385E+02 -0.18365655137E+03  0.18729085411E+03  0.00000000000E+00 0.  1.
</event>
<event>
12    1  0.1030140E-001  0.1757010E+03  0.7818608E-02  0.1172167E+00
         21   -1    0    0  501  502  0.00000000000E+00  0.00000000000E+00  0.20678004410E+04  0.20678004410E+04  0.00000000000E+00 0.  1.
         21   -1    0    0  502  503 -0.00000000000E+00 -0.00000000000E+00 -0.16341891803E+02  0.16341891803E+02  0.00000000000E+00 0.  1.
         -6    2    1    2    0  503 -0.80341638394E+01  0.35419553332E+02  0.71579384787E+03  0.73704252012E+03  0.17190622814E+03 0.  0.
        -24    2    3    3    0    0 -0.30351058173E+02  0.56547673791E+02  0.68758338650E+03  0.69506203206E+03  0.78876415266E+02 0.  0.
          6    2    1    2  501    0  0.80341638394E+01 -0.35419553332E+02  0.13356647013E+04  0.13470998127E+04  0.17134356832E+03 0.  0.
         24    2    5    5    0    0 -0.59194071419E+02  0.95052733007E+00  0.77761177582E+03  0.78381695651E+03  0.78639085904E+02 0.  0.
          5    1    5    5  501    0  0.67228235258E+02 -0.36370080662E+02  0.55805292550E+03  0.56328285616E+03  0.47000000000E+01 0. -1.
        -13    1    6    6    0    0 -0.48268038062E+02  0.27464174589E+00  0.18780923253E+03  0.19391283287E+03  0.00000000000E+00 0.  1.
         14    1    6    6    0    0 -0.10926033357E+02  0.67588558418E+00  0.58980254329E+03  0.58990412365E+03  0.00000000000E+00 0. -1.
         -5    1    3    3    0  503  0.22316894334E+02 -0.21128120459E+02  0.28210461371E+02  0.41980488058E+02  0.47000000000E+01 0.  1.
         11    1    4    4    0    0 -0.68105570575E+01 -0.83740262136E+01  0.12754349377E+02  0.16708723185E+02  0.00000000000E+00 0. -1.
        -12    1    4    4    0    0 -0.23540501116E+02  0.64921700005E+02  0.67482903712E+03  0.67835330888E+03  0.00000000000E+00 0.  1.
</event>
<event>
12    1  0.1030140E-001  0.2601836E+03  0.7818608E-02  0.1107172E+00
         21   -1    0    0  503  502  0.00000000000E+00  0.00000000000E+00  0.44085804309E+03  0.44085804309E+03  0.00000000000E+00 0. -1.
         21   -1    0    0  501  503 -0.00000000000E+00 -0.00000000000E+00 -0.16532924308E+03  0.16532924308E+03  0.00000000000E+00 0.  1.
          6    2    1    2  501    0 -0.63593336681E+02 -0.18329036616E+03  0.54801213734E+02  0.26498912830E+03  0.17197847043E+03 0.  0.
         24    2    3    3    0    0 -0.92889437663E+02 -0.42628779978E+02  0.20862452746E+02  0.11728038496E+03  0.53607707010E+02 0.  0.
         -6    2    1    2    0  502  0.63593336681E+02  0.18329036616E+03  0.22072758627E+03  0.34119815787E+03  0.17336679265E+03 0.  0.
        -24    2    5    5    0    0 -0.19783555299E+02  0.76391858537E+02  0.15277653013E+03  0.18947988909E+03  0.79591802988E+02 0.  0.
          5    1    3    3  501    0  0.29296100982E+02 -0.14066158618E+03  0.33938760988E+02  0.14770874333E+03  0.47000000000E+01 0. -1.
        -13    1    4    4    0    0 -0.31525572346E+02 -0.43859770263E+02  0.86921888839E+01  0.54709188505E+02  0.00000000000E+00 0.  1.
         14    1    4    4    0    0 -0.61363865317E+02  0.12309902856E+01  0.12170263862E+02  0.62571196458E+02  0.00000000000E+00 0. -1.
         -5    1    5    5    0  502  0.83376891980E+02  0.10689850762E+03  0.67951056149E+02  0.15171826877E+03  0.47000000000E+01 0.  1.
         11    1    6    6    0    0 -0.21853586012E+01  0.88985549711E+02  0.13376675303E+03  0.16067591004E+03  0.00000000000E+00 0. -1.
        -12    1    6    6    0    0 -0.17598196697E+02 -0.12593691174E+02  0.19009777096E+02  0.28803979058E+02  0.00000000000E+00 0.  1.
</event>
<event>
12    1  0.1030140E-001  0.1863267E+03  0.7818608E-02  0.1162018E+00
         21   -1    0    0  503  502  0.00000000000E+00  0.00000000000E+00  0.24851023684E+03  0.24851023684E+03  0.00000000000E+00 0. -1.
         21   -1    0    0  501  503 -0.00000000000E+00 -0.00000000000E+00 -0.21150487260E+03  0.21150487260E+03  0.00000000000E+00 0. -1.
          6    2    1    2  501    0 -0.65145175244E+02 -0.14837575391E+02 -0.11608907136E+03  0.21953202533E+03  0.17393559198E+03 0.  0.
         24    2    3    3    0    0 -0.80259188884E+02  0.16617591206E+02 -0.21468732671E+02  0.11857183809E+03  0.82949940130E+02 0.  0.
         -6    2    1    2    0  502  0.65145175244E+02  0.14837575391E+02  0.15309443561E+03  0.24048308411E+03  0.17300335264E+03 0.  0.
        -24    2    5    5    0    0  0.10079919303E+03 -0.16658470794E+02  0.12572927169E+03  0.18539994598E+03  0.90151584808E+02 0.  0.
          5    1    3    3  501    0  0.15114013640E+02 -0.31455166596E+02 -0.94620338693E+02  0.10096018724E+03  0.47000000000E+01 0. -1.
        -11    1    4    4    0    0 -0.66462224320E+02 -0.25610766553E+02 -0.57889144973E+01  0.71460829523E+02  0.00000000000E+00 0.  1.
         12    1    4    4    0    0 -0.13796964564E+02  0.42228357759E+02 -0.15679818173E+02  0.47111008566E+02  0.00000000000E+00 0. -1.
         -5    1    5    5    0  502 -0.35654017788E+02  0.31496046185E+02  0.27365163918E+02  0.55083138128E+02  0.47000000000E+01 0.  1.
         13    1    6    6    0    0  0.26454617792E+02  0.74849805316E+01  0.99067024750E+02  0.10281122083E+03  0.00000000000E+00 0. -1.
        -14    1    6    6    0    0  0.74344575239E+02 -0.24143451326E+02  0.26662246944E+02  0.82588725148E+02  0.00000000000E+00 0.  1.
</event>
<event>
12    1  0.1030140E-001  0.1733678E+03  0.7818608E-02  0.1174477E+00
         21   -1    0    0  503  502  0.00000000000E+00  0.00000000000E+00  0.35000703020E+03  0.35000703020E+03  0.00000000000E+00 0.  1.
         21   -1    0    0  501  503 -0.00000000000E+00 -0.00000000000E+00 -0.85721099419E+02  0.85721099419E+02  0.00000000000E+00 0.  1.
          6    2    1    2  501    0 -0.52563534618E+01 -0.22980841176E+02  0.12757848750E+03  0.21494467653E+03  0.17137442979E+03 0.  0.
         24    2    3    3    0    0 -0.26844334351E+02 -0.37329876499E+01  0.15335399978E+03  0.17591920001E+03  0.81826415061E+02 0.  0.
         -6    2    1    2    0  502  0.52563534618E+01  0.22980841176E+02  0.13670744329E+03  0.22078345309E+03  0.17175756110E+03 0.  0.
        -24    2    5    5    0    0  0.36714111471E+02 -0.45784727459E+02  0.68693309562E+02  0.11896839352E+03  0.77398582860E+02 0.  0.
          5    1    3    3  501    0  0.21587980889E+02 -0.19247853526E+02 -0.25775512281E+02  0.39025476519E+02  0.47000000000E+01 0. -1.
        -13    1    4    4    0    0  0.56459758332E+01  0.17728761509E+02  0.96181965321E+00  0.18630918517E+02  0.00000000000E+00 0.  1.
         14    1    4    4    0    0 -0.32490310184E+02 -0.21461749159E+02  0.15239218012E+03  0.15728828150E+03  0.00000000000E+00 0. -1.
         -5    1    5    5    0  502 -0.31457758009E+02  0.68765568635E+02  0.68014133727E+02  0.10181505957E+03  0.47000000000E+01 0.  1.
         13    1    6    6    0    0  0.46955308356E+02 -0.31178201777E+02  0.95169499547E+01  0.57161644354E+02  0.00000000000E+00 0. -1.
        -14    1    6    6    0    0 -0.10241196885E+02 -0.14606525682E+02  0.59176359607E+02  0.61806749166E+02  0.00000000000E+00 0.  1.
</event>
<event>
12    1  0.1030140E-001  0.2505694E+03  0.7818608E-02  0.1115144E+00
         21   -1    0    0  501  502  0.00000000000E+00  0.00000000000E+00  0.83673809436E+02  0.83673809436E+02  0.00000000000E+00 0. -1.
         21   -1    0    0  502  503 -0.00000000000E+00 -0.00000000000E+00 -0.11733036137E+04  0.11733036137E+04  0.00000000000E+00 0. -1.
         -6    2    1    2    0  503 -0.11622445428E+03 -0.11351445502E+03 -0.93035117573E+03  0.96006882502E+03  0.17258384433E+03 0.  0.
        -24    2    3    3    0    0  0.14175102865E+01 -0.22806179360E+02 -0.46533086444E+03  0.47187459829E+03  0.74904552328E+02 0.  0.
          6    2    1    2  501    0  0.11622445428E+03  0.11351445502E+03 -0.15927862855E+03  0.29690859813E+03  0.19076524542E+03 0.  0.
         24    2    5    5    0    0 -0.18595658585E+02  0.12559001189E+02 -0.54940579759E+02  0.98724378489E+02  0.78895554847E+02 0.  0.
          5    1    5    5  501    0  0.13482011286E+03  0.10095545383E+03 -0.10433804879E+03  0.19818421964E+03  0.47000000000E+01 0. -1.
        -13    1    6    6    0    0  0.27032558585E+01  0.20782805998E+02  0.14593251157E+02  0.25538120462E+02  0.00000000000E+00 0.  1.
         14    1    6    6    0    0 -0.21298914443E+02 -0.82238048090E+01 -0.69533830917E+02  0.73186258027E+02  0.00000000000E+00 0. -1.
         -5    1    3    3    0  503 -0.11764196456E+03 -0.90708275656E+02 -0.46502031130E+03  0.48819422673E+03  0.47000000000E+01 0.  1.
         13    1    4    4    0    0  0.31333540281E+02 -0.25434170554E+02 -0.15772359610E+03  0.16280485418E+03  0.00000000000E+00 0. -1.
        -14    1    4    4    0    0 -0.29916029995E+02  0.26279911939E+01 -0.30760726834E+03  0.30906974411E+03  0.00000000000E+00 0.  1.
</event>
<event>
12    1  0.1030140E-001  0.1782311E+03  0.7818608E-02  0.1170077E+00
         21   -1    0    0  501  502  0.00000000000E+00  0.00000000000E+00  0.97551066370E+02  0.97551066370E+02  0.00000000000E+00 0.  1.
         21   -1    0    0  502  503 -0.00000000000E+00 -0.00000000000E+00 -0.36183699631E+03  0.36183699631E+03  0.00000000000E+00 0.  1.
         -6    2    1    2    0  503  0.48019232830E+02  0.12325438511E+02 -0.20950604096E+03  0.27506202949E+03  0.17119747578E+03 0.  0.
        -24    2    3    3    0    0  0.57747082846E+02 -0.22792570103E+02 -0.47351174246E+02  0.10879658993E+03  0.75765014670E+02 0.  0.
          6    2    1    2  501    0 -0.48019232830E+02 -0.12325438511E+02 -0.54779888976E+02  0.18432603318E+03  0.16887121459E+03 0.  0.
         24    2    5    5    0    0 -0.66310771565E+02 -0.61686424808E+02 -0.51406900912E+02  0.13136798936E+03  0.80078372454E+02 0.  0.
          5    1    5    5  501    0  0.18291538735E+02  0.49360986298E+02 -0.33729880639E+01  0.52958043828E+02  0.47000000000E+01 0. -1.
        -11    1    6    6    0    0  0.10094488052E+01  0.17169135063E+02 -0.79075045793E+01  0.18929522297E+02  0.00000000000E+00 0.  1.
         12    1    6    6    0    0 -0.67320220370E+02 -0.78855559872E+02 -0.43499396333E+02  0.11243846706E+03  0.00000000000E+00 0. -1.
         -5    1    3    3    0  503 -0.97278500165E+01  0.35118008614E+02 -0.16215486671E+03  0.16626543957E+03  0.47000000000E+01 0.  1.
         11    1    4    4    0    0  0.24434295364E+02 -0.47674098597E+02 -0.13671131282E+02  0.55287921805E+02  0.00000000000E+00 0. -1.
        -12    1    4    4    0    0  0.33312787482E+02  0.24881528494E+02 -0.33680042963E+02  0.53508668121E+02  0.00000000000E+00 0.  1.
</event>
<event>
12    1  0.1030140E-001  0.2278425E+03  0.7818608E-02  0.1128256E+00
         21   -1    0    0  503  502  0.00000000000E+00  0.00000000000E+00  0.75062771801E+03  0.75062771801E+03  0.00000000000E+00 0.  1.
         21   -1    0    0  501  503 -0.00000000000E+00 -0.00000000000E+00 -0.86827573999E+02  0.86827573999E+02  0.00000000000E+00 0. -1.
          6    2    1    2  501    0  0.63943698240E+02  0.13502746201E+03  0.14249668017E+03  0.26873311324E+03  0.17202026117E+03 0.  0.
         24    2    3    3    0    0 -0.19238382965E+02  0.11679230914E+03  0.84570128927E+02  0.16563435101E+03  0.79196418331E+02 0.  0.
         -6    2    1    2    0  502 -0.63943698240E+02 -0.13502746201E+03  0.52130346384E+03  0.56872217877E+03  0.17136628364E+03 0.  0.
        -24    2    5    5    0    0 -0.30732554679E+02 -0.14411676297E+03  0.29238937409E+03  0.33718525744E+03  0.80549490826E+02 0.  0.
          5    1    3    3  501    0  0.83182081205E+02  0.18235152873E+02  0.57926551248E+02  0.10309876223E+03  0.47000000000E+01 0. -1.
        -13    1    4    4    0    0 -0.36453914548E+02  0.94807396071E+02  0.91668782722E+02  0.13682286345E+03  0.00000000000E+00 0.  1.
         14    1    4    4    0    0  0.17215531583E+02  0.21984913065E+02 -0.70986537951E+01  0.28811487568E+02  0.00000000000E+00 0. -1.
         -5    1    5    5    0  502 -0.33211143562E+02  0.90893009630E+01  0.22891408975E+03  0.23153692132E+03  0.47000000000E+01 0.  1.
         13    1    6    6    0    0  0.17523042749E+02 -0.28972092450E+02  0.11766705337E+03  0.12244171926E+03  0.00000000000E+00 0. -1.
        -14    1    6    6    0    0 -0.48255597428E+02 -0.11514467052E+03  0.17472232072E+03  0.21474353818E+03  0.00000000000E+00 0.  1.
</event>
<event>
12    1  0.1030140E-001  0.2078639E+03  0.7818608E-02  0.1144537E+00
         21   -1    0    0  501  502  0.00000000000E+00  0.00000000000E+00  0.57691693970E+03  0.57691693970E+03  0.00000000000E+00 0. -1.
         21   -1    0    0  502  503 -0.00000000000E+00 -0.00000000000E+00 -0.12090786938E+03  0.12090786938E+03  0.00000000000E+00 0. -1.
         -6    2    1    2    0  503  0.71512142710E+02 -0.81477552989E+02  0.55510594593E+01  0.20172015204E+03  0.17002243171E+03 0.  0.
        -24    2    3    3    0    0 -0.92287720749E+00 -0.34656467105E+02  0.56331050178E+02  0.10152163084E+03  0.77016439152E+02 0.  0.
          6    2    1    2  501    0 -0.71512142710E+02  0.81477552989E+02  0.45045801085E+03  0.49610465704E+03  0.17735510424E+03 0.  0.
         24    2    5    5    0    0  0.29323110677E+02  0.60484239160E+02  0.22409981035E+03  0.24737067769E+03  0.80332678109E+02 0.  0.
          5    1    5    5  501    0 -0.10083525339E+03  0.20993313829E+02  0.22635820050E+03  0.24873397935E+03  0.47000000000E+01 0. -1.
        -11    1    6    6    0    0 -0.14767230972E+02 -0.12585312653E+02  0.41041150383E+02  0.45396445124E+02  0.00000000000E+00 0.  1.
         12    1    6    6    0    0  0.44090341649E+02  0.73069551814E+02  0.18305865997E+03  0.20197423256E+03  0.00000000000E+00 0. -1.
         -5    1    3    3    0  503  0.72435019918E+02 -0.46821085885E+02 -0.50779990719E+02  0.10019852120E+03  0.47000000000E+01 0.  1.
         11    1    4    4    0    0  0.23266589856E+02  0.15413510193E+02  0.11883009761E+02  0.30333420858E+02  0.00000000000E+00 0. -1.
        -12    1    4    4    0    0 -0.24189467064E+02 -0.50069977297E+02  0.44448040417E+02  0.71188209981E+02  0.00000000000E+00 0.  1.
</event>
<event>
12    1  0.1030140E-001  0.1766491E+03  0.7818608E-02  0.1171647E+00
         21   -1    0    0  501  502  0.00000000000E+00  0.00000000000E+00  0.15188186516E+03  0.15188186516E+03  0.00000000000E+00 0. -1.
         21   -1    0    0  502  503 -0.00000000000E+00 -0.00000000000E+00 -0.20976536056E+03  0.20976536056E+03  0.00000000000E+00 0. -1.
         -6    2    1    2    0  503 -0.31221843196E+02  0.58105083370E+01 -0.61946316484E+02  0.18719573053E+03  0.17377091213E+03 0.  0.
        -24    2    3    3    0    0  0.11298021945E+02 -0.55685286439E+02 -0.54155184959E+02  0.11187997230E+03  0.79723570662E+02 0.  0.
          6    2    1    2  501    0  0.31221843196E+02 -0.58105083370E+01  0.40628210799E+01  0.17445149519E+03  0.17148834409E+03 0.  0.
         24    2    5    5    0    0  0.11155973293E+02 -0.12391767991E+02 -0.63544561657E+02  0.10346698763E+03  0.79934314022E+02 0.  0.
          5    1    5    5  501    0  0.20065869903E+02  0.65812596543E+01  0.67607382737E+02  0.70984507564E+02  0.47000000000E+01 0. -1.
        -11    1    6    6    0    0  0.19761144418E+02  0.13938774654E+02  0.90082427641E+01  0.25805826964E+02  0.00000000000E+00 0.  1.
         12    1    6    6    0    0 -0.86051711255E+01 -0.26330542646E+02 -0.72552804421E+02  0.77661160662E+02  0.00000000000E+00 0. -1.
         -5    1    3    3    0  503 -0.42519865140E+02  0.61495794776E+02 -0.77911315247E+01  0.75315758226E+02  0.47000000000E+01 0.  1.
         11    1    4    4    0    0  0.38832086456E+02 -0.24890238945E+02 -0.31317774694E+01  0.46230541457E+02  0.00000000000E+00 0. -1.
        -12    1    4    4    0    0 -0.27534064511E+02 -0.30795047495E+02 -0.51023407490E+02  0.65649430847E+02  0.00000000000E+00 0.  1.
</event>
<event>
12    1  0.1030140E-001  0.1777610E+03  0.7818608E-02  0.1170118E+00
         21   -1    0    0  501  502  0.00000000000E+00  0.00000000000E+00  0.13810982765E+03  0.13810982765E+03  0.00000000000E+00 0.  1.
         21   -1    0    0  502  503 -0.00000000000E+00 -0.00000000000E+00 -0.38757000614E+03  0.38757000614E+03  0.00000000000E+00 0.  1.
         -6    2    1    2    0  503 -0.91456825204E+01 -0.45833910593E+02 -0.29343106388E+03  0.34307543737E+03  0.17150678007E+03 0.  0.
        -24    2    3    3    0    0  0.23940378544E+02 -0.78308000391E+02 -0.27052804596E+03  0.29115345576E+03  0.69854323420E+02 0.  0.
          6    2    1    2  501    0  0.91456825204E+01  0.45833910593E+02  0.43970885390E+02  0.18260439642E+03  0.17095770226E+03 0.  0.
         24    2    5    5    0    0 -0.24556062278E+02  0.68917606318E+02 -0.23918812084E+02  0.10323333347E+03  0.68792259103E+02 0.  0.
          5    1    5    5  501    0  0.33701744798E+02 -0.23083695725E+02  0.67889697474E+02  0.79371062951E+02  0.47000000000E+01 0. -1.
        -13    1    6    6    0    0  0.22432598636E+02  0.21002351339E+02  0.31050905387E+01  0.30886272526E+02  0.00000000000E+00 0.  1.
         14    1    6    6    0    0 -0.46988660914E+02  0.47915254979E+02 -0.27023902623E+02  0.72347060944E+02  0.00000000000E+00 0. -1.
         -5    1    3    3    0  503 -0.33086061064E+02  0.32474089798E+02 -0.22903017923E+02  0.51921981616E+02  0.47000000000E+01 0.  1.
         11    1    4    4    0    0  0.11784773999E+02 -0.11304889649E+02 -0.16340075119E+03  0.16421475853E+03  0.00000000000E+00 0. -1.
        -12    1    4    4    0    0  0.12155604544E+02 -0.67003110742E+02 -0.10712729476E+03  0.12693869723E+03  0.00000000000E+00 0.  1.
</event>
<event>
12    1  0.1030140E-001  0.1729494E+03  0.7818608E-02  0.1175852E+00
         21   -1    0    0  501  502  0.00000000000E+00  0.00000000000E+00  0.46716690040E+02  0.46716690040E+02  0.00000000000E+00 0.  1.
         21   -1    0    0  502  503 -0.00000000000E+00 -0.00000000000E+00 -0.18524702245E+04  0.18524702245E+04  0.00000000000E+00 0.  1.
         -6    2    1    2    0  503  0.16941806761E+02 -0.39032715623E+01 -0.16721097326E+04  0.16806184929E+04  0.16800387058E+03 0.  0.
        -24    2    3    3    0    0 -0.53282643566E+02  0.47535602785E+01 -0.81124467696E+03  0.81683776369E+03  0.79021325295E+02 0.  0.
          6    2    1    2  501    0 -0.16941806761E+02  0.39032715623E+01 -0.13364380188E+03  0.21856842165E+03  0.17207332395E+03 0.  0.
         24    2    5    5    0    0  0.19532916030E+02  0.51872160865E+02 -0.36206949504E+02  0.10390609154E+03  0.80082936920E+02 0.  0.
          5    1    5    5  501    0 -0.36474722791E+02 -0.47968889302E+02 -0.97436852378E+02  0.11466233010E+03  0.47000000000E+01 0. -1.
        -11    1    6    6    0    0 -0.11682149676E+02  0.28047299613E+02  0.19239800658E+02  0.35962390994E+02  0.00000000000E+00 0.  1.
         12    1    6    6    0    0  0.31215065706E+02  0.23824861252E+02 -0.55446750161E+02  0.67943700548E+02  0.00000000000E+00 0. -1.
         -5    1    3    3    0  503  0.70224450327E+02 -0.86568318408E+01 -0.86086505567E+03  0.86378072925E+03  0.47000000000E+01 0.  1.
         13    1    4    4    0    0  0.14960358244E+02 -0.17532688668E+02 -0.23861743837E+03  0.23972794869E+03  0.00000000000E+00 0. -1.
        -14    1    4    4    0    0 -0.68243001810E+02  0.22286248946E+02 -0.57262723860E+03  0.57710981500E+03  0.00000000000E+00 0.  1.
</event>
<event>
12    1  0.1030140E-001  0.1777486E+03  0.7818608E-02  0.1170097E+00
         21   -1    0    0  503  502  0.00000000000E+00  0.00000000000E+00  0.11178148665E+03  0.11178148665E+03  0.00000000000E+00 0.  1.
         21   -1    0    0  501  503 -0.00000000000E+00 -0.00000000000E+00 -0.49380787673E+03  0.49380787673E+03  0.00000000000E+00 0.  1.
          6    2    1    2  501    0  0.40632181082E+02  0.13804397513E+02 -0.38919175523E+03  0.42769643087E+03  0.17208276820E+03 0.  0.
         24    2    3    3    0    0  0.52176539120E+01  0.14228818297E+02 -0.38070795623E+03  0.39097540538E+03  0.87712806916E+02 0.  0.
         -6    2    1    2    0  502 -0.40632181082E+02 -0.13804397513E+02  0.71653651557E+01  0.17789293251E+03  0.17249063003E+03 0.  0.
        -24    2    5    5    0    0 -0.56482194399E+02  0.51026641982E+02  0.26227774731E+00  0.11063202841E+03  0.80283375891E+02 0.  0.
          5    1    3    3  501    0  0.35414527170E+02 -0.42442078354E+00 -0.84837990063E+01  0.36721025493E+02  0.47000000000E+01 0. -1.
        -13    1    4    4    0    0 -0.13376826367E+02 -0.34418852882E+02 -0.15584361689E+03  0.16015876449E+03  0.00000000000E+00 0.  1.
         14    1    4    4    0    0  0.18594480279E+02  0.48647671178E+02 -0.22486433934E+03  0.23081664089E+03  0.00000000000E+00 0. -1.
         -5    1    5    5    0  502  0.15850013318E+02 -0.64831039495E+02  0.69030874084E+01  0.67260904097E+02  0.47000000000E+01 0.  1.
         13    1    6    6    0    0 -0.40563779318E+01  0.57473371387E+02  0.34138583167E+01  0.57717389487E+02  0.00000000000E+00 0. -1.
        -14    1    6    6    0    0 -0.52425816467E+02 -0.64467294055E+01 -0.31515805694E+01  0.52914638923E+02  0.00000000000E+00 0.  1.
</event>
<event>
12    1  0.1030140E-001  0.2164958E+03  0.7818608E-02  0.1136623E+00
         21   -1    0    0  501  502  0.00000000000E+00  0.00000000000E+00  0.81665216606E+03  0.81665216606E+03  0.00000000000E+00 0. -1.
         21   -1    0    0  502  503 -0.00000000000E+00 -0.00000000000E+00 -0.86534727939E+02  0.86534727939E+02  0.00000000000E+00 0. -1.
         -6    2    1    2    0  503  0.62685021023E+02 -0.11495361759E+03  0.10207808229E+03  0.23887985434E+03  0.17175536052E+03 0.  0.
        -24    2    3    3    0    0  0.65359223382E+02 -0.14788773541E+03  0.99779566189E+02  0.20542569689E+03  0.78109824933E+02 0.  0.
          6    2    1    2  501    0 -0.62685021023E+02  0.11495361759E+03  0.62803935583E+03  0.66430703965E+03  0.17241422334E+03 0.  0.
         24    2    5    5    0    0 -0.55305573438E+02  0.12148175646E+03  0.31732585763E+03  0.35340184381E+03  0.79878906355E+02 0.  0.
          5    1    5    5  501    0 -0.73794475849E+01 -0.65281388631E+01  0.31071349819E+03  0.31090519585E+03  0.47000000000E+01 0. -1.
        -13    1    6    6    0    0  0.10667668107E+02  0.18410877606E+02  0.11918846964E+02  0.24388900550E+02  0.00000000000E+00 0.  1.
         14    1    6    6    0    0 -0.65973241545E+02  0.10307087885E+03  0.30540701067E+03  0.32901294326E+03  0.00000000000E+00 0. -1.
         -5    1    3    3    0  503 -0.26742023588E+01  0.32934117812E+02  0.22985161031E+01  0.33454157449E+02  0.47000000000E+01 0.  1.
         13    1    4    4    0    0  0.33541255645E+02 -0.73627337470E+02  0.52520692568E+01  0.81077647256E+02  0.00000000000E+00 0. -1.
        -14    1    4    4    0    0  0.31817967737E+02 -0.74260397935E+02  0.94527496932E+02  0.12434804964E+03  0.00000000000E+00 0.  1.
</event>
<event>
12    1  0.1030140E-001  0.1834794E+03  0.7818608E-02  0.1164676E+00
         21   -1    0    0  501  502  0.00000000000E+00  0.00000000000E+00  0.39992354132E+02  0.39992354132E+02  0.00000000000E+00 0. -1.
         21   -1    0    0  502  503 -0.00000000000E+00 -0.00000000000E+00 -0.86787289588E+03  0.86787289588E+03  0.00000000000E+00 0. -1.
         -6    2    1    2    0  503  0.31174658562E+02  0.54561642689E+02 -0.33054631331E+03  0.37805495619E+03  0.17238286594E+03 0.  0.
        -24    2    3    3    0    0  0.48636024972E+02 -0.28044359711E+02 -0.19576914398E+03  0.21894610565E+03  0.80373443413E+02 0.  0.
          6    2    1    2  501    0 -0.31174658562E+02 -0.54561642689E+02 -0.49733422844E+03  0.52981029382E+03  0.17148988446E+03 0.  0.
         24    2    5    5    0    0 -0.70630937554E+02 -0.31218084811E+02 -0.44887908050E+03  0.46293944062E+03  0.82808203755E+02 0.  0.
          5    1    5    5  501    0  0.39456278992E+02 -0.23343557878E+02 -0.48455147936E+02  0.66870853201E+02  0.47000000000E+01 0. -1.
        -13    1    6    6    0    0  0.18686766056E+02 -0.83115872528E+01 -0.10082232319E+03  0.10287574331E+03  0.00000000000E+00 0.  1.
         14    1    6    6    0    0 -0.89317703611E+02 -0.22906497558E+02 -0.34805675731E+03  0.36006369731E+03  0.00000000000E+00 0. -1.
         -5    1    3    3    0  503 -0.17461366410E+02  0.82606002401E+02 -0.13477716933E+03  0.15910885055E+03  0.47000000000E+01 0.  1.
         13    1    4    4    0    0  0.51706685657E+02  0.40994413308E+00 -0.17776900038E+03  0.18513661683E+03  0.00000000000E+00 0. -1.
        -14    1    4    4    0    0 -0.30706606854E+01 -0.28454303845E+02 -0.18000143603E+02  0.33809488817E+02  0.00000000000E+00 0.  1.
</event>
<event>
12    1  0.1030140E-001  0.1963874E+03  0.7818608E-02  0.1155133E+00
         21   -1    0    0  501  502  0.00000000000E+00  0.00000000000E+00  0.16054806544E+02  0.16054806544E+02  0.00000000000E+00 0.  1.
         21   -1    0    0  502  503 -0.00000000000E+00 -0.00000000000E+00 -0.31601838341E+04  0.31601838341E+04  0.00000000000E+00 0.  1.
         -6    2    1    2    0  503 -0.52254162002E+02 -0.44479426662E+02 -0.23806920914E+04  0.23879468369E+04  0.17287667681E+03 0.  0.
        -24    2    3    3    0    0 -0.59531078693E+02 -0.35110705206E+02 -0.77053521339E+03  0.77773940058E+03  0.79858306971E+02 0.  0.
          6    2    1    2  501    0  0.52254162002E+02  0.44479426662E+02 -0.76343693619E+03  0.78829180369E+03  0.18400841117E+03 0.  0.
         24    2    5    5    0    0 -0.99260144283E+01 -0.11921100588E+02 -0.59160480801E+03  0.59699161004E+03  0.78499013992E+02 0.  0.
          5    1    5    5  501    0  0.62180176430E+02  0.56400527250E+02 -0.17183212819E+03  0.19130019365E+03  0.47000000000E+01 0. -1.
        -13    1    6    6    0    0 -0.14790783333E+01  0.30627080910E+02 -0.36405423953E+03  0.36534325651E+03  0.00000000000E+00 0.  1.
         14    1    6    6    0    0 -0.84469360950E+01 -0.42548181497E+02 -0.22755056848E+03  0.23164835353E+03  0.00000000000E+00 0. -1.
         -5    1    3    3    0  503  0.72769166913E+01 -0.93687214565E+01 -0.16101568780E+04  0.16102074364E+04  0.47000000000E+01 0.  1.
         11    1    4    4    0    0 -0.15635670927E+02  0.16868790091E+02 -0.42198431527E+03  0.42261068683E+03  0.00000000000E+00 0. -1.
        -12    1    4    4    0    0 -0.43895407766E+02 -0.51979495297E+02 -0.34855089812E+03  0.35512871376E+03  0.00000000000E+00 0.  1.
</event>
<event>
12    1  0.1030140E-001  0.2137092E+03  0.7818608E-02  0.1141545E+00
         21   -1    0    0  503  502  0.00000000000E+00  0.00000000000E+00  0.34421710227E+03  0.34421710227E+03  0.00000000000E+00 0.  1.
         21   -1    0    0  501  503 -0.00000000000E+00 -0.00000000000E+00 -0.14589458449E+03  0.14589458449E+03  0.00000000000E+00 0.  1.
          6    2    1    2  501    0  0.92095009535E+02  0.88716836357E+02  0.70308925253E+01  0.21382484409E+03  0.17122926930E+03 0.  0.
         24    2    3    3    0    0  0.42032313709E+02  0.36200550406E+02  0.69140985723E+02  0.11820064485E+03  0.78190288978E+02 0.  0.
         -6    2    1    2    0  502 -0.92095009535E+02 -0.88716836357E+02  0.19129162526E+03  0.27628684267E+03  0.15293712991E+03 0.  0.
        -24    2    5    5    0    0 -0.33865012308E+02 -0.10203146575E+03  0.10104004975E+03  0.16795656613E+03  0.80268657595E+02 0.  0.
          5    1    3    3  501    0  0.50062695826E+02  0.52516285951E+02 -0.62110093198E+02  0.95624199241E+02  0.47000000000E+01 0. -1.
        -11    1    4    4    0    0  0.46148232699E+02 -0.54424558332E+00  0.81327475507E+01  0.46862534793E+02  0.00000000000E+00 0.  1.
         12    1    4    4    0    0 -0.41159189901E+01  0.36744795990E+02  0.61008238172E+02  0.71338110056E+02  0.00000000000E+00 0. -1.
         -5    1    5    5    0  502 -0.58229997227E+02  0.13314629391E+02  0.90251575510E+02  0.10833027654E+03  0.47000000000E+01 0.  1.
         11    1    6    6    0    0  0.16866433894E+02 -0.11889393819E+02  0.46829298309E+02  0.51174382827E+02  0.00000000000E+00 0. -1.
        -12    1    6    6    0    0 -0.50731446201E+02 -0.90142071930E+02  0.54210751437E+02  0.11678218330E+03  0.00000000000E+00 0.  1.
</event>
<event>
12    1  0.1030140E-001  0.1937044E+03  0.7818608E-02  0.1155487E+00
         21   -1    0    0  503  502  0.00000000000E+00  0.00000000000E+00  0.26768735531E+03  0.26768735531E+03  0.00000000000E+00 0. -1.
         21   -1    0    0  501  503 -0.00000000000E+00 -0.00000000000E+00 -0.13935671945E+03  0.13935671945E+03  0.00000000000E+00 0. -1.
          6    2    1    2  501    0  0.80277841895E+02 -0.34817594758E+02  0.55270142215E+02  0.20001935495E+03  0.17116120159E+03 0.  0.
         24    2    3    3    0    0  0.69815376317E+02 -0.87269543726E+02  0.22271592292E+02  0.13699821220E+03  0.76041608932E+02 0.  0.
         -6    2    1    2    0  502 -0.80277841895E+02  0.34817594758E+02  0.73060493641E+02  0.20702471982E+03  0.17281377862E+03 0.  0.
        -24    2    5    5    0    0  0.25364106865E+02  0.30222741931E+02  0.38363184364E+02  0.95636536957E+02  0.78216758049E+02 0.  0.
          5    1    3    3  501    0  0.10462465578E+02  0.52451948969E+02  0.32998549923E+02  0.63021142750E+02  0.47000000000E+01 0. -1.
        -11    1    4    4    0    0  0.45190335004E+00 -0.53796536033E+01 -0.20702906228E+02  0.21395214788E+02  0.00000000000E+00 0.  1.
         12    1    4    4    0    0  0.69363472967E+02 -0.81889890123E+02  0.42974498521E+02  0.11560299741E+03  0.00000000000E+00 0. -1.
         -5    1    5    5    0  502 -0.10564194876E+03  0.45948528267E+01  0.34697309277E+02  0.11138818286E+03  0.47000000000E+01 0.  1.
         13    1    6    6    0    0 -0.21455953676E+02 -0.57550912577E+01 -0.45085744803E+01  0.22667295105E+02  0.00000000000E+00 0. -1.
        -14    1    6    6    0    0  0.46820060541E+02  0.35977833189E+02  0.42871758844E+02  0.72969241852E+02  0.00000000000E+00 0.  1.
</event>
<event>
12    1  0.1030140E-001  0.1994982E+03  0.7818608E-02  0.1150199E+00
         21   -1    0    0  503  502  0.00000000000E+00  0.00000000000E+00  0.43188285551E+03  0.43188285551E+03  0.00000000000E+00 0.  1.
         21   -1    0    0  501  503 -0.00000000000E+00 -0.00000000000E+00 -0.92682253200E+02  0.92682253200E+02  0.00000000000E+00 0.  1.
          6    2    1    2  501    0  0.40210208058E+02 -0.92703196327E+02  0.19091149031E+03  0.27612808284E+03  0.17201388770E+03 0.  0.
         24    2    3    3    0    0  0.64278225550E+02 -0.95055670697E+02  0.20504263415E+03  0.24772768094E+03  0.78480897509E+02 0.  0.
         -6    2    1    2    0  502 -0.40210208058E+02  0.92703196327E+02  0.14828911200E+03  0.24843702587E+03  0.17181545810E+03 0.  0.
        -24    2    5    5    0    0 -0.18596667951E+02 -0.13741090214E+02  0.99472281559E+02  0.12926192701E+03  0.79241765229E+02 0.  0.
          5    1    3    3  501    0 -0.24068017492E+02  0.23524743697E+01 -0.14131143846E+02  0.28400401899E+02  0.47000000000E+01 0. -1.
        -11    1    4    4    0    0  0.45407184024E+02 -0.10946271427E+02  0.39852096307E+02  0.61398882720E+02  0.00000000000E+00 0.  1.
         12    1    4    4    0    0  0.18871041526E+02 -0.84109399269E+02  0.16519053784E+03  0.18632879822E+03  0.00000000000E+00 0. -1.
         -5    1    5    5    0  502 -0.21613540107E+02  0.10644428654E+03  0.48816830445E+02  0.11917509886E+03  0.47000000000E+01 0.  1.
         11    1    6    6    0    0 -0.10770511781E+02  0.33164448579E+02  0.45588909542E+02  0.57395411374E+02  0.00000000000E+00 0. -1.
        -12    1    6    6    0    0 -0.78261561702E+01 -0.46905538792E+02  0.53883372017E+02  0.71866515636E+02  0.00000000000E+00 0.  1.
</event>
<event>
12    1  0.1030140E-001  0.2394896E+03  0.7818608E-02  0.1120696E+00
         21   -1    0    0  503  502  0.00000000000E+00  0.00000000000E+00  0.20629724526E+03  0.20629724526E+03  0.00000000000E+00 0. -1.
         21   -1    0    0  501  503 -0.00000000000E+00 -0.00000000000E+00 -0.40428882614E+03  0.40428882614E+03  0.00000000000E+00 0. -1.
          6    2    1    2  501    0 -0.16573509661E+03  0.14165327347E+02 -0.27172902725E+03  0.36000178788E+03  0.16761815019E+03 0.  0.
         24    2    3    3    0    0 -0.42417988754E+02  0.14826045368E+02 -0.19175484615E+03  0.21294565818E+03  0.80974285568E+02 0.  0.
         -6    2    1    2    0  502  0.16573509661E+03 -0.14165327347E+02  0.73737446379E+02  0.25058428352E+03  0.17229768832E+03 0.  0.
        -24    2    5    5    0    0  0.12836816406E+03 -0.73018000501E+02  0.68864692396E+02  0.18054316333E+03  0.77739784060E+02 0.  0.
          5    1    3    3  501    0 -0.12331710786E+03 -0.66071802054E+00 -0.79974181107E+02  0.14705612970E+03  0.47000000000E+01 0. -1.
        -11    1    4    4    0    0 -0.89216094305E+01 -0.31344787776E+02 -0.45554688149E+02  0.56011788473E+02  0.00000000000E+00 0.  1.
         12    1    4    4    0    0 -0.33496379324E+02  0.46170833143E+02 -0.14620015800E+03  0.15693386970E+03  0.00000000000E+00 0. -1.
         -5    1    5    5    0  502  0.37366932556E+02  0.58852673154E+02  0.48727539824E+01  0.70041120190E+02  0.47000000000E+01 0.  1.
         13    1    6    6    0    0  0.11918406656E+03 -0.59220620074E+02  0.27384766698E+02  0.13587438688E+03  0.00000000000E+00 0. -1.
        -14    1    6    6    0    0  0.91840975003E+01 -0.13797380427E+02  0.41479925698E+02  0.44668776449E+02  0.00000000000E+00 0.  1.
</event>
<event>
12    1  0.1030140E-001  0.3007131E+03  0.7818608E-02  0.1084889E+00
         21   -1    0    0  501  502  0.00000000000E+00  0.00000000000E+00  0.13911075856E+03  0.13911075856E+03  0.00000000000E+00 0.  1.
         21   -1    0    0  502  503 -0.00000000000E+00 -0.00000000000E+00 -0.65034031215E+03  0.65034031215E+03  0.00000000000E+00 0. -1.
         -6    2    1    2    0  503  0.19585350565E+03 -0.15035395307E+03 -0.26504991519E+03  0.40084884812E+03  0.17164916144E+03 0.  0.
        -24    2    3    3    0    0  0.12970499483E+03 -0.12391391631E+03 -0.26484598824E+03  0.32945674342E+03  0.78868903608E+02 0.  0.
          6    2    1    2  501    0 -0.19585350565E+03  0.15035395307E+03 -0.24617963840E+03  0.38860222258E+03  0.17158777974E+03 0.  0.
         24    2    5    5    0    0 -0.17112284676E+03  0.17764028878E+03 -0.19093575294E+03  0.32204302723E+03  0.80100866143E+02 0.  0.
          5    1    5    5  501    0 -0.24730658888E+02 -0.27286335708E+02 -0.55243885454E+02  0.66559195349E+02  0.47000000000E+01 0. -1.
        -11    1    6    6    0    0 -0.45348195965E+02  0.92801597659E+02 -0.49139701458E+02  0.11438227863E+03  0.00000000000E+00 0.  1.
         12    1    6    6    0    0 -0.12577465079E+03  0.84838691121E+02 -0.14179605149E+03  0.20766074860E+03  0.00000000000E+00 0. -1.
         -5    1    3    3    0  503  0.66148510823E+02 -0.26440036763E+02 -0.20392694267E+00  0.71392104706E+02  0.47000000000E+01 0.  1.
         13    1    4    4    0    0  0.13330916491E+03 -0.94238608074E+02 -0.24160919628E+03  0.29159432852E+03  0.00000000000E+00 0. -1.
        -14    1    4    4    0    0 -0.36041700817E+01 -0.29675308234E+02 -0.23236791964E+02  0.37862414894E+02  0.00000000000E+00 0.  1.
</event>
<event>
12    1  0.1030140E-001  0.2205148E+03  0.7818608E-02  0.1135559E+00
         21   -1    0    0  503  502  0.00000000000E+00  0.00000000000E+00  0.99471274895E+03  0.99471274895E+03  0.00000000000E+00 0. -1.
         21   -1    0    0  501  503 -0.00000000000E+00 -0.00000000000E+00 -0.13841272415E+03  0.13841272415E+03  0.00000000000E+00 0. -1.
          6    2    1    2  501    0 -0.10124505156E+03  0.64147109198E+02 -0.29821968155E+02  0.22252217099E+03  0.18509822990E+03 0.  0.
         24    2    3    3    0    0 -0.10545149825E+03 -0.17847174478E+02  0.59598000031E+01  0.13283838381E+03  0.78561930209E+02 0.  0.
         -6    2    1    2    0  502  0.10124505156E+03 -0.64147109198E+02  0.88612199295E+03  0.91060330212E+03  0.17210687188E+03 0.  0.
        -24    2    5    5    0    0  0.77696461197E+02  0.27179700170E+02  0.44493389350E+03  0.45942246108E+03  0.79544653995E+02 0.  0.
          5    1    3    3  501    0  0.42064466884E+01  0.81994283676E+02 -0.35781768158E+02  0.89683787173E+02  0.47000000000E+01 0. -1.
        -11    1    4    4    0    0 -0.76227720047E+01 -0.64367789818E+01  0.29864602027E+02  0.31487032743E+02  0.00000000000E+00 0.  1.
         12    1    4    4    0    0 -0.97828726246E+02 -0.11410395496E+02 -0.23904802024E+02  0.10135135107E+03  0.00000000000E+00 0. -1.
         -5    1    5    5    0  502  0.23548590365E+02 -0.91326809368E+02  0.44118809946E+03  0.45118084104E+03  0.47000000000E+01 0.  1.
         13    1    6    6    0    0  0.90840345144E+02  0.25696886255E+02  0.42594100437E+03  0.43627747761E+03  0.00000000000E+00 0. -1.
        -14    1    6    6    0    0 -0.13143883946E+02  0.14828139151E+01  0.18992889125E+02  0.23144983465E+02  0.00000000000E+00 0.  1.
</event>
<event>
12    1  0.1030140E-001  0.1755405E+03  0.7818608E-02  0.1172465E+00
         21   -1    0    0  501  502  0.00000000000E+00  0.00000000000E+00  0.56876540849E+02  0.56876540849E+02  0.00000000000E+00 0.  1.
         21   -1    0    0  502  503 -0.00000000000E+00 -0.00000000000E+00 -0.54231807777E+03  0.54231807777E+03  0.00000000000E+00 0.  1.
         -6    2    1    2    0  503  0.26104514376E+02  0.10169111864E+02 -0.21649497471E+03  0.27803000551E+03  0.17217942206E+03 0.  0.
        -24    2    3    3    0    0  0.47840641042E+02 -0.37628288617E+02 -0.74216686463E+02  0.12629915169E+03  0.82089853989E+02 0.  0.
          6    2    1    2  501    0 -0.26104514376E+02 -0.10169111864E+02 -0.26894656221E+03  0.32116461311E+03  0.17329050430E+03 0.  0.
         24    2    5    5    0    0  0.19012461243E+02 -0.54311710805E+02 -0.22124704113E+03  0.24190904648E+03  0.79110668981E+02 0.  0.
          5    1    5    5  501    0 -0.45116975619E+02  0.44142598941E+02 -0.47699521077E+02  0.79255566626E+02  0.47000000000E+01 0. -1.
        -13    1    6    6    0    0  0.27725593976E+02 -0.51106488124E+01 -0.20037007106E+02  0.34587699350E+02  0.00000000000E+00 0.  1.
         14    1    6    6    0    0 -0.87131327332E+01 -0.49201061993E+02 -0.20121003403E+03  0.20732134713E+03  0.00000000000E+00 0. -1.
         -5    1    3    3    0  503 -0.21736126666E+02  0.47797400481E+02 -0.14227828824E+03  0.15173085382E+03  0.47000000000E+01 0.  1.
         11    1    4    4    0    0  0.47842129905E+02  0.11288624022E+02 -0.19441644589E+02  0.52860949391E+02  0.00000000000E+00 0. -1.
        -12    1    4    4    0    0 -0.14888632380E-02 -0.48916912638E+02 -0.54775041874E+02  0.73438202297E+02  0.00000000000E+00 0.  1.
</event>
<event>
12    1  0.1030140E-001  0.1788216E+03  0.7818608E-02  0.1169009E+00
         21   -1    0    0  503  502  0.00000000000E+00  0.00000000000E+00  0.44159150276E+02  0.44159150276E+02  0.00000000000E+00 0.  1.
         21   -1    0    0  501  503 -0.00000000000E+00 -0.00000000000E+00 -0.18320250496E+04  0.18320250496E+04  0.00000000000E+00 0.  1.
          6    2    1    2  501    0  0.29124543469E+02  0.40953878440E+02 -0.16240155904E+04  0.16338310245E+04  0.17161503349E+03 0.  0.
         24    2    3    3    0    0 -0.73443453410E+01 -0.13773028668E+02 -0.13273719488E+04  0.13299485566E+04  0.81260304355E+02 0.  0.
         -6    2    1    2    0  502 -0.29124543469E+02 -0.40953878440E+02 -0.16385030900E+03  0.24235317540E+03  0.17135541625E+03 0.  0.
        -24    2    5    5    0    0 -0.15088883683E+02 -0.92021640938E+02 -0.12064266324E+03  0.17384108330E+03  0.83489000701E+02 0.  0.
          5    1    3    3  501    0  0.36468888810E+02  0.54726907108E+02 -0.29664364157E+03  0.30388246790E+03  0.47000000000E+01 0. -1.
        -13    1    4    4    0    0 -0.85772550746E+01 -0.46670669496E+02 -0.62125190403E+03  0.62306151298E+03  0.00000000000E+00 0.  1.
         14    1    4    4    0    0  0.12329097336E+01  0.32897640828E+02 -0.70612004476E+03  0.70688704363E+03  0.00000000000E+00 0. -1.
         -5    1    5    5    0  502 -0.14035659786E+02  0.51067762498E+02 -0.43207645759E+02  0.68512092102E+02  0.47000000000E+01 0.  1.
         11    1    6    6    0    0  0.34669246061E+02 -0.43740286960E+02 -0.55281654837E+02  0.78557181004E+02  0.00000000000E+00 0. -1.
        -12    1    6    6    0    0 -0.49758129744E+02 -0.48281353978E+02 -0.65361008403E+02  0.95283902298E+02  0.00000000000E+00 0.  1.
</event>
<event>
12    1  0.1030140E-001  0.1903763E+03  0.7818608E-02  0.1158497E+00
         21   -1    0    0  501  502  0.00000000000E+00  0.00000000000E+00  0.47530440215E+03  0.47530440215E+03  0.00000000000E+00 0.  1.
         21   -1    0    0  502  503 -0.00000000000E+00 -0.00000000000E+00 -0.24283601713E+03  0.24283601713E+03  0.00000000000E+00 0.  1.
         -6    2    1    2    0  503  0.82536254748E+02  0.19874925729E+01  0.41438090126E+03  0.45602047857E+03  0.17154288697E+03 0.  0.
        -24    2    3    3    0    0  0.60890965277E+02 -0.59987709414E+02  0.32124579796E+03  0.34197802294E+03  0.80273722589E+02 0.  0.
          6    2    1    2  501    0 -0.82536254748E+02 -0.19874925729E+01 -0.18191251624E+03  0.26211994071E+03  0.16970125598E+03 0.  0.
         24    2    5    5    0    0 -0.75699854665E+02  0.61219392994E+02 -0.12144160590E+03  0.17425261034E+03  0.78343005386E+02 0.  0.
          5    1    5    5  501    0 -0.68364000831E+01 -0.63206885567E+02 -0.60470910336E+02  0.87867330368E+02  0.47000000000E+01 0. -1.
        -13    1    6    6    0    0 -0.51833991949E+02 -0.73068413316E+01 -0.53426990838E+02  0.74797032038E+02  0.00000000000E+00 0.  1.
         14    1    6    6    0    0 -0.23865862715E+02  0.68526234326E+02 -0.68014615061E+02  0.99455578305E+02  0.00000000000E+00 0. -1.
         -5    1    3    3    0  503  0.21645289471E+02  0.61975201987E+02  0.93135103303E+02  0.11404245562E+03  0.47000000000E+01 0.  1.
         13    1    4    4    0    0  0.36287220449E+02 -0.73321667859E+02  0.17631641699E+03  0.19437157263E+03  0.00000000000E+00 0. -1.
        -14    1    4    4    0    0  0.24603744828E+02  0.13333958445E+02  0.14492938097E+03  0.14760645032E+03  0.00000000000E+00 0.  1.
</event>
<event>
12    1  0.1030140E-001  0.1829735E+03  0.7818608E-02  0.1165392E+00
         21   -1    0    0  501  502  0.00000000000E+00  0.00000000000E+00  0.23988079599E+03  0.23988079599E+03  0.00000000000E+00 0. -1.
         21   -1    0    0  502  503 -0.00000000000E+00 -0.00000000000E+00 -0.24025227586E+03  0.24025227586E+03  0.00000000000E+00 0. -1.
         -6    2    1    2    0  503  0.52887692193E+02 -0.23332097628E+02 -0.15666692397E+03  0.24088136533E+03  0.17360245485E+03 0.  0.
        -24    2    3    3    0    0 -0.30704372376E+02 -0.33596704766E+02 -0.52356771585E+02  0.10673333773E+03  0.81112741278E+02 0.  0.
          6    2    1    2  501    0 -0.52887692193E+02  0.23332097628E+02  0.15629544410E+03  0.23925170652E+03  0.17167299864E+03 0.  0.
         24    2    5    5    0    0 -0.98563013600E+02  0.17769521350E+02  0.14107409601E+03  0.19055923607E+03  0.79878021691E+02 0.  0.
          5    1    5    5  501    0  0.45675321407E+02  0.55625762782E+01  0.15221348089E+02  0.48692470446E+02  0.47000000000E+01 0. -1.
        -11    1    6    6    0    0  0.13820306664E+02 -0.20951366764E+01  0.15110189763E+02  0.20584176171E+02  0.00000000000E+00 0.  1.
         12    1    6    6    0    0 -0.11238332026E+03  0.19864658026E+02  0.12596390624E+03  0.16997505990E+03  0.00000000000E+00 0. -1.
         -5    1    3    3    0  503  0.83592064569E+02  0.10264607138E+02 -0.10431015239E+03  0.13414802760E+03  0.47000000000E+01 0.  1.
         13    1    4    4    0    0  0.10366012561E+02  0.13672672025E+02 -0.39138353254E+02  0.42734141762E+02  0.00000000000E+00 0. -1.
        -14    1    4    4    0    0 -0.41070384937E+02 -0.47269376791E+02 -0.13218418332E+02  0.63999195966E+02  0.00000000000E+00 0.  1.
</event>
<event>
12    1  0.1030140E-001  0.3194195E+03  0.7818608E-02  0.1075946E+00
         21   -1    0    0  501  502  0.00000000000E+00  0.00000000000E+00  0.49261779175E+03  0.49261779175E+03  0.00000000000E+00 0. -1.
         21   -1    0    0  502  503 -0.00000000000E+00 -0.00000000000E+00 -0.22060398794E+03  0.22060398794E+03  0.00000000000E+00 0.  1.
         -6    2    1    2    0  503  0.26491124469E+03  0.43702415944E+02  0.47231416782E+02  0.32263764256E+03  0.17255831752E+03 0.  0.
        -24    2    3    3    0    0  0.12753627926E+03  0.86726039440E+02  0.41151964286E+02  0.17847813699E+03  0.79837665125E+02 0.  0.
          6    2    1    2  501    0 -0.26491124469E+03 -0.43702415944E+02  0.22478238703E+03  0.39058413713E+03  0.17303461485E+03 0.  0.
         24    2    5    5    0    0 -0.26290122902E+03 -0.13726272315E+01  0.20994157552E+03  0.34543780990E+03  0.78312674938E+02 0.  0.
          5    1    5    5  501    0 -0.20100156692E+01 -0.42329788713E+02  0.14840811518E+02  0.45146327225E+02  0.47000000000E+01 0. -1.
        -11    1    6    6    0    0 -0.19287987445E+03  0.32802517345E+02  0.13833072062E+03  0.23961226884E+03  0.00000000000E+00 0.  1.
         12    1    6    6    0    0 -0.70021354573E+02 -0.34175144577E+02  0.71610854891E+02  0.10582554106E+03  0.00000000000E+00 0. -1.
         -5    1    3    3    0  503  0.13737496543E+03 -0.43023623496E+02  0.60794524963E+01  0.14415950557E+03  0.47000000000E+01 0.  1.
         13    1    4    4    0    0 -0.15992577638E+01  0.24920727862E+02  0.23392297047E+02  0.34216952870E+02  0.00000000000E+00 0. -1.
        -14    1    4    4    0    0  0.12913553703E+03  0.61805311579E+02  0.17759667239E+02  0.14426118412E+03  0.00000000000E+00 0.  1.
</event>
<event>
12    1  0.1030140E-001  0.2936149E+03  0.7818608E-02  0.1088524E+00
         21   -1    0    0  501  502  0.00000000000E+00  0.00000000000E+00  0.34597830391E+03  0.34597830391E+03  0.00000000000E+00 0.  1.
         21   -1    0    0  502  503 -0.00000000000E+00 -0.00000000000E+00 -0.30381318863E+03  0.30381318863E+03  0.00000000000E+00 0. -1.
         -6    2    1    2    0  503  0.67323831137E+02  0.22850503503E+03 -0.11707688388E+03  0.31609607973E+03  0.17164697962E+03 0.  0.
        -24    2    3    3    0    0  0.15152062412E+02  0.22503052117E+03 -0.10343224766E+03  0.26185373653E+03  0.83670956895E+02 0.  0.
          6    2    1    2  501    0 -0.67323831137E+02 -0.22850503503E+03  0.15924199917E+03  0.33369541280E+03  0.17101919470E+03 0.  0.
         24    2    5    5    0    0 -0.68543769802E+02 -0.23438829443E+03  0.10274528283E+03  0.27668602806E+03  0.79764929863E+02 0.  0.
          5    1    5    5  501    0  0.12199386648E+01  0.58832594040E+01  0.56496716338E+02  0.57009384741E+02  0.47000000000E+01 0. -1.
        -13    1    6    6    0    0 -0.95064175002E+01 -0.99780232182E+02  0.79373669099E+02  0.12785400289E+03  0.00000000000E+00 0.  1.
         14    1    6    6    0    0 -0.59037352302E+02 -0.13460806225E+03  0.23371613729E+02  0.14883202518E+03  0.00000000000E+00 0. -1.
         -5    1    3    3    0  503  0.52171768726E+02  0.34745138635E+01 -0.13644636221E+02  0.54242343203E+02  0.47000000000E+01 0.  1.
         11    1    4    4    0    0  0.54560211754E+01  0.12606293423E+03 -0.10224393423E+03  0.16240521432E+03  0.00000000000E+00 0. -1.
        -12    1    4    4    0    0  0.96960412364E+01  0.98967586940E+02 -0.11883134301E+01  0.99448522207E+02  0.00000000000E+00 0.  1.
</event>
<event>
12    1  0.1030140E-001  0.1981349E+03  0.7818608E-02  0.1151410E+00
         21   -1    0    0  501  502  0.00000000000E+00  0.00000000000E+00  0.10874645561E+03  0.10874645561E+03  0.00000000000E+00 0. -1.
         21   -1    0    0  502  503 -0.00000000000E+00 -0.00000000000E+00 -0.14251146582E+04  0.14251146582E+04  0.00000000000E+00 0.  1.
         -6    2    1    2    0  503  0.91903915963E+02  0.27307905651E+02 -0.13213009954E+04  0.13360740050E+04  0.17339369933E+03 0.  0.
        -24    2    3    3    0    0 -0.12909807948E+02  0.19342321935E+02 -0.40191675442E+03  0.41068822611E+03  0.81160045740E+02 0.  0.
          6    2    1    2  501    0 -0.91903915963E+02 -0.27307905651E+02  0.49327928237E+01  0.19778710877E+03  0.17292586987E+03 0.  0.
         24    2    5    5    0    0 -0.24440508154E+02  0.22202679175E+02 -0.49241973547E+02  0.97989289587E+02  0.78018148616E+02 0.  0.
          5    1    5    5  501    0 -0.67463407809E+02 -0.49510584825E+02  0.54174766371E+02  0.99797819186E+02  0.47000000000E+01 0. -1.
        -11    1    6    6    0    0 -0.11827032277E+02 -0.26380678693E+02 -0.18701721119E+01  0.28970958640E+02  0.00000000000E+00 0.  1.
         12    1    6    6    0    0 -0.12613475876E+02  0.48583357868E+02 -0.47371801436E+02  0.69018330947E+02  0.00000000000E+00 0. -1.
         -5    1    3    3    0  503  0.10481372391E+03  0.79655837157E+01 -0.91938424100E+03  0.92538577893E+03  0.47000000000E+01 0.  1.
         11    1    4    4    0    0 -0.45392529044E+01  0.25245251205E+02 -0.39929153308E+03  0.40011455349E+03  0.00000000000E+00 0. -1.
        -12    1    4    4    0    0 -0.83705550435E+01 -0.59029292701E+01 -0.26252213446E+01  0.10573672627E+02  0.00000000000E+00 0.  1.
</event>
<event>
12    1  0.1030140E-001  0.1855308E+03  0.7818608E-02  0.1162870E+00
         21   -1    0    0  501  502  0.00000000000E+00  0.00000000000E+00  0.14564216375E+04  0.14564216375E+04  0.00000000000E+00 0.  1.
         21   -1    0    0  502  503 -0.00000000000E+00 -0.00000000000E+00 -0.27491808868E+02  0.27491808868E+02  0.00000000000E+00 0.  1.
         -6    2    1    2    0  503  0.69369489688E+02 -0.22090820007E+02  0.99626861526E+03  0.10131508883E+04  0.16918462764E+03 0.  0.
        -24    2    3    3    0    0  0.80220754742E+02 -0.37838686577E+02  0.42044418553E+03  0.43698979177E+03  0.79496095939E+02 0.  0.
          6    2    1    2  501    0 -0.69369489688E+02  0.22090820007E+02  0.43266121340E+03  0.47076255812E+03  0.17065031533E+03 0.  0.
         24    2    5    5    0    0 -0.25191335737E+02 -0.12078979109E+01  0.84537067800E+02  0.11904242749E+03  0.79928225907E+02 0.  0.
          5    1    5    5  501    0 -0.44178153951E+02  0.23298717918E+02  0.34812414560E+03  0.35172013063E+03  0.47000000000E+01 0. -1.
        -13    1    6    6    0    0 -0.34476005548E+01 -0.37696148766E+02  0.56990486954E+02  0.68416380967E+02  0.00000000000E+00 0.  1.
         14    1    6    6    0    0 -0.21743735182E+02  0.36488250855E+02  0.27546580846E+02  0.50626046521E+02  0.00000000000E+00 0. -1.
         -5    1    3    3    0  503 -0.10851265054E+02  0.15747866570E+02  0.57582442973E+03  0.57616109651E+03  0.47000000000E+01 0.  1.
         11    1    4    4    0    0  0.42150418117E+02 -0.60180209168E+02  0.22791511432E+03  0.23946526817E+03  0.00000000000E+00 0. -1.
        -12    1    4    4    0    0  0.38070336624E+02  0.22341522591E+02  0.19252907121E+03  0.19752452360E+03  0.00000000000E+00 0.  1.
</event>
<event>
12    1  0.1030140E-001  0.1919314E+03  0.7818608E-02  0.1157140E+00
         21   -1    0    0  503  502  0.00000000000E+00  0.00000000000E+00  0.50342509797E+02  0.50342509797E+02  0.00000000000E+00 0.  1.
         21   -1    0    0  501  503 -0.00000000000E+00 -0.00000000000E+00 -0.11312742234E+04  0.11312742234E+04  0.00000000000E+00 0.  1.
          6    2    1    2  501    0 -0.75809418923E+01 -0.85134519473E+02 -0.89295702287E+03  0.91296799500E+03  0.16980270351E+03 0.  0.
         24    2    3    3    0    0  0.20870566173E+01 -0.25539710280E+02 -0.78296988539E+03  0.78741214333E+03  0.79494713220E+02 0.  0.
         -6    2    1    2    0  502  0.75809418923E+01  0.85134519473E+02 -0.18797469073E+03  0.26864873819E+03  0.17184965258E+03 0.  0.
        -24    2    5    5    0    0 -0.62562337808E+00 -0.22270885581E+02 -0.69750322857E+02  0.10864136365E+03  0.80258673102E+02 0.  0.
          5    1    3    3  501    0 -0.96679985096E+01 -0.59594809192E+02 -0.10998713747E+03  0.12555585166E+03  0.47000000000E+01 0. -1.
        -11    1    4    4    0    0  0.36254627320E+02 -0.32362090851E+02 -0.47323414043E+03  0.47572287583E+03  0.00000000000E+00 0.  1.
         12    1    4    4    0    0 -0.34167570703E+02  0.68223805710E+01 -0.30973574497E+03  0.31168926750E+03  0.00000000000E+00 0. -1.
         -5    1    5    5    0  502  0.82065652704E+01  0.10740540505E+03 -0.11822436787E+03  0.16000737454E+03  0.47000000000E+01 0.  1.
         13    1    6    6    0    0 -0.18479897652E+02 -0.26883225377E+01  0.12337652879E+02  0.22381943031E+02  0.00000000000E+00 0. -1.
        -14    1    6    6    0    0  0.17854274274E+02 -0.19582563043E+02 -0.82087975736E+02  0.86259420620E+02  0.00000000000E+00 0.  1.
</event>
<event>
12    1  0.1030140E-001  0.2242347E+03  0.7818608E-02  0.1131021E+00
         21   -1    0    0  503  502  0.00000000000E+00  0.00000000000E+00  0.12916197692E+04  0.12916197692E+04  0.00000000000E+00 0.  1.
         21   -1    0    0  501  503 -0.00000000000E+00 -0.00000000000E+00 -0.15840792097E+03  0.15840792097E+03  0.00000000000E+00 0.  1.
          6    2    1    2  501    0 -0.55365616419E+02  0.13073416706E+03 -0.64127348181E+02  0.23187238960E+03  0.17174316393E+03 0.  0.
         24    2    3    3    0    0 -0.37875086292E+02 -0.25799855363E+01 -0.28002097551E+02  0.92568026212E+02  0.79646365408E+02 0.  0.
         -6    2    1    2    0  502  0.55365616419E+02 -0.13073416706E+03  0.11973391964E+04  0.12181553006E+04  0.17356385323E+03 0.  0.
        -24    2    5    5    0    0  0.45597640955E+02 -0.54447385048E+02  0.32188688557E+03  0.33931861211E+03  0.80512674893E+02 0.  0.
          5    1    3    3  501    0 -0.17490530128E+02  0.13331415259E+03 -0.36125250630E+02  0.13930436339E+03  0.47000000000E+01 0. -1.
        -13    1    4    4    0    0  0.53380475910E+01  0.27442031527E+02 -0.28534147144E+02  0.39946932293E+02  0.00000000000E+00 0.  1.
         14    1    4    4    0    0 -0.43213133883E+02 -0.30022017063E+02  0.53204959344E+00  0.52621093919E+02  0.00000000000E+00 0. -1.
         -5    1    5    5    0  502  0.97679754638E+01 -0.76286782009E+02  0.87545231087E+03  0.87883668850E+03  0.47000000000E+01 0.  1.
         11    1    6    6    0    0  0.63235145179E+00  0.16726835593E+02  0.11088832305E+03  0.11214458118E+03  0.00000000000E+00 0. -1.
        -12    1    6    6    0    0  0.44965289504E+02 -0.71174220642E+02  0.21099856252E+03  0.22717403093E+03  0.00000000000E+00 0.  1.
</event>
<event>
12    1  0.1030140E-001  0.1818401E+03  0.7818608E-02  0.1166264E+00
         21   -1    0    0  501  502  0.00000000000E+00  0.00000000000E+00  0.23990516218E+04  0.23990516218E+04  0.00000000000E+00 0.  1.
         21   -1    0    0  502  503 -0.00000000000E+00 -0.00000000000E+00 -0.41182783233E+02  0.41182783233E+02  0.00000000000E+00 0.  1.
         -6    2    1    2    0  503  0.53721893663E+02 -0.20209382623E+02  0.18136187689E+03  0.25614457514E+03  0.17153265572E+03 0.  0.
        -24    2    3    3    0    0 -0.15046431875E+02  0.13876492342E+02  0.34463445560E+02  0.90336949866E+02  0.80957292935E+02 0.  0.
          6    2    1    2  501    0 -0.53721893663E+02  0.20209382623E+02  0.21765069617E+04  0.21840898299E+04  0.17254382005E+03 0.  0.
         24    2    5    5    0    0 -0.72533748287E+02 -0.17472208258E+01  0.20974288856E+04  0.20997606509E+04  0.67250751949E+02 0.  0.
          5    1    5    5  501    0  0.18811854624E+02  0.21956603449E+02  0.79078076106E+02  0.84329178995E+02  0.47000000000E+01 0. -1.
        -13    1    6    6    0    0 -0.34936986684E+02  0.28733025612E+02  0.13556181644E+04  0.13563726580E+04  0.00000000000E+00 0.  1.
         14    1    6    6    0    0 -0.37596761603E+02 -0.30480246438E+02  0.74181072117E+03  0.74338799287E+03  0.00000000000E+00 0. -1.
         -5    1    3    3    0  503  0.68768325538E+02 -0.34085874965E+02  0.14689843133E+03  0.16580762527E+03  0.47000000000E+01 0.  1.
         11    1    4    4    0    0 -0.26662613102E+02 -0.21386211169E+02 -0.67785229490E+01  0.34845564122E+02  0.00000000000E+00 0. -1.
        -12    1    4    4    0    0  0.11616181227E+02  0.35262703512E+02  0.41241968509E+02  0.55491385744E+02  0.00000000000E+00 0.  1.
</event>
<event>
12    1  0.1030140E-001  0.2017919E+03  0.7818608E-02  0.1149310E+00
         21   -1    0    0  503  502  0.00000000000E+00  0.00000000000E+00  0.30507526893E+03  0.30507526893E+03  0.00000000000E+00 0. -1.
         21   -1    0    0  501  503 -0.00000000000E+00 -0.00000000000E+00 -0.15659725722E+03  0.15659725722E+03  0.00000000000E+00 0.  1.
          6    2    1    2  501    0  0.79095292569E+02 -0.59443331810E+02 -0.21429315936E+02  0.19787622350E+03  0.17001826149E+03 0.  0.
         24    2    3    3    0    0  0.10340791084E+03 -0.87947790366E+02 -0.65171283613E+01  0.15727978396E+03  0.79160897086E+02 0.  0.
         -6    2    1    2    0  502 -0.79095292569E+02  0.59443331810E+02  0.16990732765E+03  0.26379630265E+03  0.17587044749E+03 0.  0.
        -24    2    5    5    0    0 -0.12396558420E+03  0.45814838910E+02  0.13847372228E+03  0.20714614434E+03  0.79171256295E+02 0.  0.
          5    1    3    3  501    0 -0.24312618268E+02  0.28504458556E+02 -0.14912187575E+02  0.40596439535E+02  0.47000000000E+01 0. -1.
        -11    1    4    4    0    0  0.29011881538E+02 -0.69497938008E+02  0.16801095589E+02  0.77161709874E+02  0.00000000000E+00 0.  1.
         12    1    4    4    0    0  0.74396029300E+02 -0.18449852358E+02 -0.23318223950E+02  0.80118074090E+02  0.00000000000E+00 0. -1.
         -5    1    5    5    0  502  0.44870291631E+02  0.13628492900E+02  0.31433605363E+02  0.56650158305E+02  0.47000000000E+01 0.  1.
         11    1    6    6    0    0 -0.49390355133E+02 -0.16538509593E+02  0.74028442008E+02  0.90515963817E+02  0.00000000000E+00 0. -1.
        -12    1    6    6    0    0 -0.74575229068E+02  0.62353348503E+02  0.64445280275E+02  0.11663018053E+03  0.00000000000E+00 0.  1.
</event>
<event>
12    1  0.1030140E-001  0.1992553E+03  0.7818608E-02  0.1150408E+00
         21   -1    0    0  501  502  0.00000000000E+00  0.00000000000E+00  0.27148212501E+03  0.27148212501E+03  0.00000000000E+00 0. -1.
         21   -1    0    0  502  503 -0.00000000000E+00 -0.00000000000E+00 -0.15338567839E+03  0.15338567839E+03  0.00000000000E+00 0.  1.
         -6    2    1    2    0  503  0.63444816308E+02 -0.77459788460E+02  0.10529009088E+03  0.22520143447E+03  0.17205934820E+03 0.  0.
        -24    2    3    3    0    0 -0.33087695096E+02 -0.37874040556E+02  0.52314721240E+02  0.10809448769E+03  0.80114603512E+02 0.  0.
          6    2    1    2  501    0 -0.63444816308E+02  0.77459788460E+02  0.12806355737E+02  0.19966636892E+03  0.17227127615E+03 0.  0.
         24    2    5    5    0    0 -0.40997520662E+02  0.15739034366E+02 -0.53712790074E+02  0.10607032559E+03  0.80233012221E+02 0.  0.
          5    1    5    5  501    0 -0.22447295646E+02  0.61720754093E+02  0.66519145811E+02  0.93596043330E+02  0.47000000000E+01 0. -1.
        -11    1    6    6    0    0 -0.50236808902E+02 -0.44768189021E+01 -0.27958422493E+01  0.50513321114E+02  0.00000000000E+00 0.  1.
         12    1    6    6    0    0  0.92392882395E+01  0.20215853268E+02 -0.50916947825E+02  0.55557004476E+02  0.00000000000E+00 0. -1.
         -5    1    3    3    0  503  0.96532511405E+02 -0.39585747903E+02  0.52975369644E+02  0.11710694678E+03  0.47000000000E+01 0.  1.
         11    1    4    4    0    0 -0.13561689796E+01 -0.43384761652E+02  0.60879230222E+02  0.74768692715E+02  0.00000000000E+00 0. -1.
        -12    1    4    4    0    0 -0.31731526117E+02  0.55107210954E+01 -0.85645089819E+01  0.33325794976E+02  0.00000000000E+00 0.  1.
</event>
<event>
12    1  0.1030140E-001  0.2332358E+03  0.7818608E-02  0.1124544E+00
         21   -1    0    0  501  502  0.00000000000E+00  0.00000000000E+00  0.47707061015E+03  0.47707061015E+03  0.00000000000E+00 0. -1.
         21   -1    0    0  502  503 -0.00000000000E+00 -0.00000000000E+00 -0.11783718911E+03  0.11783718911E+03  0.00000000000E+00 0.  1.
         -6    2    1    2    0  503 -0.12058831035E+03  0.98095815609E+02  0.23586682356E+03  0.33105510083E+03  0.17262674098E+03 0.  0.
        -24    2    3    3    0    0 -0.13378875088E+03  0.27459654625E+02  0.14833123830E+03  0.21770481387E+03  0.82096085357E+02 0.  0.
          6    2    1    2  501    0  0.12058831035E+03 -0.98095815609E+02  0.12336659748E+03  0.26385269843E+03  0.17388099224E+03 0.  0.
         24    2    5    5    0    0  0.84456753361E+02  0.12185679139E+02  0.69856832704E+02  0.13597430924E+03  0.79546223885E+02 0.  0.
          5    1    5    5  501    0  0.36131556984E+02 -0.11028149475E+03  0.53509764780E+02  0.12787838919E+03  0.47000000000E+01 0. -1.
        -11    1    6    6    0    0  0.37171161805E+02 -0.29170160990E+02  0.82072648002E+01  0.47957822695E+02  0.00000000000E+00 0.  1.
         12    1    6    6    0    0  0.47285591556E+02  0.41355840129E+02  0.61649567904E+02  0.88016486548E+02  0.00000000000E+00 0. -1.
         -5    1    3    3    0  503  0.13200440534E+02  0.70636160984E+02  0.87535585257E+02  0.11335028697E+03  0.47000000000E+01 0.  1.
         13    1    4    4    0    0 -0.34115883144E+02  0.31578262723E+02  0.92157007069E+02  0.10321818692E+03  0.00000000000E+00 0. -1.
        -14    1    4    4    0    0 -0.99672867734E+02 -0.41186080987E+01  0.56174231236E+02  0.11448662695E+03  0.00000000000E+00 0.  1.
</event>
<event>
12    1  0.1030140E-001  0.2024518E+03  0.7818608E-02  0.1147851E+00
         21   -1    0    0  503  502  0.00000000000E+00  0.00000000000E+00  0.70731912407E+02  0.70731912407E+02  0.00000000000E+00 0. -1.
         21   -1    0    0  501  503 -0.00000000000E+00 -0.00000000000E+00 -0.84464820111E+03  0.84464820111E+03  0.00000000000E+00 0. -1.
          6    2    1    2  501    0  0.96295338421E+02  0.44031868550E+02 -0.64398101724E+03  0.67481850027E+03  0.17163000927E+03 0.  0.
         24    2    3    3    0    0  0.12494034420E+02 -0.24541709042E+02 -0.17595612183E+03  0.19440785631E+03  0.77945246222E+02 0.  0.
         -6    2    1    2    0  502 -0.96295338421E+02 -0.44031868550E+02 -0.12993527146E+03  0.24056161325E+03  0.17255467931E+03 0.  0.
        -24    2    5    5    0    0 -0.76775435961E+02 -0.20750409074E+02 -0.54926433816E+01  0.11237771945E+03  0.79205654175E+02 0.  0.
          5    1    3    3  501    0  0.83801304001E+02  0.68573577592E+02 -0.46802489541E+03  0.48041064395E+03  0.47000000000E+01 0. -1.
        -11    1    4    4    0    0  0.34571939689E+02 -0.41119251150E+02 -0.13183710069E+03  0.14236232981E+03  0.00000000000E+00 0.  1.
         12    1    4    4    0    0 -0.22077905269E+02  0.16577542108E+02 -0.44119021136E+02  0.52045526507E+02  0.00000000000E+00 0. -1.
         -5    1    5    5    0  502 -0.19519902460E+02 -0.23281459476E+02 -0.12444262808E+03  0.12818389381E+03  0.47000000000E+01 0.  1.
         11    1    6    6    0    0 -0.54664364864E+02 -0.22448521404E+02 -0.39999843281E+02  0.71359066429E+02  0.00000000000E+00 0. -1.
        -12    1    6    6    0    0 -0.22111071097E+02  0.16981123302E+01  0.34507199899E+02  0.41018653018E+02  0.00000000000E+00 0.  1.
</event>
<event>
12    1  0.1030140E-001  0.2165746E+03  0.7818608E-02  0.1136547E+00
         21   -1    0    0  503  502  0.00000000000E+00  0.00000000000E+00  0.10876465735E+04  0.10876465735E+04  0.00000000000E+00 0.  1.
         21   -1    0    0  501  503 -0.00000000000E+00 -0.00000000000E+00 -0.47034379825E+02  0.47034379825E+02  0.00000000000E+00 0.  1.
          6    2    1    2  501    0 -0.65914641292E+02 -0.11432091458E+03  0.68521167377E+03  0.71849100645E+03  0.17117323690E+03 0.  0.
         24    2    3    3    0    0 -0.68302912444E+02 -0.86446057346E+02  0.24646751243E+03  0.27883063683E+03  0.69728621615E+02 0.  0.
         -6    2    1    2    0  502  0.65914641292E+02  0.11432091458E+03  0.35540051994E+03  0.41618994691E+03  0.17172807251E+03 0.  0.
        -24    2    5    5    0    0  0.75530546909E+02  0.14267336721E+03  0.25076716171E+03  0.30725621997E+03  0.73903058729E+02 0.  0.
          5    1    3    3  501    0  0.23882711520E+01 -0.27874857232E+02  0.43874416134E+03  0.43966036962E+03  0.47000000000E+01 0. -1.
        -13    1    4    4    0    0 -0.13955074114E+02 -0.45904983408E+02  0.16995870976E+03  0.17660117389E+03  0.00000000000E+00 0.  1.
         14    1    4    4    0    0 -0.54347838330E+02 -0.40541073938E+02  0.76508802664E+02  0.10222946294E+03  0.00000000000E+00 0. -1.
         -5    1    5    5    0  502 -0.96159056170E+01 -0.28352452632E+02  0.10463335823E+03  0.10893372694E+03  0.47000000000E+01 0.  1.
         13    1    6    6    0    0  0.28746838310E+02  0.14251182924E+02  0.16614853863E+02  0.36132122778E+02  0.00000000000E+00 0. -1.
        -14    1    6    6    0    0  0.46783708599E+02  0.12842218429E+03  0.23415230785E+03  0.27112409719E+03  0.00000000000E+00 0.  1.
</event>
<event>
12    1  0.1030140E-001  0.1822226E+03  0.7818608E-02  0.1165996E+00
         21   -1    0    0  501  502  0.00000000000E+00  0.00000000000E+00  0.25595860053E+03  0.25595860053E+03  0.00000000000E+00 0.  1.
         21   -1    0    0  502  503 -0.00000000000E+00 -0.00000000000E+00 -0.13034579117E+03  0.13034579117E+03  0.00000000000E+00 0. -1.
         -6    2    1    2    0  503 -0.56952282515E+02  0.15874522421E+02  0.41248902391E+02  0.18550016344E+03  0.17091891569E+03 0.  0.
        -24    2    3    3    0    0 -0.44250796879E+02 -0.22324213489E+02 -0.31891311766E+02  0.10188167213E+03  0.83104246684E+02 0.  0.
          6    2    1    2  501    0  0.56952282515E+02 -0.15874522421E+02  0.84363906968E+02  0.20080422825E+03  0.17236445788E+03 0.  0.
         24    2    5    5    0    0  0.65954993815E+02  0.63617530851E+01 -0.89690196682E+01  0.10432300752E+03  0.80076922229E+02 0.  0.
          5    1    5    5  501    0 -0.90027113008E+01 -0.22236275506E+02  0.93332926636E+02  0.96481220730E+02  0.47000000000E+01 0. -1.
        -13    1    6    6    0    0  0.73798571301E+02 -0.99815086394E+01  0.13257365916E+02  0.75641373545E+02  0.00000000000E+00 0.  1.
         14    1    6    6    0    0 -0.78435774855E+01  0.16343261724E+02 -0.22226385585E+02  0.28681633979E+02  0.00000000000E+00 0. -1.
         -5    1    3    3    0  503 -0.12701485636E+02  0.38198735910E+02  0.73140214157E+02  0.83618491313E+02  0.47000000000E+01 0.  1.
         13    1    4    4    0    0 -0.68737953476E+02 -0.11774854324E+02 -0.19089097504E+02  0.72304544020E+02  0.00000000000E+00 0. -1.
        -14    1    4    4    0    0  0.24487156598E+02 -0.10549359165E+02 -0.12802214262E+02  0.29577128107E+02  0.00000000000E+00 0.  1.
</event>
<event>
12    1  0.1030140E-001  0.1992144E+03  0.7818608E-02  0.1152468E+00
         21   -1    0    0  503  502  0.00000000000E+00  0.00000000000E+00  0.17419931820E+03  0.17419931820E+03  0.00000000000E+00 0.  1.
         21   -1    0    0  501  503 -0.00000000000E+00 -0.00000000000E+00 -0.25119588363E+03  0.25119588363E+03  0.00000000000E+00 0. -1.
          6    2    1    2  501    0  0.26305791390E+01  0.84894254377E+02 -0.11602476842E+03  0.22239380052E+03  0.16965642118E+03 0.  0.
         24    2    3    3    0    0  0.59617625251E+02  0.22894073978E+02 -0.77599523223E+02  0.12971081792E+03  0.82004941421E+02 0.  0.
         -6    2    1    2    0  502 -0.26305791390E+01 -0.84894254377E+02  0.39028203004E+02  0.20300140131E+03  0.18020103755E+03 0.  0.
        -24    2    5    5    0    0  0.29896804212E+02  0.44851579560E+01  0.60313962924E+02  0.10542126198E+03  0.81005757883E+02 0.  0.
          5    1    3    3  501    0 -0.56987046112E+02  0.62000180398E+02 -0.38425245201E+02  0.92682982595E+02  0.47000000000E+01 0. -1.
        -11    1    4    4    0    0 -0.12229664098E+02 -0.39752603697E+01  0.77041257183E+01  0.14990694848E+02  0.00000000000E+00 0.  1.
         12    1    4    4    0    0  0.71847289348E+02  0.26869334348E+02 -0.85303648942E+02  0.11472012307E+03  0.00000000000E+00 0. -1.
         -5    1    5    5    0  502 -0.32527383351E+02 -0.89379412333E+02 -0.21285759920E+02  0.97580139332E+02  0.47000000000E+01 0.  1.
         11    1    6    6    0    0  0.19950105730E+02 -0.33358088884E+02  0.73277557764E+01  0.39553316136E+02  0.00000000000E+00 0. -1.
        -12    1    6    6    0    0  0.99466984820E+01  0.37843246840E+02  0.52986207147E+02  0.65867945846E+02  0.00000000000E+00 0.  1.
</event>
<event>
12    1  0.1030140E-001  0.2538181E+03  0.7818608E-02  0.1110990E+00
         21   -1    0    0  503  502  0.00000000000E+00  0.00000000000E+00  0.56631536869E+02  0.56631536869E+02  0.00000000000E+00 0. -1.
         21   -1    0    0  501  503 -0.00000000000E+00 -0.00000000000E+00 -0.19595932707E+04  0.19595932707E+04  0.00000000000E+00 0. -1.
          6    2    1    2  501    0  0.16797569196E+03 -0.82195596230E+02 -0.16057896550E+04  0.16257256961E+04  0.17161489992E+03 0.  0.
         24    2    3    3    0    0  0.11687174660E+03 -0.95693065375E+02 -0.14707330305E+04  0.14806182300E+04  0.79740379674E+02 0.  0.
         -6    2    1    2    0  502 -0.16797569196E+03  0.82195596230E+02 -0.29717207884E+03  0.39049911143E+03  0.17089869062E+03 0.  0.
        -24    2    5    5    0    0 -0.19097381276E+03  0.51416822660E+02 -0.23263129098E+03  0.31524055869E+03  0.78387534006E+02 0.  0.
          5    1    3    3  501    0  0.51103945360E+02  0.13497469145E+02 -0.13505662453E+03  0.14510746615E+03  0.47000000000E+01 0. -1.
        -11    1    4    4    0    0 -0.17741367077E+01 -0.31890317176E+02 -0.43325870261E+03  0.43443439468E+03  0.00000000000E+00 0.  1.
         12    1    4    4    0    0  0.11864588331E+03 -0.63802748199E+02 -0.10374743279E+04  0.10461838353E+04  0.00000000000E+00 0. -1.
         -5    1    5    5    0  502  0.22998120802E+02  0.30778773570E+02 -0.64540787857E+02  0.75258552737E+02  0.47000000000E+01 0.  1.
         11    1    6    6    0    0 -0.11682891952E+03  0.65006668987E+01 -0.87183919877E+02  0.14591878217E+03  0.00000000000E+00 0. -1.
        -12    1    6    6    0    0 -0.74144893247E+02  0.44916155762E+02 -0.14544737110E+03  0.16932177652E+03  0.00000000000E+00 0.  1.
</event>
<event>
12    1  0.1030140E-001  0.3295487E+03  0.7818608E-02  0.1071380E+00
         21   -1    0    0  501  502  0.00000000000E+00  0.00000000000E+00  0.92444374556E+02  0.92444374556E+02  0.00000000000E+00 0.  1.
         21   -1    0    0  502  503 -0.00000000000E+00 -0.00000000000E+00 -0.11735717304E+04  0.11735717304E+04  0.00000000000E+00 0.  1.
         -6    2    1    2    0  503 -0.25653387363E+03  0.11592231321E+03 -0.54793873290E+03  0.63920474262E+03  0.17058205344E+03 0.  0.
        -24    2    3    3    0    0 -0.17734118484E+03  0.69751551702E+02 -0.48564212787E+03  0.52827152769E+03  0.83110503563E+02 0.  0.
          6    2    1    2  501    0  0.25653387363E+03 -0.11592231321E+03 -0.53318862293E+03  0.62681136233E+03  0.17133232415E+03 0.  0.
         24    2    5    5    0    0  0.26194309871E+03 -0.10074933562E+03 -0.53566853379E+03  0.60984908292E+03  0.78806790658E+02 0.  0.
          5    1    5    5  501    0 -0.54092250826E+01 -0.15172977586E+02  0.24799108585E+01  0.16962279407E+02  0.47000000000E+01 0. -1.
        -13    1    6    6    0    0  0.23837735290E+03 -0.79250083206E+02 -0.51140251932E+03  0.56976914170E+03  0.00000000000E+00 0.  1.
         14    1    6    6    0    0  0.23565745811E+02 -0.21499252414E+02 -0.24266014468E+02  0.40079941220E+02  0.00000000000E+00 0. -1.
         -5    1    3    3    0  503 -0.79192688790E+02  0.46170761504E+02 -0.62296605030E+02  0.11093321493E+03  0.47000000000E+01 0.  1.
         13    1    4    4    0    0 -0.61139716693E+02  0.59685327691E+02 -0.26877163309E+03  0.28202587480E+03  0.00000000000E+00 0. -1.
        -14    1    4    4    0    0 -0.11620146815E+03  0.10066224010E+02 -0.21687049477E+03  0.24624565289E+03  0.00000000000E+00 0.  1.
</event>
<event>
12    1  0.1030140E-001  0.1736350E+03  0.7818608E-02  0.1174386E+00
         21   -1    0    0  501  502  0.00000000000E+00  0.00000000000E+00  0.74231023424E+02  0.74231023424E+02  0.00000000000E+00 0.  1.
         21   -1    0    0  502  503 -0.00000000000E+00 -0.00000000000E+00 -0.13104948133E+04  0.13104948133E+04  0.00000000000E+00 0.  1.
         -6    2    1    2    0  503  0.19994742246E+02 -0.63558877313E+01 -0.11934917718E+04  0.12059003857E+04  0.17126863057E+03 0.  0.
        -24    2    3    3    0    0  0.93063833696E+01  0.19115738792E+02 -0.11566120309E+04  0.11595835414E+04  0.80190892769E+02 0.  0.
          6    2    1    2  501    0 -0.19994742246E+02  0.63558877313E+01 -0.42772018108E+02  0.17882545107E+03  0.17236272622E+03 0.  0.
         24    2    5    5    0    0  0.21660619011E+02  0.14263893021E+02  0.33808139077E+02  0.91165219814E+02  0.80594453753E+02 0.  0.
          5    1    5    5  501    0 -0.41655361258E+02 -0.79080052893E+01 -0.76580157185E+02  0.87660231255E+02  0.47000000000E+01 0. -1.
        -11    1    6    6    0    0  0.51275711129E+02  0.12778227010E+02  0.11557696372E+02  0.54093086274E+02  0.00000000000E+00 0.  1.
         12    1    6    6    0    0 -0.29615092117E+02  0.14856660110E+01  0.22250442705E+02  0.37072133540E+02  0.00000000000E+00 0. -1.
         -5    1    3    3    0  503  0.10688358877E+02 -0.25471626523E+02 -0.36879740889E+02  0.46316844249E+02  0.47000000000E+01 0.  1.
         13    1    4    4    0    0  0.25207473450E+02 -0.10658005416E+02 -0.15463867822E+03  0.15704181163E+03  0.00000000000E+00 0. -1.
        -14    1    4    4    0    0 -0.15901090080E+02  0.29773744208E+02 -0.10019733527E+04  0.10025417298E+04  0.00000000000E+00 0.  1.
</event>
<event>
12    1  0.1030140E-001  0.1995813E+03  0.7818608E-02  0.1152268E+00
         21   -1    0    0  501  502  0.00000000000E+00  0.00000000000E+00  0.34993290481E+03  0.34993290481E+03  0.00000000000E+00 0.  1.
         21   -1    0    0  502  503 -0.00000000000E+00 -0.00000000000E+00 -0.17033770247E+03  0.17033770247E+03  0.00000000000E+00 0.  1.
         -6    2    1    2    0  503 -0.68903453755E+02  0.35824893705E+02 -0.68759410743E+02  0.20166002563E+03  0.17293871869E+03 0.  0.
        -24    2    3    3    0    0 -0.10149944852E+03  0.65242133373E+02 -0.53436644821E+02  0.15491871606E+03  0.81152076746E+02 0.  0.
          6    2    1    2  501    0  0.68903453755E+02 -0.35824893705E+02  0.24835461309E+03  0.31861058165E+03  0.18385205996E+03 0.  0.
         24    2    5    5    0    0  0.78755238746E+02  0.43054940352E+02  0.14412250233E+03  0.18744081074E+03  0.79414396268E+02 0.  0.
          5    1    5    5  501    0 -0.98517849906E+01 -0.78879834057E+02  0.10423211076E+03  0.13116977091E+03  0.47000000000E+01 0. -1.
        -13    1    6    6    0    0  0.65018145598E+02 -0.65090420626E+01  0.10114310939E+03  0.12041451517E+03  0.00000000000E+00 0.  1.
         14    1    6    6    0    0  0.13737093148E+02  0.49563982414E+02  0.42979392936E+02  0.67026295572E+02  0.00000000000E+00 0. -1.
         -5    1    3    3    0  503  0.32595994765E+02 -0.29417239667E+02 -0.15322765922E+02  0.46741309565E+02  0.47000000000E+01 0.  1.
         11    1    4    4    0    0 -0.23493137784E+01  0.31800280561E+02  0.89181226620E+01  0.33110572795E+02  0.00000000000E+00 0. -1.
        -12    1    4    4    0    0 -0.99150134742E+02  0.33441852812E+02 -0.62354767483E+02  0.12180814327E+03  0.00000000000E+00 0.  1.
</event>
<event>
12    1  0.1030140E-001  0.1855557E+03  0.7818608E-02  0.1162586E+00
         21   -1    0    0  501  502  0.00000000000E+00  0.00000000000E+00  0.64479763598E+02  0.64479763598E+02  0.00000000000E+00 0. -1.
         21   -1    0    0  502  503 -0.00000000000E+00 -0.00000000000E+00 -0.53459837550E+03  0.53459837550E+03  0.00000000000E+00 0. -1.
         -6    2    1    2    0  503  0.32943140851E+02 -0.60874392331E+02 -0.24987043294E+03  0.31123326275E+03  0.17216262200E+03 0.  0.
        -24    2    3    3    0    0  0.36970807651E+02  0.12265521595E+01 -0.44694074823E+02  0.96775394307E+02  0.77456901374E+02 0.  0.
          6    2    1    2  501    0 -0.32943140851E+02  0.60874392331E+02 -0.22024817896E+03  0.28784487635E+03  0.17191413652E+03 0.  0.
         24    2    5    5    0    0 -0.23732913874E+02  0.10264021653E+03 -0.20146690594E+03  0.24089768721E+03  0.79652471800E+02 0.  0.
          5    1    5    5  501    0 -0.92102269774E+01 -0.41765824199E+02 -0.18781273027E+02  0.46947189144E+02  0.47000000000E+01 0. -1.
        -11    1    6    6    0    0  0.14257418592E+02  0.90798045890E+02 -0.13212591508E+03  0.16094973301E+03  0.00000000000E+00 0.  1.
         12    1    6    6    0    0 -0.37990332466E+02  0.11842170641E+02 -0.69340990858E+02  0.79947954192E+02  0.00000000000E+00 0. -1.
         -5    1    3    3    0  503 -0.40276667993E+01 -0.62100944491E+02 -0.20517635812E+03  0.21445786844E+03  0.47000000000E+01 0.  1.
         11    1    4    4    0    0  0.29131310485E+01 -0.34845466065E+02 -0.10451872398E+02  0.36495677476E+02  0.00000000000E+00 0. -1.
        -12    1    4    4    0    0  0.34057676602E+02  0.36072018225E+02 -0.34242202425E+02  0.60279716831E+02  0.00000000000E+00 0.  1.
</event>
<event>
12    1  0.1030140E-001  0.1790356E+03  0.7818608E-02  0.1170076E+00
         21   -1    0    0  503  502  0.00000000000E+00  0.00000000000E+00  0.46075683866E+03  0.46075683866E+03  0.00000000000E+00 0.  1.
         21   -1    0    0  501  503 -0.00000000000E+00 -0.00000000000E+00 -0.72597268346E+02  0.72597268346E+02  0.00000000000E+00 0.  1.
          6    2    1    2  501    0  0.41745177803E+01 -0.25754548857E+02  0.12609496387E+03  0.21898331073E+03  0.17712432662E+03 0.  0.
         24    2    3    3    0    0  0.36898890302E+02 -0.71789958228E+02  0.47333183778E+02  0.12194903083E+03  0.78203642022E+02 0.  0.
         -6    2    1    2    0  502 -0.41745177803E+01  0.25754548857E+02  0.26206460644E+03  0.31437079628E+03  0.17166949704E+03 0.  0.
        -24    2    5    5    0    0  0.36978536235E+02 -0.32812009890E+02  0.10107071509E+03  0.13811887795E+03  0.80109268275E+02 0.  0.
          5    1    3    3  501    0 -0.32724372522E+02  0.46035409371E+02  0.78761780095E+02  0.97034279905E+02  0.47000000000E+01 0. -1.
        -11    1    4    4    0    0  0.17404485817E+02 -0.65017294377E+02  0.65894434864E+02  0.94192575295E+02  0.00000000000E+00 0.  1.
         12    1    4    4    0    0  0.19494404486E+02 -0.67726638505E+01 -0.18561251086E+02  0.27756455533E+02  0.00000000000E+00 0. -1.
         -5    1    5    5    0  502 -0.41153054016E+02  0.58566558747E+02  0.16099389136E+03  0.17625191832E+03  0.47000000000E+01 0.  1.
         13    1    6    6    0    0  0.32893916041E+02 -0.94007545580E+01  0.10806110161E+03  0.11334719044E+03  0.00000000000E+00 0. -1.
        -14    1    6    6    0    0  0.40846201941E+01 -0.23411255332E+02 -0.69903865273E+01  0.24771687511E+02  0.00000000000E+00 0.  1.
</event>
<event>
12    1  0.1030140E-001  0.2594490E+03  0.7818608E-02  0.1107568E+00
         21   -1    0    0  501  502  0.00000000000E+00  0.00000000000E+00  0.84295903528E+02  0.84295903528E+02  0.00000000000E+00 0. -1.
         21   -1    0    0  502  503 -0.00000000000E+00 -0.00000000000E+00 -0.16422611669E+04  0.16422611669E+04  0.00000000000E+00 0. -1.
         -6    2    1    2    0  503 -0.19392718335E+03  0.47898818017E+01 -0.13988951024E+04  0.14227513154E+04  0.17228784773E+03 0.  0.
        -24    2    3    3    0    0 -0.14042686346E+03  0.40308452666E+02 -0.64729991032E+03  0.66840306963E+03  0.80131231422E+02 0.  0.
          6    2    1    2  501    0  0.19392718335E+03 -0.47898818017E+01 -0.15907016098E+03  0.30380575506E+03  0.17135905371E+03 0.  0.
         24    2    5    5    0    0  0.11220902415E+03 -0.66375615497E+02 -0.69728152170E+02  0.16788392210E+03  0.79538724293E+02 0.  0.
          5    1    5    5  501    0  0.81718159195E+02  0.61585733695E+02 -0.89342008812E+02  0.13592183296E+03  0.47000000000E+01 0. -1.
        -13    1    6    6    0    0  0.38327022825E+02 -0.10326195462E+02  0.14840421681E+02  0.42377223918E+02  0.00000000000E+00 0.  1.
         14    1    6    6    0    0  0.73882001326E+02 -0.56049420034E+02 -0.84568573850E+02  0.12550669818E+03  0.00000000000E+00 0. -1.
         -5    1    3    3    0  503 -0.53500319884E+02 -0.35518570864E+02 -0.75159519210E+03  0.75434824576E+03  0.47000000000E+01 0.  1.
         13    1    4    4    0    0 -0.93695871060E+02  0.64012774947E+02 -0.41216159087E+03  0.42749705098E+03  0.00000000000E+00 0. -1.
        -14    1    4    4    0    0 -0.46730992401E+02 -0.23704322281E+02 -0.23513831945E+03  0.24090601865E+03  0.00000000000E+00 0.  1.
</event>
<event>
12    1  0.1030140E-001  0.1955694E+03  0.7818608E-02  0.1153669E+00
         21   -1    0    0  503  502  0.00000000000E+00  0.00000000000E+00  0.31294697390E+02  0.31294697390E+02  0.00000000000E+00 0.  1.
         21   -1    0    0  501  503 -0.00000000000E+00 -0.00000000000E+00 -0.12330157268E+04  0.12330157268E+04  0.00000000000E+00 0.  1.
          6    2    1    2  501    0 -0.89430768236E+02 -0.21137387881E+02 -0.53259801217E+03  0.56736940010E+03  0.17263470721E+03 0.  0.
         24    2    3    3    0    0 -0.67718773256E+02  0.42137072079E+02 -0.21028090079E+03  0.23814990144E+03  0.78332325552E+02 0.  0.
         -6    2    1    2    0  502  0.89430768236E+02  0.21137387881E+02 -0.66912301724E+03  0.69694102408E+03  0.17192011918E+03 0.  0.
        -24    2    5    5    0    0 -0.28806146014E+01 -0.34498938407E+02 -0.27381047963E+03  0.28717171753E+03  0.79353272788E+02 0.  0.
          5    1    3    3  501    0 -0.21711994980E+02 -0.63274459960E+02 -0.32231711138E+03  0.32921949866E+03  0.47000000000E+01 0. -1.
        -11    1    4    4    0    0 -0.52060113805E+02 -0.10681665843E+02 -0.13315699330E+03  0.14337063262E+03  0.00000000000E+00 0.  1.
         12    1    4    4    0    0 -0.15658659450E+02  0.52818737922E+02 -0.77123907489E+02  0.94779268819E+02  0.00000000000E+00 0. -1.
         -5    1    5    5    0  502  0.92311382837E+02  0.55636326288E+02 -0.39531253761E+03  0.40976930655E+03  0.47000000000E+01 0.  1.
         11    1    6    6    0    0  0.18477887613E+02 -0.40105292736E+02 -0.25301406931E+03  0.25683844359E+03  0.00000000000E+00 0. -1.
        -12    1    6    6    0    0 -0.21358502215E+02  0.56063543296E+01 -0.20796410315E+02  0.30333273937E+02  0.00000000000E+00 0.  1.
</event>
<event>
12    1  0.1030140E-001  0.2329217E+03  0.7818608E-02  0.1124874E+00
         21   -1    0    0  501  502  0.00000000000E+00  0.00000000000E+00  0.71876753058E+02  0.71876753058E+02  0.00000000000E+00 0.  1.
         21   -1    0    0  502  503 -0.00000000000E+00 -0.00000000000E+00 -0.10008998717E+04  0.10008998717E+04  0.00000000000E+00 0.  1.
         -6    2    1    2    0  503 -0.15561452291E+02 -0.15537719096E+03 -0.73441309266E+03  0.77046420202E+03  0.17282437807E+03 0.  0.
        -24    2    3    3    0    0 -0.53112337609E+02 -0.29157543701E+02 -0.27147788148E+03  0.28914043563E+03  0.78935851312E+02 0.  0.
          6    2    1    2  501    0  0.15561452291E+02  0.15537719096E+03 -0.19461002594E+03  0.30231242269E+03  0.17069126648E+03 0.  0.
         24    2    5    5    0    0 -0.33749363507E+02  0.16248947966E+03 -0.15605374920E+03  0.23913950380E+03  0.72753550456E+02 0.  0.
          5    1    5    5  501    0  0.49310815798E+02 -0.71122886974E+01 -0.38556276738E+02  0.63172918890E+02  0.47000000000E+01 0. -1.
        -11    1    6    6    0    0  0.32531151347E+01  0.12228969427E+03 -0.82659397473E+02  0.14764121400E+03  0.00000000000E+00 0.  1.
         12    1    6    6    0    0 -0.37002478642E+02  0.40199785390E+02 -0.73394351725E+02  0.91498289799E+02  0.00000000000E+00 0. -1.
         -5    1    3    3    0  503  0.37550885318E+02 -0.12621964726E+03 -0.46293521118E+03  0.48132376639E+03  0.47000000000E+01 0.  1.
         11    1    4    4    0    0 -0.65599285996E+02 -0.41599915367E+02 -0.24734296943E+03  0.25925347405E+03  0.00000000000E+00 0. -1.
        -12    1    4    4    0    0  0.12486948388E+02  0.12442371666E+02 -0.24134912054E+02  0.29886961581E+02  0.00000000000E+00 0.  1.
</event>
<event>
12    1  0.1030140E-001  0.1857363E+03  0.7818608E-02  0.1162625E+00
         21   -1    0    0  503  502  0.00000000000E+00  0.00000000000E+00  0.52711743534E+03  0.52711743534E+03  0.00000000000E+00 0.  1.
         21   -1    0    0  501  503 -0.00000000000E+00 -0.00000000000E+00 -0.17529823254E+03  0.17529823254E+03  0.00000000000E+00 0.  1.
          6    2    1    2  501    0  0.13577992956E+02 -0.67446240311E+02 -0.10241212768E+03  0.21209957400E+03  0.17252428285E+03 0.  0.
         24    2    3    3    0    0 -0.13438669266E+02 -0.99360895730E+02 -0.11157205207E+03  0.16903637065E+03  0.77921668145E+02 0.  0.
         -6    2    1    2    0  502 -0.13577992956E+02  0.67446240311E+02  0.45423133047E+03  0.49031609387E+03  0.17131962265E+03 0.  0.
        -24    2    5    5    0    0 -0.61256007327E+02  0.32034921805E+02  0.14634422469E+03  0.17671807979E+03  0.70951483243E+02 0.  0.
          5    1    3    3  501    0  0.27016662223E+02  0.31914655420E+02  0.91599243982E+01  0.43063203355E+02  0.47000000000E+01 0. -1.
        -13    1    4    4    0    0  0.27919097292E+02 -0.34928495461E+02 -0.66671179392E+02  0.80277779929E+02  0.00000000000E+00 0.  1.
         14    1    4    4    0    0 -0.41357766558E+02 -0.64432400269E+02 -0.44900872681E+02  0.88758590720E+02  0.00000000000E+00 0. -1.
         -5    1    5    5    0  502  0.47678014371E+02  0.35411318506E+02  0.30788710578E+03  0.31359801409E+03  0.47000000000E+01 0.  1.
         11    1    6    6    0    0 -0.60039350712E+02 -0.65181206147E+01  0.93037218767E+02  0.11091949155E+03  0.00000000000E+00 0. -1.
        -12    1    6    6    0    0 -0.12166566156E+01  0.38553042420E+02  0.53307005924E+02  0.65798588235E+02  0.00000000000E+00 0.  1.
</event>
<event>
12    1  0.1030140E-001  0.1784683E+03  0.7818608E-02  0.1169381E+00
         21   -1    0    0  501  502  0.00000000000E+00  0.00000000000E+00  0.54029481493E+03  0.54029481493E+03  0.00000000000E+00 0.  1.
         21   -1    0    0  502  503 -0.00000000000E+00 -0.00000000000E+00 -0.66252289384E+02  0.66252289384E+02  0.00000000000E+00 0.  1.
         -6    2    1    2    0  503 -0.29117124613E+02  0.34387989307E+02  0.13574334494E+03  0.22422575037E+03  0.17268639402E+03 0.  0.
        -24    2    3    3    0    0 -0.16361533925E+02  0.35782159959E+02  0.16734026413E+03  0.18980040931E+03  0.80457247093E+02 0.  0.
          6    2    1    2  501    0  0.29117124613E+02 -0.34387989307E+02  0.33829918060E+03  0.38232135394E+03  0.17231639889E+03 0.  0.
         24    2    5    5    0    0 -0.45651884879E+02 -0.41320598337E+02  0.18442180944E+03  0.21103562422E+03  0.82055739918E+02 0.  0.
          5    1    5    5  501    0  0.74769009492E+02  0.69326090300E+01  0.15387737116E+03  0.17128572972E+03  0.47000000000E+01 0. -1.
        -13    1    6    6    0    0 -0.48760010502E+02 -0.63553446725E+02  0.14635836207E+03  0.16684528571E+03  0.00000000000E+00 0.  1.
         14    1    6    6    0    0  0.31081256232E+01  0.22232848388E+02  0.38063447366E+02  0.44190338511E+02  0.00000000000E+00 0. -1.
         -5    1    3    3    0  503 -0.12755590688E+02 -0.13941706519E+01 -0.31596919188E+02  0.34425341070E+02  0.47000000000E+01 0.  1.
         11    1    4    4    0    0 -0.40725775583E+02  0.38700759432E+02  0.71847514672E+02  0.91205279135E+02  0.00000000000E+00 0. -1.
        -12    1    4    4    0    0  0.24364241658E+02 -0.29185994734E+01  0.95492749457E+02  0.98595130171E+02  0.00000000000E+00 0.  1.
</event>
<event>
12    1  0.1030140E-001  0.1769090E+03  0.7818608E-02  0.1170897E+00
         21   -1    0    0  501  502  0.00000000000E+00  0.00000000000E+00  0.19077644825E+03  0.19077644825E+03  0.00000000000E+00 0. -1.
         21   -1    0    0  502  503 -0.00000000000E+00 -0.00000000000E+00 -0.18779899657E+03  0.18779899657E+03  0.00000000000E+00 0. -1.
         -6    2    1    2    0  503 -0.32521682505E+02 -0.26467029974E+02 -0.66190482788E+02  0.18862545687E+03  0.17158152424E+03 0.  0.
        -24    2    3    3    0    0 -0.45160143097E+02 -0.82009468270E+02 -0.54763212011E+02  0.13033853162E+03  0.72278157316E+02 0.  0.
          6    2    1    2  501    0  0.32521682505E+02  0.26467029974E+02  0.69167934463E+02  0.18994998794E+03  0.17186806351E+03 0.  0.
         24    2    5    5    0    0 -0.49117662503E+02  0.25307655020E+02  0.44665332306E+02  0.10457555198E+03  0.76733512819E+02 0.  0.
          5    1    5    5  501    0  0.81639345008E+02  0.11593749539E+01  0.24502602157E+02  0.85374435964E+02  0.47000000000E+01 0. -1.
        -11    1    6    6    0    0 -0.31366656008E+01  0.44332062033E+02  0.16574356916E+02  0.47432896838E+02  0.00000000000E+00 0.  1.
         12    1    6    6    0    0 -0.45980996903E+02 -0.19024407013E+02  0.28090975390E+02  0.57142655142E+02  0.00000000000E+00 0. -1.
         -5    1    3    3    0  503  0.12638460592E+02  0.55542438295E+02 -0.11427270777E+02  0.58286925252E+02  0.47000000000E+01 0.  1.
         11    1    4    4    0    0 -0.49908669900E+02 -0.16759353640E+02 -0.20611418807E+02  0.56538321967E+02  0.00000000000E+00 0. -1.
        -12    1    4    4    0    0  0.47485268027E+01 -0.65250114629E+02 -0.34151793204E+02  0.73800209654E+02  0.00000000000E+00 0.  1.
</event>
<event>
12    1  0.1030140E-001  0.2058738E+03  0.7818608E-02  0.1145250E+00
         21   -1    0    0  503  502  0.00000000000E+00  0.00000000000E+00  0.62771183141E+02  0.62771183141E+02  0.00000000000E+00 0. -1.
         21   -1    0    0  501  503 -0.00000000000E+00 -0.00000000000E+00 -0.68841176548E+03  0.68841176548E+03  0.00000000000E+00 0. -1.
          6    2    1    2  501    0 -0.14994233799E+02 -0.10820411875E+03 -0.37416860944E+03  0.42618727235E+03  0.17233828497E+03 0.  0.
         24    2    3    3    0    0 -0.12299072161E+02 -0.76899862918E+02 -0.11013165939E+03  0.16024588535E+03  0.86515347076E+02 0.  0.
         -6    2    1    2    0  502  0.14994233799E+02  0.10820411875E+03 -0.25147197290E+03  0.32499567627E+03  0.17450237270E+03 0.  0.
        -24    2    5    5    0    0  0.23440774697E+02  0.14287916093E+03 -0.22922890335E+03  0.28268082371E+03  0.79991458411E+02 0.  0.
          5    1    3    3  501    0 -0.26951616375E+01 -0.31304255827E+02 -0.26403695005E+03  0.26594138700E+03  0.47000000000E+01 0. -1.
        -11    1    4    4    0    0 -0.33141901542E+02 -0.86407719732E+02 -0.95920697713E+02  0.13328713335E+03  0.00000000000E+00 0.  1.
         12    1    4    4    0    0  0.20842829380E+02  0.95078568133E+01 -0.14210961677E+02  0.26958752002E+02  0.00000000000E+00 0. -1.
         -5    1    5    5    0  502 -0.84465408976E+01 -0.34675042183E+02 -0.22243069553E+02  0.42314852554E+02  0.47000000000E+01 0.  1.
         13    1    6    6    0    0 -0.40400553492E+01  0.33764415780E+02 -0.86944194947E+01  0.35099155980E+02  0.00000000000E+00 0. -1.
        -14    1    6    6    0    0  0.27480830046E+02  0.10911474515E+03 -0.22053448385E+03  0.24758166773E+03  0.00000000000E+00 0.  1.
</event>
<event>
12    1  0.1030140E-001  0.2042378E+03  0.7818608E-02  0.1146332E+00
         21   -1    0    0  501  502  0.00000000000E+00  0.00000000000E+00  0.47724141756E+02  0.47724141756E+02  0.00000000000E+00 0. -1.
         21   -1    0    0  502  503 -0.00000000000E+00 -0.00000000000E+00 -0.10748907361E+04  0.10748907361E+04  0.00000000000E+00 0. -1.
         -6    2    1    2    0  503 -0.75131268749E+02 -0.77471788650E+02 -0.75830711416E+03  0.78532970215E+03  0.17339687461E+03 0.  0.
        -24    2    3    3    0    0 -0.53719975527E+02 -0.12272786128E+03 -0.55211932221E+03  0.57309857547E+03  0.75221456626E+02 0.  0.
          6    2    1    2  501    0  0.75131268749E+02  0.77471788650E+02 -0.26885948024E+03  0.33728517575E+03  0.17271156327E+03 0.  0.
         24    2    5    5    0    0  0.19100595585E+02  0.10033895035E+03 -0.12316750326E+03  0.17945429926E+03  0.81245762680E+02 0.  0.
          5    1    5    5  501    0  0.56030673164E+02 -0.22867161701E+02 -0.14569197698E+03  0.15783087649E+03  0.47000000000E+01 0. -1.
        -11    1    6    6    0    0  0.23646461183E+02  0.27075597885E+02  0.14451169576E+00  0.35948073814E+02  0.00000000000E+00 0.  1.
         12    1    6    6    0    0 -0.45458655980E+01  0.73263352466E+02 -0.12331201496E+03  0.14350622544E+03  0.00000000000E+00 0. -1.
         -5    1    3    3    0  503 -0.21411293222E+02  0.45256072632E+02 -0.20618779194E+03  0.21223112668E+03  0.47000000000E+01 0.  1.
         13    1    4    4    0    0 -0.44836259522E+02 -0.10654193824E+03 -0.31984562054E+03  0.34009218713E+03  0.00000000000E+00 0. -1.
        -14    1    4    4    0    0 -0.88837160052E+01 -0.16185923041E+02 -0.23227370168E+03  0.23300638833E+03  0.00000000000E+00 0.  1.
</event>
<event>
12    1  0.1030140E-001  0.2133053E+03  0.7818608E-02  0.1139112E+00
         21   -1    0    0  501  502  0.00000000000E+00  0.00000000000E+00  0.57742637509E+03  0.57742637509E+03  0.00000000000E+00 0.  1.
         21   -1    0    0  502  503 -0.00000000000E+00 -0.00000000000E+00 -0.10530715350E+03  0.10530715350E+03  0.00000000000E+00 0. -1.
         -6    2    1    2    0  503  0.12036644165E+03  0.31696825075E+02  0.63653991572E+02  0.22192663397E+03  0.17235669766E+03 0.  0.
        -24    2    3    3    0    0  0.13160642674E+03  0.52671555700E+02  0.90211092086E+02  0.18595934081E+03  0.79676163050E+02 0.  0.
          6    2    1    2  501    0 -0.12036644165E+03 -0.31696825075E+02  0.40846523002E+03  0.46080689462E+03  0.17322350014E+03 0.  0.
         24    2    5    5    0    0 -0.94106176267E+02 -0.46844687882E+02  0.14950330043E+03  0.20003413864E+03  0.81314344291E+02 0.  0.
          5    1    5    5  501    0 -0.26260265383E+02  0.15147862808E+02  0.25896192959E+03  0.26077275598E+03  0.47000000000E+01 0. -1.
        -13    1    6    6    0    0  0.10880549788E+02  0.82126279438E+01  0.22444062573E+02  0.26259656628E+02  0.00000000000E+00 0.  1.
         14    1    6    6    0    0 -0.10498672605E+03 -0.55057315826E+02  0.12705923786E+03  0.17377448201E+03  0.00000000000E+00 0. -1.
         -5    1    3    3    0  503 -0.11239985093E+02 -0.20974730626E+02 -0.26557100514E+02  0.35967293162E+02  0.47000000000E+01 0.  1.
         11    1    4    4    0    0  0.25710949302E+02  0.32683912108E+02  0.61840636242E+02  0.74522180023E+02  0.00000000000E+00 0. -1.
        -12    1    4    4    0    0  0.10589547744E+03  0.19987643592E+02  0.28370455845E+02  0.11143716078E+03  0.00000000000E+00 0.  1.
</event>
<event>
12    1  0.1030140E-001  0.2182618E+03  0.7818608E-02  0.1135415E+00
         21   -1    0    0  503  502  0.00000000000E+00  0.00000000000E+00  0.25972569810E+04  0.25972569810E+04  0.00000000000E+00 0. -1.
         21   -1    0    0  501  503 -0.00000000000E+00 -0.00000000000E+00 -0.86649801018E+02  0.86649801018E+02  0.00000000000E+00 0. -1.
          6    2    1    2  501    0  0.12676182685E+03 -0.45594454702E+02  0.62191317939E+02  0.22578179794E+03  0.17018297566E+03 0.  0.
         24    2    3    3    0    0  0.31431792459E+02  0.38140689215E+02  0.20994679395E+02  0.92295308690E+02  0.75066488477E+02 0.  0.
         -6    2    1    2    0  502 -0.12676182685E+03  0.45594454702E+02  0.24484158620E+04  0.24581249840E+04  0.17172882349E+03 0.  0.
        -24    2    5    5    0    0 -0.15027640464E+03  0.37913856939E+02  0.16071739823E+04  0.16165063548E+04  0.77872506885E+02 0.  0.
          5    1    3    3  501    0  0.95330034392E+02 -0.83735143917E+02  0.41196638544E+02  0.13348648925E+03  0.47000000000E+01 0. -1.
        -11    1    4    4    0    0  0.36693122218E+02  0.20469597526E+02  0.45301447517E+02  0.61786817268E+02  0.00000000000E+00 0.  1.
         12    1    4    4    0    0 -0.52613297590E+01  0.17671091689E+02 -0.24306768122E+02  0.30508491422E+02  0.00000000000E+00 0. -1.
         -5    1    5    5    0  502  0.23514577791E+02  0.76805977630E+01  0.84124187971E+03  0.84161862927E+03  0.47000000000E+01 0.  1.
         11    1    6    6    0    0 -0.10953370232E+03  0.25564065408E+01  0.13019422110E+04  0.13065441775E+04  0.00000000000E+00 0. -1.
        -12    1    6    6    0    0 -0.40742702326E+02  0.35357450398E+02  0.30523177132E+03  0.30996217723E+03  0.00000000000E+00 0.  1.
</event>
<event>
12    1  0.1030140E-001  0.1915605E+03  0.7818608E-02  0.1157262E+00
         21   -1    0    0  503  502  0.00000000000E+00  0.00000000000E+00  0.12403366228E+04  0.12403366228E+04  0.00000000000E+00 0. -1.
         21   -1    0    0  501  503 -0.00000000000E+00 -0.00000000000E+00 -0.29513071659E+02  0.29513071659E+02  0.00000000000E+00 0. -1.
          6    2    1    2  501    0  0.83049279146E+02 -0.42879500507E+00  0.57390553713E+03  0.60474821250E+03  0.17162595473E+03 0.  0.
         24    2    3    3    0    0  0.75614091575E+02  0.19883118730E+01  0.58212830291E+03  0.59246699525E+03  0.80139473296E+02 0.  0.
         -6    2    1    2    0  502 -0.83049279146E+02  0.42879500507E+00  0.63691801403E+03  0.66510148198E+03  0.17262114038E+03 0.  0.
        -24    2    5    5    0    0 -0.86744741638E+01 -0.51203940916E+02  0.39275044400E+03  0.40464526054E+03  0.82388018215E+02 0.  0.
          5    1    3    3  501    0  0.74351875714E+01 -0.24171068781E+01 -0.82227657837E+01  0.12281217245E+02  0.47000000000E+01 0. -1.
        -11    1    4    4    0    0  0.76817605731E+01  0.19000714590E+02  0.33448562948E+03  0.33511292564E+03  0.00000000000E+00 0.  1.
         12    1    4    4    0    0  0.67932331002E+02 -0.17012402717E+02  0.24764267343E+03  0.25735406961E+03  0.00000000000E+00 0. -1.
         -5    1    5    5    0  502 -0.74374804982E+02  0.51632735921E+02  0.24416757003E+03  0.26045622144E+03  0.47000000000E+01 0.  1.
         11    1    6    6    0    0 -0.27366611095E+02 -0.28473594050E+02  0.35291707706E+03  0.35511989559E+03  0.00000000000E+00 0. -1.
        -12    1    6    6    0    0  0.18692136931E+02 -0.22730346866E+02  0.39833366942E+02  0.49525364952E+02  0.00000000000E+00 0.  1.
</event>
<event>
12    1  0.1030140E-001  0.2858931E+03  0.7818608E-02  0.1092544E+00
         21   -1    0    0  503  502  0.00000000000E+00  0.00000000000E+00  0.95903105985E+02  0.95903105985E+02  0.00000000000E+00 0. -1.
         21   -1    0    0  501  503 -0.00000000000E+00 -0.00000000000E+00 -0.86515048584E+03  0.86515048584E+03  0.00000000000E+00 0.  1.
          6    2    1    2  501    0 -0.10876821513E+03  0.20008590994E+03 -0.44466952816E+03  0.52851962293E+03  0.17244450286E+03 0.  0.
         24    2    3    3    0    0 -0.20124791512E+02  0.13249026906E+03 -0.34624534859E+03  0.37973710937E+03  0.79722971503E+02 0.  0.
         -6    2    1    2    0  502  0.10876821513E+03 -0.20008590994E+03 -0.32457785170E+03  0.43253396890E+03  0.17282926970E+03 0.  0.
        -24    2    5    5    0    0  0.55205907812E+02 -0.15212899426E+02 -0.90727024294E+02  0.12962267783E+03  0.72742842292E+02 0.  0.
          5    1    3    3  501    0 -0.88643423617E+02  0.67595640878E+02 -0.98424179575E+02  0.14878251356E+03  0.47000000000E+01 0. -1.
        -11    1    4    4    0    0 -0.21883475323E+02 -0.56475392082E+00 -0.35607043853E+02  0.41797930704E+02  0.00000000000E+00 0.  1.
         12    1    4    4    0    0  0.17586838111E+01  0.13305502298E+03 -0.31063830473E+03  0.33793917867E+03  0.00000000000E+00 0. -1.
         -5    1    5    5    0  502  0.53562307317E+02 -0.18487301051E+03 -0.23385082740E+03  0.30291129107E+03  0.47000000000E+01 0.  1.
         11    1    6    6    0    0  0.18439826548E+02  0.19998912578E+02 -0.19340860378E+01  0.27271310863E+02  0.00000000000E+00 0. -1.
        -12    1    6    6    0    0  0.36766081264E+02 -0.35211812004E+02 -0.88792938256E+02  0.10235136697E+03  0.00000000000E+00 0.  1.
</event>
<event>
12    1  0.1030140E-001  0.2080037E+03  0.7818608E-02  0.1143531E+00
         21   -1    0    0  503  502  0.00000000000E+00  0.00000000000E+00  0.11981684765E+03  0.11981684765E+03  0.00000000000E+00 0. -1.
         21   -1    0    0  501  503 -0.00000000000E+00 -0.00000000000E+00 -0.36795041603E+03  0.36795041603E+03  0.00000000000E+00 0.  1.
          6    2    1    2  501    0 -0.86849056830E+02 -0.72054702781E+02 -0.16386920368E+03  0.26334348664E+03  0.17251677361E+03 0.  0.
         24    2    3    3    0    0 -0.11061059843E+03 -0.23763569880E+02 -0.70764407355E+02  0.15569945534E+03  0.80220367156E+02 0.  0.
         -6    2    1    2    0  502  0.86849056830E+02  0.72054702781E+02 -0.84264364709E+02  0.22442377704E+03  0.17473096370E+03 0.  0.
        -24    2    5    5    0    0  0.69577164194E+02 -0.24162120006E+02 -0.37289868610E+02  0.11586647168E+03  0.81300154602E+02 0.  0.
          5    1    3    3  501    0  0.23761541601E+02 -0.48291132901E+02 -0.93104796322E+02  0.10764403130E+03  0.47000000000E+01 0. -1.
        -11    1    4    4    0    0 -0.17999565694E+02  0.86502089410E+01 -0.52132399663E+02  0.55826495273E+02  0.00000000000E+00 0.  1.
         12    1    4    4    0    0 -0.92611032738E+02 -0.32413778821E+02 -0.18632007692E+02  0.99872960069E+02  0.00000000000E+00 0. -1.
         -5    1    5    5    0  502  0.17271892637E+02  0.96216822788E+02 -0.46974496099E+02  0.10855730536E+03  0.47000000000E+01 0.  1.
         13    1    6    6    0    0  0.49838958282E+02  0.11978983408E+02  0.10976352858E+02  0.52420398017E+02  0.00000000000E+00 0. -1.
        -14    1    6    6    0    0  0.19738205911E+02 -0.36141103414E+02 -0.48266221468E+02  0.63446073664E+02  0.00000000000E+00 0.  1.
</event>
<event>
12    1  0.1030140E-001  0.2308837E+03  0.7818608E-02  0.1126334E+00
         21   -1    0    0  503  502  0.00000000000E+00  0.00000000000E+00  0.57897905355E+03  0.57897905355E+03  0.00000000000E+00 0.  1.
         21   -1    0    0  501  503 -0.00000000000E+00 -0.00000000000E+00 -0.10353036501E+03  0.10353036501E+03  0.00000000000E+00 0. -1.
          6    2    1    2  501    0  0.54649273008E+02 -0.14267532172E+03  0.11990205892E+03  0.25857462550E+03  0.17070894162E+03 0.  0.
         24    2    3    3    0    0  0.52568824950E+02 -0.16591330111E+03  0.13141168085E+03  0.23213803443E+03  0.79550815982E+02 0.  0.
         -6    2    1    2    0  502 -0.54649273008E+02  0.14267532172E+03  0.35554662962E+03  0.42393479306E+03  0.17310260675E+03 0.  0.
        -24    2    5    5    0    0 -0.94016942295E+02  0.81693430922E+02  0.17420175753E+03  0.22854631585E+03  0.79838362139E+02 0.  0.
          5    1    3    3  501    0  0.20804480577E+01  0.23237979390E+02 -0.11509621931E+02  0.26436591067E+02  0.47000000000E+01 0. -1.
        -13    1    4    4    0    0  0.24830459548E+02 -0.71560355949E+02  0.10649449457E+03  0.13068478733E+03  0.00000000000E+00 0.  1.
         14    1    4    4    0    0  0.27738365402E+02 -0.94352945157E+02  0.24917186279E+02  0.10145324710E+03  0.00000000000E+00 0. -1.
         -5    1    5    5    0  502  0.39367669288E+02  0.60981890794E+02  0.18134487210E+03  0.19538847721E+03  0.47000000000E+01 0.  1.
         11    1    6    6    0    0 -0.36240226101E+02 -0.12018076962E+01  0.13447421333E+02  0.38673394862E+02  0.00000000000E+00 0. -1.
        -12    1    6    6    0    0 -0.57776716194E+02  0.82895238619E+02  0.16075433619E+03  0.18987292099E+03  0.00000000000E+00 0.  1.
</event>
<event>
12    1  0.1030140E-001  0.1917307E+03  0.7818608E-02  0.1158366E+00
         21   -1    0    0  503  502  0.00000000000E+00  0.00000000000E+00  0.40018097918E+02  0.40018097918E+02  0.00000000000E+00 0. -1.
         21   -1    0    0  501  503 -0.00000000000E+00 -0.00000000000E+00 -0.16689264867E+04  0.16689264867E+04  0.00000000000E+00 0.  1.
          6    2    1    2  501    0  0.68929831271E+02 -0.49059319547E+02 -0.13914912927E+04  0.14037765083E+04  0.16487064432E+03 0.  0.
         24    2    3    3    0    0  0.51341024271E+02  0.31792050439E+02 -0.83294791687E+03  0.83911811356E+03  0.81672155866E+02 0.  0.
         -6    2    1    2    0  502 -0.68929831271E+02  0.49059319547E+02 -0.23741709608E+03  0.30516807624E+03  0.17205388333E+03 0.  0.
        -24    2    5    5    0    0 -0.30593926904E+01  0.78100845556E+02 -0.10172924382E+03  0.15149436943E+03  0.80576689932E+02 0.  0.
          5    1    3    3  501    0  0.17588807000E+02 -0.80851369986E+02 -0.55854337578E+03  0.56465839478E+03  0.47000000000E+01 0. -1.
        -11    1    4    4    0    0 -0.10398234100E+02  0.37761678495E+02 -0.35833283895E+03  0.36046704579E+03  0.00000000000E+00 0.  1.
         12    1    4    4    0    0  0.61739258370E+02 -0.59696280561E+01 -0.47461507792E+03  0.47865106777E+03  0.00000000000E+00 0. -1.
         -5    1    5    5    0  502 -0.65870438580E+02 -0.29041526009E+02 -0.13568785227E+03  0.15367370681E+03  0.47000000000E+01 0.  1.
         11    1    6    6    0    0  0.50454989336E+01  0.18574666710E+02  0.12135064743E+02  0.22753793073E+02  0.00000000000E+00 0. -1.
        -12    1    6    6    0    0 -0.81048916240E+01  0.59526178846E+02 -0.11386430856E+03  0.12874057636E+03  0.00000000000E+00 0.  1.
</event>
<event>
12    1  0.1030140E-001  0.1918536E+03  0.7818608E-02  0.1159805E+00
         21   -1    0    0  503  502  0.00000000000E+00  0.00000000000E+00  0.11034282758E+03  0.11034282758E+03  0.00000000000E+00 0. -1.
         21   -1    0    0  501  503 -0.00000000000E+00 -0.00000000000E+00 -0.32100152429E+03  0.32100152429E+03  0.00000000000E+00 0. -1.
          6    2    1    2  501    0 -0.47853168025E+01  0.42404828469E+02 -0.13911026010E+03  0.22658354220E+03  0.17368755970E+03 0.  0.
         24    2    3    3    0    0  0.47635630182E+02  0.65381188412E+02 -0.11673716688E+03  0.16495145559E+03  0.83890187209E+02 0.  0.
         -6    2    1    2    0  502  0.47853168025E+01 -0.42404828469E+02 -0.71548436609E+02  0.20476080968E+03  0.18704743159E+03 0.  0.
        -24    2    5    5    0    0  0.62081885198E+02 -0.74440009777E+02 -0.39250778580E+02  0.13145065823E+03  0.79644060692E+02 0.  0.
          5    1    3    3  501    0 -0.52420946985E+02 -0.22976359943E+02 -0.22373093225E+02  0.61632086606E+02  0.47000000000E+01 0. -1.
        -13    1    4    4    0    0 -0.46990681812E+00 -0.18373922850E+02 -0.97166962065E+01  0.20790287119E+02  0.00000000000E+00 0.  1.
         14    1    4    4    0    0  0.48105537000E+02  0.83755111262E+02 -0.10702047067E+03  0.14416116847E+03  0.00000000000E+00 0. -1.
         -5    1    5    5    0  502 -0.57296568396E+02  0.32035181309E+02 -0.32297658030E+02  0.73310151450E+02  0.47000000000E+01 0.  1.
         11    1    6    6    0    0  0.22243403503E+02 -0.81806413222E+02 -0.23402274799E+02  0.87947283695E+02  0.00000000000E+00 0. -1.
        -12    1    6    6    0    0  0.39838481695E+02  0.73664034444E+01 -0.15848503781E+02  0.43503374531E+02  0.00000000000E+00 0.  1.
</event>
<event>
12    1  0.1030140E-001  0.1910592E+03  0.7818608E-02  0.1157749E+00
         21   -1    0    0  503  502  0.00000000000E+00  0.00000000000E+00  0.40076381426E+03  0.40076381426E+03  0.00000000000E+00 0.  1.
         21   -1    0    0  501  503 -0.00000000000E+00 -0.00000000000E+00 -0.15794859463E+03  0.15794859463E+03  0.00000000000E+00 0. -1.
          6    2    1    2  501    0  0.46493517637E+02 -0.66693833029E+02 -0.61233444697E+02  0.19961741715E+03  0.17172030728E+03 0.  0.
         24    2    3    3    0    0  0.29689445728E+02 -0.82423149270E+02  0.16043924027E+02  0.11884817833E+03  0.78692078832E+02 0.  0.
         -6    2    1    2    0  502 -0.46493517637E+02  0.66693833029E+02  0.30404866433E+03  0.35909499174E+03  0.17289854905E+03 0.  0.
        -24    2    5    5    0    0 -0.95412311727E+02  0.55459479379E+02  0.17015846357E+03  0.21602880084E+03  0.74399442120E+02 0.  0.
          5    1    3    3  501    0  0.16804071910E+02  0.15729316241E+02 -0.77277368725E+02  0.80769238817E+02  0.47000000000E+01 0. -1.
        -13    1    4    4    0    0  0.26570023600E+02  0.75715090367E+01  0.18722493017E+01  0.27691139750E+02  0.00000000000E+00 0.  1.
         14    1    4    4    0    0  0.31194221278E+01 -0.89994658307E+02  0.14171674726E+02  0.91157038580E+02  0.00000000000E+00 0. -1.
         -5    1    5    5    0  502  0.48918794089E+02  0.11234353650E+02  0.13389020076E+03  0.14306619090E+03  0.47000000000E+01 0.  1.
         13    1    6    6    0    0 -0.25221579349E+02  0.90409880473E+01  0.67229167153E+00  0.26801483276E+02  0.00000000000E+00 0. -1.
        -14    1    6    6    0    0 -0.70190732378E+02  0.46418491332E+02  0.16948617190E+03  0.18922731757E+03  0.00000000000E+00 0.  1.
</event>
<event>
12    1  0.1030140E-001  0.1782586E+03  0.7818608E-02  0.1170664E+00
         21   -1    0    0  501  502  0.00000000000E+00  0.00000000000E+00  0.61758680853E+02  0.61758680853E+02  0.00000000000E+00 0. -1.
         21   -1    0    0  502  503 -0.00000000000E+00 -0.00000000000E+00 -0.51888399896E+03  0.51888399896E+03  0.00000000000E+00 0. -1.
         -6    2    1    2    0  503 -0.24356847126E+02 -0.23871824782E+01 -0.27939391970E+03  0.32891949600E+03  0.17183747508E+03 0.  0.
        -24    2    3    3    0    0  0.53387214605E+01  0.30676133154E+02 -0.27003123987E+03  0.28326033035E+03  0.79686994875E+02 0.  0.
          6    2    1    2  501    0  0.24356847126E+02  0.23871824782E+01 -0.17773139841E+03  0.25172318381E+03  0.17657054298E+03 0.  0.
         24    2    5    5    0    0  0.43359879991E+02 -0.27691945455E+02 -0.19140220770E+03  0.21331940507E+03  0.78888785219E+02 0.  0.
          5    1    5    5  501    0 -0.19003032865E+02  0.30079127933E+02  0.13670809285E+02  0.38403778744E+02  0.47000000000E+01 0. -1.
        -13    1    6    6    0    0  0.42675632378E+02  0.12604797466E+02 -0.14590029885E+03  0.15253520159E+03  0.00000000000E+00 0.  1.
         14    1    6    6    0    0  0.68424761300E+00 -0.40296742921E+02 -0.45501908842E+02  0.60784203483E+02  0.00000000000E+00 0. -1.
         -5    1    3    3    0  503 -0.29695568587E+02 -0.33063315633E+02 -0.93626798290E+01  0.45659165650E+02  0.47000000000E+01 0.  1.
         11    1    4    4    0    0 -0.34215103346E+01  0.38253060420E+02 -0.50604389235E+02  0.63528006220E+02  0.00000000000E+00 0. -1.
        -12    1    4    4    0    0  0.87602317950E+01 -0.75769272658E+01 -0.21942685063E+03  0.21973232413E+03  0.00000000000E+00 0.  1.
</event>
<event>
12    1  0.1030140E-001  0.2112164E+03  0.7818608E-02  0.1140609E+00
         21   -1    0    0  501  502  0.00000000000E+00  0.00000000000E+00  0.84720219928E+02  0.84720219928E+02  0.00000000000E+00 0.  1.
         21   -1    0    0  502  503 -0.00000000000E+00 -0.00000000000E+00 -0.12215314749E+04  0.12215314749E+04  0.00000000000E+00 0.  1.
         -6    2    1    2    0  503 -0.11840416478E+03  0.28100457034E+02 -0.10610524549E+04  0.10818709256E+04  0.17263604952E+03 0.  0.
        -24    2    3    3    0    0 -0.11549762977E+03  0.12946071703E+02 -0.48406332439E+03  0.50465636401E+03  0.82785508727E+02 0.  0.
          6    2    1    2  501    0  0.11840416478E+03 -0.28100457034E+02 -0.75758800084E+02  0.22438076928E+03  0.17262141209E+03 0.  0.
         24    2    5    5    0    0  0.78280440313E+02  0.17597216101E+02  0.16233204721E+02  0.11400500408E+03  0.79348186309E+02 0.  0.
          5    1    5    5  501    0  0.40123724469E+02 -0.45697673135E+02 -0.91992004805E+02  0.11037576520E+03  0.47000000000E+01 0. -1.
        -11    1    6    6    0    0  0.43472765864E+02 -0.22265686817E+02 -0.16763736805E+02  0.51639762325E+02  0.00000000000E+00 0.  1.
         12    1    6    6    0    0  0.34807674449E+02  0.39862902918E+02  0.32996941526E+02  0.62365241759E+02  0.00000000000E+00 0. -1.
         -5    1    3    3    0  503 -0.29065350098E+01  0.15154385331E+02 -0.57698913054E+03  0.57721456159E+03  0.47000000000E+01 0.  1.
         11    1    4    4    0    0 -0.14566444023E+01  0.23083896218E+02 -0.41361657828E+02  0.47389606622E+02  0.00000000000E+00 0. -1.
        -12    1    4    4    0    0 -0.11404098537E+03 -0.10137824516E+02 -0.44270166656E+03  0.45726675738E+03  0.00000000000E+00 0.  1.
</event>
<event>
12    1  0.1030140E-001  0.1997115E+03  0.7818608E-02  0.1150391E+00
         21   -1    0    0  503  502  0.00000000000E+00  0.00000000000E+00  0.24776903148E+02  0.24776903148E+02  0.00000000000E+00 0.  1.
         21   -1    0    0  501  503 -0.00000000000E+00 -0.00000000000E+00 -0.16759729176E+04  0.16759729176E+04  0.00000000000E+00 0. -1.
          6    2    1    2  501    0 -0.65133368624E+02  0.78345677390E+02 -0.10171435148E+04  0.10365643233E+04  0.17176805779E+03 0.  0.
         24    2    3    3    0    0 -0.43508751422E+02  0.12026107238E+03 -0.65972028742E+03  0.67601199990E+03  0.73522985502E+02 0.  0.
         -6    2    1    2    0  502  0.65133368624E+02 -0.78345677390E+02 -0.63405249959E+03  0.66418549743E+03  0.16952699456E+03 0.  0.
        -24    2    5    5    0    0  0.98918533825E+02 -0.17269093942E+02 -0.44362366787E+03  0.46131357630E+03  0.76975054680E+02 0.  0.
          5    1    3    3  501    0 -0.21624617202E+02 -0.41915394989E+02 -0.35742322742E+03  0.36055232339E+03  0.47000000000E+01 0. -1.
        -13    1    4    4    0    0 -0.45324868787E+01  0.28957372142E+02 -0.47648343424E+02  0.55941375294E+02  0.00000000000E+00 0.  1.
         14    1    4    4    0    0 -0.38976264544E+02  0.91303700237E+02 -0.61207194399E+03  0.62007062460E+03  0.00000000000E+00 0. -1.
         -5    1    5    5    0  502 -0.33785165201E+02 -0.61076583448E+02 -0.19042883172E+03  0.20287192113E+03  0.47000000000E+01 0.  1.
         13    1    6    6    0    0 -0.67083771927E+01  0.12346000491E+02 -0.26364870197E+02  0.29875281308E+02  0.00000000000E+00 0. -1.
        -14    1    6    6    0    0  0.10562691102E+03 -0.29615094433E+02 -0.41725879767E+03  0.43143829499E+03  0.00000000000E+00 0.  1.
</event>
<event>
12    1  0.1030140E-001  0.2244151E+03  0.7818608E-02  0.1131040E+00
         21   -1    0    0  503  502  0.00000000000E+00  0.00000000000E+00  0.21722015851E+03  0.21722015851E+03  0.00000000000E+00 0.  1.
         21   -1    0    0  501  503 -0.00000000000E+00 -0.00000000000E+00 -0.35611680668E+03  0.35611680668E+03  0.00000000000E+00 0. -1.
          6    2    1    2  501    0  0.14063910763E+03  0.11737769526E+02 -0.24011994450E+03  0.32714944826E+03  0.17161596641E+03 0.  0.
         24    2    3    3    0    0 -0.33170182325E+00 -0.38308914879E+01 -0.10441360914E+03  0.13079911906E+03  0.78685589640E+02 0.  0.
         -6    2    1    2    0  502 -0.14063910763E+03 -0.11737769526E+02  0.10122329633E+03  0.24618751692E+03  0.17448496766E+03 0.  0.
        -24    2    5    5    0    0 -0.24560509057E+02  0.93679066196E+01  0.97072242883E+02  0.12803925474E+03  0.79246792597E+02 0.  0.
          5    1    3    3  501    0  0.14097080945E+03  0.15568661014E+02 -0.13570633536E+03  0.19635032920E+03  0.47000000000E+01 0. -1.
        -13    1    4    4    0    0  0.11186762753E+02  0.30296251272E+01 -0.11382834380E+03  0.11441684379E+03  0.00000000000E+00 0.  1.
         14    1    4    4    0    0 -0.11518464576E+02 -0.68605166151E+01  0.94147346600E+01  0.16382275273E+02  0.00000000000E+00 0. -1.
         -5    1    5    5    0  502 -0.11607859857E+03 -0.21105676145E+02  0.41510534482E+01  0.11814826218E+03  0.47000000000E+01 0.  1.
         11    1    6    6    0    0 -0.21735859105E+02  0.35907829489E+01 -0.74979974780E+01  0.23271468785E+02  0.00000000000E+00 0. -1.
        -12    1    6    6    0    0 -0.28246499522E+01  0.57771236707E+01  0.10457024036E+03  0.10476778596E+03  0.00000000000E+00 0.  1.
</event>
<event>
12    1  0.1030140E-001  0.2415221E+03  0.7818608E-02  0.1118800E+00
         21   -1    0    0  501  502  0.00000000000E+00  0.00000000000E+00  0.17291231120E+03  0.17291231120E+03  0.00000000000E+00 0. -1.
         21   -1    0    0  502  503 -0.00000000000E+00 -0.00000000000E+00 -0.33842892739E+03  0.33842892739E+03  0.00000000000E+00 0. -1.
         -6    2    1    2    0  503 -0.11624332876E+03 -0.12426889102E+03 -0.67390109939E+02  0.25064655035E+03  0.17125127014E+03 0.  0.
        -24    2    3    3    0    0 -0.67310023474E+02 -0.10619161633E+03  0.18851930323E+02  0.14974543175E+03  0.79126483644E+02 0.  0.
          6    2    1    2  501    0  0.11624332876E+03  0.12426889102E+03 -0.98126506252E+02  0.26069468825E+03  0.17139906795E+03 0.  0.
         24    2    5    5    0    0  0.10160876211E+02  0.30863190638E+02 -0.82008032295E+02  0.11835703755E+03  0.78913186698E+02 0.  0.
          5    1    5    5  501    0  0.10608245255E+03  0.93405700386E+02 -0.16118473957E+02  0.14233765070E+03  0.47000000000E+01 0. -1.
        -13    1    6    6    0    0  0.44741557038E-01  0.39705071022E+02 -0.92920558035E+02  0.10104813097E+03  0.00000000000E+00 0.  1.
         14    1    6    6    0    0  0.10116134654E+02 -0.88418803832E+01  0.10912525740E+02  0.17308906582E+02  0.00000000000E+00 0. -1.
         -5    1    3    3    0  503 -0.48933305284E+02 -0.18077274699E+02 -0.86242040262E+02  0.10090111860E+03  0.47000000000E+01 0.  1.
         11    1    4    4    0    0 -0.20098544507E+02 -0.56675129005E+02 -0.28495522290E+02  0.66543343240E+02  0.00000000000E+00 0. -1.
        -12    1    4    4    0    0 -0.47211478966E+02 -0.49516487321E+02  0.47347452612E+02  0.83202088505E+02  0.00000000000E+00 0.  1.
</event>
<event>
12    1  0.1030140E-001  0.1983743E+03  0.7818608E-02  0.1151743E+00
         21   -1    0    0  503  502  0.00000000000E+00  0.00000000000E+00  0.33354643324E+02  0.33354643324E+02  0.00000000000E+00 0.  1.
         21   -1    0    0  501  503 -0.00000000000E+00 -0.00000000000E+00 -0.13030357369E+04  0.13030357369E+04  0.00000000000E+00 0.  1.
          6    2    1    2  501    0 -0.27653157500E+02  0.94966640187E+02 -0.41127417393E+03  0.45535985456E+03  0.16859060215E+03 0.  0.
         24    2    3    3    0    0 -0.63620558397E+02  0.11197949244E+03 -0.28203207634E+03  0.32005020650E+03  0.79391815799E+02 0.  0.
         -6    2    1    2    0  502  0.27653157500E+02 -0.94966640187E+02 -0.85840691966E+03  0.88103052568E+03  0.17195635374E+03 0.  0.
        -24    2    5    5    0    0  0.47170537957E+02 -0.11884119820E+03 -0.51674585412E+03  0.53794847082E+03  0.77549915978E+02 0.  0.
          5    1    3    3  501    0  0.35967400897E+02 -0.17012852253E+02 -0.12924209759E+03  0.13530964806E+03  0.47000000000E+01 0. -1.
        -11    1    4    4    0    0 -0.79426940634E+02  0.73051467729E+02 -0.18256081539E+03  0.21206981669E+03  0.00000000000E+00 0.  1.
         12    1    4    4    0    0  0.15806382237E+02  0.38928024711E+02 -0.99471260950E+02  0.10798038980E+03  0.00000000000E+00 0. -1.
         -5    1    5    5    0  502 -0.19517380457E+02  0.23874558012E+02 -0.34166106554E+03  0.34308205486E+03  0.47000000000E+01 0.  1.
         13    1    6    6    0    0  0.40373988466E+02 -0.66778428221E+02 -0.16759076686E+03  0.18486774342E+03  0.00000000000E+00 0. -1.
        -14    1    6    6    0    0  0.67965494911E+01 -0.52062769978E+02 -0.34915508726E+03  0.35308072740E+03  0.00000000000E+00 0.  1.
</event>
<event>
12    1  0.1030140E-001  0.2441710E+03  0.7818608E-02  0.1117047E+00
         21   -1    0    0  503  502  0.00000000000E+00  0.00000000000E+00  0.32759795884E+03  0.32759795884E+03  0.00000000000E+00 0.  1.
         21   -1    0    0  501  503 -0.00000000000E+00 -0.00000000000E+00 -0.25478635233E+03  0.25478635233E+03  0.00000000000E+00 0. -1.
          6    2    1    2  501    0  0.10449658855E+03 -0.13787367128E+03 -0.11925622831E+03  0.27172450630E+03  0.17228892327E+03 0.  0.
         24    2    3    3    0    0 -0.14285553462E+01 -0.10403523569E+03 -0.52181047900E+02  0.14177703360E+03  0.80947479648E+02 0.  0.
         -6    2    1    2    0  502 -0.10449658855E+03  0.13787367128E+03  0.19206783481E+03  0.31065980487E+03  0.17231011271E+03 0.  0.
        -24    2    5    5    0    0 -0.68606852322E+02  0.32308908990E+02  0.23026271769E+02  0.10810331339E+03  0.73521094859E+02 0.  0.
          5    1    3    3  501    0  0.10592514390E+03 -0.33838435590E+02 -0.67075180405E+02  0.12994747269E+03  0.47000000000E+01 0. -1.
        -11    1    4    4    0    0 -0.63772890961E+01 -0.52840586316E+01  0.18478119814E+02  0.20249246991E+02  0.00000000000E+00 0.  1.
         12    1    4    4    0    0  0.49487337499E+01 -0.98751177062E+02 -0.70659167715E+02  0.12152778661E+03  0.00000000000E+00 0. -1.
         -5    1    5    5    0  502 -0.35889736229E+02  0.10556476229E+03  0.16904156304E+03  0.20255649148E+03  0.47000000000E+01 0.  1.
         13    1    6    6    0    0 -0.81180673747E+02  0.35579701845E+02  0.29723622371E+02  0.93486419871E+02  0.00000000000E+00 0. -1.
        -14    1    6    6    0    0  0.12573821425E+02 -0.32707928545E+01 -0.66973506021E+01  0.14616893522E+02  0.00000000000E+00 0.  1.
</event>
<event>
12    1  0.1030140E-001  0.2679622E+03  0.7818608E-02  0.1102615E+00
         21   -1    0    0  503  502  0.00000000000E+00  0.00000000000E+00  0.87253174123E+03  0.87253174123E+03  0.00000000000E+00 0. -1.
         21   -1    0    0  501  503 -0.00000000000E+00 -0.00000000000E+00 -0.87028300455E+02  0.87028300455E+02  0.00000000000E+00 0. -1.
          6    2    1    2  501    0 -0.19712916433E+03 -0.55203800687E+02  0.50790748289E+03  0.57373203206E+03  0.17114633037E+03 0.  0.
         24    2    3    3    0    0 -0.19671638432E+03 -0.71180468714E+01  0.45604986060E+03  0.50285387537E+03  0.78310549511E+02 0.  0.
         -6    2    1    2    0  502  0.19712916433E+03  0.55203800687E+02  0.27759595789E+03  0.38582800963E+03  0.17290566831E+03 0.  0.
        -24    2    5    5    0    0  0.10838578212E+03  0.50803340617E+02  0.25751625960E+03  0.29461377708E+03  0.78448687084E+02 0.  0.
          5    1    3    3  501    0 -0.41278000864E+00 -0.48085753816E+02  0.51857622289E+02  0.70878156698E+02  0.47000000000E+01 0. -1.
        -11    1    4    4    0    0 -0.10001575409E+02  0.56069767001E+01  0.18573829194E+01  0.11615488354E+02  0.00000000000E+00 0.  1.
         12    1    4    4    0    0 -0.18671480891E+03 -0.12725023572E+02  0.45419247768E+03  0.49123838701E+03  0.00000000000E+00 0. -1.
         -5    1    5    5    0  502  0.88743382211E+02  0.44004600709E+01  0.20079698291E+02  0.91214232544E+02  0.47000000000E+01 0.  1.
         11    1    6    6    0    0  0.48897917550E+02  0.41881219945E+02  0.59512034909E+02  0.87673971188E+02  0.00000000000E+00 0. -1.
        -12    1    6    6    0    0  0.59487864568E+02  0.89221206712E+01  0.19800422469E+03  0.20693980589E+03  0.00000000000E+00 0.  1.
</event>
<event>
12    1  0.1030140E-001  0.2529603E+03  0.7818608E-02  0.1111455E+00
         21   -1    0    0  503  502  0.00000000000E+00  0.00000000000E+00  0.27055913609E+03  0.27055913609E+03  0.00000000000E+00 0.  1.
         21   -1    0    0  501  503 -0.00000000000E+00 -0.00000000000E+00 -0.51713662482E+03  0.51713662482E+03  0.00000000000E+00 0. -1.
          6    2    1    2  501    0 -0.57792082939E+02 -0.17533783195E+03 -0.41344471134E+03  0.48469109736E+03  0.17293250232E+03 0.  0.
         24    2    3    3    0    0  0.26667744378E+02 -0.10457566160E+03 -0.16822552964E+03  0.21581327333E+03  0.81414387735E+02 0.  0.
         -6    2    1    2    0  502  0.57792082939E+02  0.17533783195E+03  0.16686722261E+03  0.30300466355E+03  0.17286953458E+03 0.  0.
        -24    2    5    5    0    0 -0.33475989597E+02  0.58403373503E+02  0.59165760379E+02  0.11963284564E+03  0.79245407682E+02 0.  0.
          5    1    3    3  501    0 -0.84459827317E+02 -0.70762170344E+02 -0.24521918170E+03  0.26887782403E+03  0.47000000000E+01 0. -1.
        -13    1    4    4    0    0  0.12352578928E+02 -0.10445388377E+03 -0.17144668737E+03  0.20113966952E+03  0.00000000000E+00 0.  1.
         14    1    4    4    0    0  0.14315165450E+02 -0.12177783027E+00  0.32211577299E+01  0.14673603811E+02  0.00000000000E+00 0. -1.
         -5    1    5    5    0  502  0.91268072536E+02  0.11693445845E+03  0.10770146223E+03  0.18337181791E+03  0.47000000000E+01 0.  1.
         13    1    6    6    0    0 -0.53751076474E+02  0.42224699893E+02  0.17507962463E+02  0.70559423557E+02  0.00000000000E+00 0. -1.
        -14    1    6    6    0    0  0.20275086877E+02  0.16178673610E+02  0.41657797916E+02  0.49073422082E+02  0.00000000000E+00 0.  1.
</event>
<event>
12    1  0.1030140E-001  0.2003290E+03  0.7818608E-02  0.1151934E+00
         21   -1    0    0  501  502  0.00000000000E+00  0.00000000000E+00  0.71612002389E+03  0.71612002389E+03  0.00000000000E+00 0. -1.
         21   -1    0    0  502  503 -0.00000000000E+00 -0.00000000000E+00 -0.53035401932E+02  0.53035401932E+02  0.00000000000E+00 0.  1.
         -6    2    1    2    0  503 -0.23459037639E+02  0.10021687839E+03  0.30256920781E+03  0.35671990260E+03  0.15845256145E+03 0.  0.
        -24    2    3    3    0    0 -0.60990823915E+01  0.29825390196E+02  0.25800870233E+03  0.27149045754E+03  0.78815134003E+02 0.  0.
          6    2    1    2  501    0  0.23459037639E+02 -0.10021687839E+03  0.36051541414E+03  0.41243552322E+03  0.17186607524E+03 0.  0.
         24    2    5    5    0    0  0.24104910851E+02 -0.24739695193E+02  0.68067867396E+02  0.11036784879E+03  0.79716549286E+02 0.  0.
          5    1    5    5  501    0 -0.64587321201E+00 -0.75477183199E+02  0.29244754675E+03  0.30206767443E+03  0.47000000000E+01 0. -1.
        -13    1    6    6    0    0  0.33962588365E+02  0.16350586629E+02  0.53954486061E+02  0.65817062056E+02  0.00000000000E+00 0.  1.
         14    1    6    6    0    0 -0.98576775142E+01 -0.41090281823E+02  0.14113381335E+02  0.44550786738E+02  0.00000000000E+00 0. -1.
         -5    1    3    3    0  503 -0.17359955248E+02  0.70391488196E+02  0.44560505479E+02  0.85229445060E+02  0.47000000000E+01 0.  1.
         11    1    4    4    0    0  0.26254780478E+02 -0.17643629418E+01  0.17497596628E+03  0.17694353689E+03  0.00000000000E+00 0. -1.
        -12    1    4    4    0    0 -0.32353862870E+02  0.31589753138E+02  0.83032736059E+02  0.94546920645E+02  0.00000000000E+00 0.  1.
</event>
<event>
12    1  0.1030140E-001  0.1848556E+03  0.7818608E-02  0.1163632E+00
         21   -1    0    0  503  502  0.00000000000E+00  0.00000000000E+00  0.72522016133E+02  0.72522016133E+02  0.00000000000E+00 0. -1.
         21   -1    0    0  501  503 -0.00000000000E+00 -0.00000000000E+00 -0.94441954031E+03  0.94441954031E+03  0.00000000000E+00 0. -1.
          6    2    1    2  501    0  0.21845642431E+02 -0.56852201740E+02 -0.79882870425E+03  0.81993834617E+03  0.17453420254E+03 0.  0.
         24    2    3    3    0    0 -0.15766751607E+02  0.21284041636E+02 -0.24624561278E+03  0.26057251982E+03  0.80990958674E+02 0.  0.
         -6    2    1    2    0  502 -0.21845642431E+02  0.56852201740E+02 -0.73068819930E+02  0.19700321027E+03  0.17251610787E+03 0.  0.
        -24    2    5    5    0    0 -0.32937242356E+02  0.79413312447E+02 -0.10435200632E+03  0.15659584639E+03  0.79003681926E+02 0.  0.
          5    1    3    3  501    0  0.37612394037E+02 -0.78136243376E+02 -0.55258309146E+03  0.55936582635E+03  0.47000000000E+01 0. -1.
        -11    1    4    4    0    0  0.92161085010E+01 -0.18697951132E+02 -0.18102021664E+02  0.27608571509E+02  0.00000000000E+00 0.  1.
         12    1    4    4    0    0 -0.24982860108E+02  0.39981992768E+02 -0.22814359112E+03  0.23296394831E+03  0.00000000000E+00 0. -1.
         -5    1    5    5    0  502  0.11091599926E+02 -0.22561110707E+02  0.31283186385E+02  0.40407363879E+02  0.47000000000E+01 0.  1.
         11    1    6    6    0    0 -0.39455879912E+02  0.10430808060E+02 -0.65452369723E+02  0.77133526555E+02  0.00000000000E+00 0. -1.
        -12    1    6    6    0    0  0.65186375563E+01  0.68982504387E+02 -0.38899636592E+02  0.79462319838E+02  0.00000000000E+00 0.  1.
</event>
<event>
12    1  0.1030140E-001  0.2885492E+03  0.7818608E-02  0.1091676E+00
         21   -1    0    0  501  502  0.00000000000E+00  0.00000000000E+00  0.41604717642E+03  0.41604717642E+03  0.00000000000E+00 0.  1.
         21   -1    0    0  502  503 -0.00000000000E+00 -0.00000000000E+00 -0.99205109842E+03  0.99205109842E+03  0.00000000000E+00 0. -1.
         -6    2    1    2    0  503  0.17096443259E+03  0.14846454302E+03 -0.91778473446E+03  0.96080108930E+03  0.17187017383E+03 0.  0.
        -24    2    3    3    0    0  0.17109622879E+03  0.12556057518E+03 -0.59341501210E+03  0.63558974894E+03  0.82423145012E+02 0.  0.
          6    2    1    2  501    0 -0.17096443259E+03 -0.14846454302E+03  0.34178081246E+03  0.44729718554E+03  0.17885773866E+03 0.  0.
         24    2    5    5    0    0 -0.10384047456E+03 -0.12130413401E+02  0.11205194263E+03  0.17181567205E+03  0.77685238166E+02 0.  0.
          5    1    5    5  501    0 -0.67123958033E+02 -0.13633412962E+03  0.22972886983E+03  0.27548151349E+03  0.47000000000E+01 0. -1.
        -11    1    6    6    0    0 -0.61430777444E+02 -0.43736020604E+02  0.80149695707E+02  0.11004796062E+03  0.00000000000E+00 0.  1.
         12    1    6    6    0    0 -0.42409697114E+02  0.31605607203E+02  0.31902246922E+02  0.61767711424E+02  0.00000000000E+00 0. -1.
         -5    1    3    3    0  503 -0.13179619780E+00  0.22903967840E+02 -0.32436972236E+03  0.32521134036E+03  0.47000000000E+01 0.  1.
         13    1    4    4    0    0  0.22741615999E+02  0.40826084225E+02 -0.22054839161E+03  0.22544521129E+03  0.00000000000E+00 0. -1.
        -14    1    4    4    0    0  0.14835461279E+03  0.84734490954E+02 -0.37286662048E+03  0.41014453765E+03  0.00000000000E+00 0.  1.
</event>
<event>
12    1  0.1030140E-001  0.1803412E+03  0.7818608E-02  0.1167610E+00
         21   -1    0    0  503  502  0.00000000000E+00  0.00000000000E+00  0.86054606472E+03  0.86054606472E+03  0.00000000000E+00 0. -1.
         21   -1    0    0  501  503 -0.00000000000E+00 -0.00000000000E+00 -0.38247081100E+02  0.38247081100E+02  0.00000000000E+00 0. -1.
          6    2    1    2  501    0 -0.47577872373E+02  0.27308548451E+02  0.35682198267E+03  0.39980604629E+03  0.17179504236E+03 0.  0.
         24    2    3    3    0    0  0.95183316043E+00 -0.22730911621E+02  0.29395918338E+03  0.30582252956E+03  0.81226952195E+02 0.  0.
         -6    2    1    2    0  502  0.47577872373E+02 -0.27308548451E+02  0.46547700095E+03  0.49898709953E+03  0.17120127430E+03 0.  0.
        -24    2    5    5    0    0  0.94462132769E+02 -0.42061009049E+02  0.35485401251E+03  0.37784542818E+03  0.78444721858E+02 0.  0.
          5    1    3    3  501    0 -0.48529705533E+02  0.50039460072E+02  0.62862799289E+02  0.93983516735E+02  0.47000000000E+01 0. -1.
        -11    1    4    4    0    0 -0.26995260807E+02  0.19788255835E+02  0.11621810448E+03  0.12094199843E+03  0.00000000000E+00 0.  1.
         12    1    4    4    0    0  0.27947093968E+02 -0.42519167456E+02  0.17774107890E+03  0.18488053113E+03  0.00000000000E+00 0. -1.
         -5    1    5    5    0  502 -0.46884260396E+02  0.14752460599E+02  0.11062298844E+03  0.12114167135E+03  0.47000000000E+01 0.  1.
         13    1    6    6    0    0 -0.23639738175E+01 -0.45739949012E+01  0.13081391666E+03  0.13091520383E+03  0.00000000000E+00 0. -1.
        -14    1    6    6    0    0  0.96826106586E+02 -0.37487014148E+02  0.22404009586E+03  0.24693022435E+03  0.00000000000E+00 0.  1.
</event>
<event>
12    1  0.1030140E-001  0.1968253E+03  0.7818608E-02  0.1152663E+00
         21   -1    0    0  501  502  0.00000000000E+00  0.00000000000E+00  0.83624184491E+02  0.83624184491E+02  0.00000000000E+00 0.  1.
         21   -1    0    0  502  503 -0.00000000000E+00 -0.00000000000E+00 -0.92389877742E+03  0.92389877742E+03  0.00000000000E+00 0.  1.
         -6    2    1    2    0  503 -0.47173753362E+02 -0.81451014375E+02 -0.77729364044E+03  0.80182642421E+03  0.17286000215E+03 0.  0.
        -24    2    3    3    0    0 -0.96358247349E+02 -0.53603031117E+02 -0.61098950374E+03  0.62611706047E+03  0.80970383234E+02 0.  0.
          6    2    1    2  501    0  0.47173753362E+02  0.81451014375E+02 -0.62980952492E+02  0.20569653770E+03  0.17171148621E+03 0.  0.
         24    2    5    5    0    0  0.34498317036E+02  0.11257885834E+03 -0.82967878715E+02  0.16631155864E+03  0.83136829476E+02 0.  0.
          5    1    5    5  501    0  0.12675436325E+02 -0.31127843966E+02  0.19986926223E+02  0.39384979064E+02  0.47000000000E+01 0. -1.
        -13    1    6    6    0    0  0.43509106956E+02  0.62373900380E+02 -0.91682779703E+01  0.76600281708E+02  0.00000000000E+00 0.  1.
         14    1    6    6    0    0 -0.90107899203E+01  0.50204957961E+02 -0.73799600744E+02  0.89711276933E+02  0.00000000000E+00 0. -1.
         -5    1    3    3    0  503  0.49184493988E+02 -0.27847983258E+02 -0.16630413670E+03  0.17570936374E+03  0.47000000000E+01 0.  1.
         13    1    4    4    0    0 -0.35579211480E+02 -0.64616071106E+02 -0.37439338598E+03  0.38159078133E+03  0.00000000000E+00 0. -1.
        -14    1    4    4    0    0 -0.60779035869E+02  0.11013039989E+02 -0.23659611776E+03  0.24452627914E+03  0.00000000000E+00 0.  1.
</event>
<event>
12    1  0.1030140E-001  0.1729340E+03  0.7818608E-02  0.1174857E+00
         21   -1    0    0  501  502  0.00000000000E+00  0.00000000000E+00  0.44550225763E+02  0.44550225763E+02  0.00000000000E+00 0. -1.
         21   -1    0    0  502  503 -0.00000000000E+00 -0.00000000000E+00 -0.67082646081E+03  0.67082646081E+03  0.00000000000E+00 0. -1.
         -6    2    1    2    0  503 -0.12557402798E+02  0.74576113533E+01 -0.30936779083E+03  0.35435436540E+03  0.17217805302E+03 0.  0.
        -24    2    3    3    0    0 -0.35887225905E+02 -0.51820070388E+02 -0.13219405532E+03  0.16601757465E+03  0.78187941205E+02 0.  0.
          6    2    1    2  501    0  0.12557402798E+02 -0.74576113533E+01 -0.31690844422E+03  0.36102232117E+03  0.17231613400E+03 0.  0.
         24    2    5    5    0    0 -0.13066062123E+02 -0.56293876019E+02 -0.22325470207E+03  0.25223511549E+03  0.10217714537E+03 0.  0.
          5    1    5    5  501    0  0.25623464921E+02  0.48836264666E+02 -0.93653742155E+02  0.10878720568E+03  0.47000000000E+01 0. -1.
        -11    1    6    6    0    0 -0.29857360490E+02 -0.43510354344E+02 -0.36197413579E+02  0.63991137358E+02  0.00000000000E+00 0.  1.
         12    1    6    6    0    0  0.16791298367E+02 -0.12783521675E+02 -0.18705728849E+03  0.18824397813E+03  0.00000000000E+00 0. -1.
         -5    1    3    3    0  503  0.23329823107E+02  0.59277681742E+02 -0.17717373550E+03  0.18833679075E+03  0.47000000000E+01 0.  1.
         13    1    4    4    0    0 -0.60392121397E+02 -0.43149039317E+02 -0.93006518715E+02  0.11899269072E+03  0.00000000000E+00 0. -1.
        -14    1    4    4    0    0  0.24504895492E+02 -0.86710310711E+01 -0.39187536610E+02  0.47024883928E+02  0.00000000000E+00 0.  1.
</event>
<event>
12    1  0.1030140E-001  0.1825547E+03  0.7818608E-02  0.1165535E+00
         21   -1    0    0  503  502  0.00000000000E+00  0.00000000000E+00  0.24867711035E+03  0.24867711035E+03  0.00000000000E+00 0.  1.
         21   -1    0    0  501  503 -0.00000000000E+00 -0.00000000000E+00 -0.38306681802E+03  0.38306681802E+03  0.00000000000E+00 0.  1.
          6    2    1    2  501    0 -0.54289697015E+02 -0.26681773063E+02 -0.32212661048E+03  0.36988257701E+03  0.17143010056E+03 0.  0.
         24    2    3    3    0    0 -0.99830893648E+02  0.11269440515E+01 -0.22389932563E+03  0.25799864238E+03  0.80404689685E+02 0.  0.
         -6    2    1    2    0  502  0.54289697015E+02  0.26681773063E+02  0.18773690281E+03  0.26186135137E+03  0.17224091978E+03 0.  0.
        -24    2    5    5    0    0 -0.18179890260E+02  0.26273859853E+02  0.32559525494E+02  0.90530922358E+02  0.78197832969E+02 0.  0.
          5    1    3    3  501    0  0.45541196634E+02 -0.27808717115E+02 -0.98227284854E+02  0.11188393463E+03  0.47000000000E+01 0. -1.
        -13    1    4    4    0    0 -0.45439865646E+02  0.35761783126E+02 -0.67826423757E+02  0.89129738483E+02  0.00000000000E+00 0.  1.
         14    1    4    4    0    0 -0.54391028002E+02 -0.34634839075E+02 -0.15607290187E+03  0.16886890390E+03  0.00000000000E+00 0. -1.
         -5    1    5    5    0  502  0.72469587274E+02  0.40791321070E+00  0.15517737732E+03  0.17133042901E+03  0.47000000000E+01 0.  1.
         13    1    6    6    0    0  0.23030315340E+02  0.48002284406E+01 -0.11772885372E+02  0.26306623647E+02  0.00000000000E+00 0. -1.
        -14    1    6    6    0    0 -0.41210205600E+02  0.21473631412E+02  0.44332410867E+02  0.64224298710E+02  0.00000000000E+00 0.  1.
</event>
<event>
12    1  0.1030140E-001  0.3136191E+03  0.7818608E-02  0.1078800E+00
         21   -1    0    0  501  502  0.00000000000E+00  0.00000000000E+00  0.12690916606E+03  0.12690916606E+03  0.00000000000E+00 0.  1.
         21   -1    0    0  502  503 -0.00000000000E+00 -0.00000000000E+00 -0.85171242201E+03  0.85171242201E+03  0.00000000000E+00 0. -1.
         -6    2    1    2    0  503 -0.19064285587E+03 -0.18018621341E+03 -0.51192276611E+03  0.59957669722E+03  0.16916124673E+03 0.  0.
        -24    2    3    3    0    0 -0.66128577796E+02 -0.10342155783E+03 -0.36004836520E+03  0.38866310960E+03  0.79719383216E+02 0.  0.
          6    2    1    2  501    0  0.19064285587E+03  0.18018621341E+03 -0.21288048984E+03  0.37904489085E+03  0.17188704526E+03 0.  0.
         24    2    5    5    0    0  0.75207020747E+02  0.13800424417E+03 -0.66842595582E+02  0.18811582780E+03  0.78856608504E+02 0.  0.
          5    1    5    5  501    0  0.11543583512E+03  0.42181969235E+02 -0.14603789425E+03  0.19092906305E+03  0.47000000000E+01 0. -1.
        -11    1    6    6    0    0  0.37858649821E+02  0.13229594854E+03 -0.46801118655E+02  0.14534730845E+03  0.00000000000E+00 0.  1.
         12    1    6    6    0    0  0.37348370926E+02  0.57082956339E+01 -0.20041476927E+02  0.42768519349E+02  0.00000000000E+00 0. -1.
         -5    1    3    3    0  503 -0.12451427807E+03 -0.76764655576E+02 -0.15187440092E+03  0.21091358762E+03  0.47000000000E+01 0.  1.
         11    1    4    4    0    0 -0.66834265779E+02 -0.30677637558E+02 -0.17441345663E+03  0.18928283171E+03  0.00000000000E+00 0. -1.
        -12    1    4    4    0    0  0.70568798352E+00 -0.72743920276E+02 -0.18563490857E+03  0.19938027789E+03  0.00000000000E+00 0.  1.
</event>
<event>
12    1  0.1030140E-001  0.2395464E+03  0.7818608E-02  0.1120136E+00
         21   -1    0    0  501  502  0.00000000000E+00  0.00000000000E+00  0.93287680855E+02  0.93287680855E+02  0.00000000000E+00 0. -1.
         21   -1    0    0  502  503 -0.00000000000E+00 -0.00000000000E+00 -0.23261739673E+04  0.23261739673E+04  0.00000000000E+00 0. -1.
         -6    2    1    2    0  503 -0.11302425400E+03 -0.12228366178E+03 -0.21540116843E+04  0.21672639472E+04  0.17186886002E+03 0.  0.
        -24    2    3    3    0    0 -0.11270756404E+03 -0.14426958989E+03 -0.20892224935E+04  0.20986839898E+04  0.78148268697E+02 0.  0.
          6    2    1    2  501    0  0.11302425400E+03  0.12228366178E+03 -0.78874602135E+02  0.25219770089E+03  0.17220540509E+03 0.  0.
         24    2    5    5    0    0  0.14618167397E+03  0.10293687489E+03 -0.46234163147E+02  0.20158939209E+03  0.80843077294E+02 0.  0.
          5    1    5    5  501    0 -0.33157419967E+02  0.19346786890E+02 -0.32640438988E+02  0.50608308796E+02  0.47000000000E+01 0. -1.
        -11    1    6    6    0    0  0.71070713334E+02  0.41567356474E+02 -0.62333235982E+02  0.10326821256E+03  0.00000000000E+00 0.  1.
         12    1    6    6    0    0  0.75110960634E+02  0.61369518416E+02  0.16099072835E+02  0.98321179530E+02  0.00000000000E+00 0. -1.
         -5    1    3    3    0  503 -0.31668996174E+00  0.21985928113E+02 -0.64789190751E+02  0.68579957464E+02  0.47000000000E+01 0.  1.
         13    1    4    4    0    0 -0.29536498064E+02  0.29163521388E+01 -0.27203042542E+03  0.27364477371E+03  0.00000000000E+00 0. -1.
        -14    1    4    4    0    0 -0.83171065975E+02 -0.14718594203E+03 -0.18171920681E+04  0.18250392161E+04  0.00000000000E+00 0.  1.
</event>
<event>
12    1  0.1030140E-001  0.1765067E+03  0.7818608E-02  0.1171597E+00
         21   -1    0    0  501  502  0.00000000000E+00  0.00000000000E+00  0.17352913510E+02  0.17352913510E+02  0.00000000000E+00 0. -1.
         21   -1    0    0  502  503 -0.00000000000E+00 -0.00000000000E+00 -0.17812296324E+04  0.17812296324E+04  0.00000000000E+00 0. -1.
         -6    2    1    2    0  503 -0.30777819799E+02  0.12194700086E+02 -0.86510046828E+03  0.88292323661E+03  0.17337426750E+03 0.  0.
        -24    2    3    3    0    0 -0.69600396249E+02 -0.62653582513E+01 -0.36866030910E+03  0.38460317095E+03  0.84413895346E+02 0.  0.
          6    2    1    2  501    0  0.30777819799E+02 -0.12194700086E+02 -0.89877625060E+03  0.91565930929E+03  0.17186400769E+03 0.  0.
         24    2    5    5    0    0  0.29398479719E+02 -0.70602977301E+02 -0.46913128622E+03  0.48203468494E+03  0.80151249259E+02 0.  0.
          5    1    5    5  501    0  0.13793400796E+01  0.58408277214E+02 -0.42964496438E+03  0.43362462435E+03  0.47000000000E+01 0. -1.
        -11    1    6    6    0    0 -0.18040458884E+02 -0.55884352566E+02 -0.30295811769E+03  0.30859705133E+03  0.00000000000E+00 0.  1.
         12    1    6    6    0    0  0.47438938604E+02 -0.14718624735E+02 -0.16617316854E+03  0.17343763361E+03  0.00000000000E+00 0. -1.
         -5    1    3    3    0  503  0.38822576450E+02  0.18460058337E+02 -0.49644015918E+03  0.49832006566E+03  0.47000000000E+01 0.  1.
         13    1    4    4    0    0 -0.26329311773E+02  0.33272175127E+02 -0.85609028122E+02  0.95546721515E+02  0.00000000000E+00 0. -1.
        -14    1    4    4    0    0 -0.43271084476E+02 -0.39537533379E+02 -0.28305128098E+03  0.28905644943E+03  0.00000000000E+00 0.  1.
</event>
<event>
12    1  0.1030140E-001  0.1902225E+03  0.7818608E-02  0.1159112E+00
         21   -1    0    0  503  502  0.00000000000E+00  0.00000000000E+00  0.50119035472E+02  0.50119035472E+02  0.00000000000E+00 0.  1.
         21   -1    0    0  501  503 -0.00000000000E+00 -0.00000000000E+00 -0.87693055974E+03  0.87693055974E+03  0.00000000000E+00 0.  1.
          6    2    1    2  501    0 -0.72802024893E+02  0.24937900236E+02 -0.62024188504E+03  0.64875618050E+03  0.17396135228E+03 0.  0.
         24    2    3    3    0    0 -0.44393562796E+02 -0.51177429675E+02 -0.27801991350E+03  0.29699127041E+03  0.79491035171E+02 0.  0.
         -6    2    1    2    0  502  0.72802024893E+02 -0.24937900236E+02 -0.20656963923E+03  0.27829341471E+03  0.16986516748E+03 0.  0.
        -24    2    5    5    0    0 -0.21623060222E+02 -0.35366720314E+02 -0.84660356742E+02  0.12366864262E+03  0.80051205643E+02 0.  0.
          5    1    3    3  501    0 -0.28408462097E+02  0.76115329911E+02 -0.34222197154E+03  0.35176491009E+03  0.47000000000E+01 0. -1.
        -11    1    4    4    0    0 -0.22470420032E+02  0.39510833812E+01 -0.18671878398E+03  0.18810750949E+03  0.00000000000E+00 0.  1.
         12    1    4    4    0    0 -0.21923142764E+02 -0.55128513057E+02 -0.91301129521E+02  0.10888376092E+03  0.00000000000E+00 0. -1.
         -5    1    5    5    0  502  0.94425085115E+02  0.10428820078E+02 -0.12190928249E+03  0.15462477209E+03  0.47000000000E+01 0.  1.
         11    1    6    6    0    0 -0.31846341377E+02  0.67154667919E+01 -0.49048333788E+01  0.32914196691E+02  0.00000000000E+00 0. -1.
        -12    1    6    6    0    0  0.10223281155E+02 -0.42082187106E+02 -0.79755523363E+02  0.90754445930E+02  0.00000000000E+00 0.  1.
</event>
<event>
12    1  0.1030140E-001  0.1739502E+03  0.7818608E-02  0.1174176E+00
         21   -1    0    0  501  502  0.00000000000E+00  0.00000000000E+00  0.59032393523E+02  0.59032393523E+02  0.00000000000E+00 0.  1.
         21   -1    0    0  502  503 -0.00000000000E+00 -0.00000000000E+00 -0.54399386074E+03  0.54399386074E+03  0.00000000000E+00 0.  1.
         -6    2    1    2    0  503 -0.73252187366E+01 -0.22233981566E+02 -0.31892799250E+03  0.36255630347E+03  0.17083325209E+03 0.  0.
        -24    2    3    3    0    0  0.48414391660E+02  0.25828379435E+02 -0.15842214990E+03  0.18591794347E+03  0.80354499705E+02 0.  0.
          6    2    1    2  501    0  0.73252187366E+01  0.22233981566E+02 -0.16603347472E+03  0.24046995080E+03  0.17236784428E+03 0.  0.
         24    2    5    5    0    0  0.87904526990E+01  0.14271554378E+02 -0.19604439674E+03  0.20903282946E+03  0.70571729282E+02 0.  0.
          5    1    5    5  501    0 -0.14652339625E+01  0.79624271871E+01  0.30010922025E+02  0.31437121339E+02  0.47000000000E+01 0. -1.
        -13    1    6    6    0    0 -0.12150795707E+02 -0.17009872762E+02 -0.13979520303E+03  0.14134948319E+03  0.00000000000E+00 0.  1.
         14    1    6    6    0    0  0.20941248406E+02  0.31281427141E+02 -0.56249193713E+02  0.67683346269E+02  0.00000000000E+00 0. -1.
         -5    1    3    3    0  503 -0.55739610397E+02 -0.48062361001E+02 -0.16050584260E+03  0.17663836000E+03  0.47000000000E+01 0.  1.
         13    1    4    4    0    0 -0.63628484211E+00 -0.23511258164E+02 -0.67171482275E+02  0.71170163341E+02  0.00000000000E+00 0. -1.
        -14    1    4    4    0    0  0.49050676503E+02  0.49339637599E+02 -0.91250667625E+02  0.11474778013E+03  0.00000000000E+00 0.  1.
</event>
<event>
12    1  0.1030140E-001  0.1979095E+03  0.7818608E-02  0.1151522E+00
         21   -1    0    0  503  502  0.00000000000E+00  0.00000000000E+00  0.34615613311E+03  0.34615613311E+03  0.00000000000E+00 0.  1.
         21   -1    0    0  501  503 -0.00000000000E+00 -0.00000000000E+00 -0.27999685748E+03  0.27999685748E+03  0.00000000000E+00 0.  1.
          6    2    1    2  501    0 -0.62694029826E+02  0.71608576800E+02 -0.20860917337E+03  0.28752949017E+03  0.17348513151E+03 0.  0.
         24    2    3    3    0    0 -0.57040869937E+02  0.76175670747E+01 -0.19833975207E+03  0.22230404609E+03  0.82272373746E+02 0.  0.
         -6    2    1    2    0  502  0.62694029826E+02 -0.71608576800E+02  0.27476844900E+03  0.33862350042E+03  0.17352188572E+03 0.  0.
        -24    2    5    5    0    0 -0.36408007857E+01  0.25528589208E+02  0.99716935413E+02  0.12767075409E+03  0.75441301326E+02 0.  0.
          5    1    3    3  501    0 -0.56531598883E+01  0.63991009725E+02 -0.10269421296E+02  0.65225444085E+02  0.47000000000E+01 0. -1.
        -11    1    4    4    0    0 -0.41723892491E+02  0.35409566718E+02 -0.17373353725E+03  0.18214846304E+03  0.00000000000E+00 0.  1.
         12    1    4    4    0    0 -0.15316977446E+02 -0.27791999643E+02 -0.24606214820E+02  0.40155583049E+02  0.00000000000E+00 0. -1.
         -5    1    5    5    0  502  0.66334830611E+02 -0.97137166007E+02  0.17505151359E+03  0.21095274633E+03  0.47000000000E+01 0.  1.
         11    1    6    6    0    0 -0.29325151691E+02  0.18232456812E+01  0.94352943520E+01  0.30859577541E+02  0.00000000000E+00 0. -1.
        -12    1    6    6    0    0  0.25684350905E+02  0.23705343526E+02  0.90281641061E+02  0.96811176554E+02  0.00000000000E+00 0.  1.
</event>
<event>
12    1  0.1030140E-001  0.1842260E+03  0.7818608E-02  0.1163973E+00
         21   -1    0    0  503  502  0.00000000000E+00  0.00000000000E+00  0.70202814106E+03  0.70202814106E+03  0.00000000000E+00 0. -1.
         21   -1    0    0  501  503 -0.00000000000E+00 -0.00000000000E+00 -0.20173176921E+03  0.20173176921E+03  0.00000000000E+00 0. -1.
          6    2    1    2  501    0  0.65116219414E+02 -0.66225295439E+01 -0.14430328716E+03  0.23335113554E+03  0.17130479807E+03 0.  0.
         24    2    3    3    0    0 -0.33889184343E+02 -0.22480207858E+02 -0.75903693250E+02  0.11188455420E+03  0.71434909242E+02 0.  0.
         -6    2    1    2    0  502 -0.65116219414E+02  0.66225295439E+01  0.64459965901E+03  0.67040877473E+03  0.17220692472E+03 0.  0.
        -24    2    5    5    0    0 -0.57730643256E+02  0.59806933535E+02  0.54674689812E+03  0.55869315194E+03  0.79348414925E+02 0.  0.
          5    1    3    3  501    0  0.99005403758E+02  0.15857678314E+02 -0.68399593911E+02  0.12146658134E+03  0.47000000000E+01 0. -1.
        -11    1    4    4    0    0 -0.39770822110E+02  0.73042821532E+01 -0.70171710959E+02  0.80988516766E+02  0.00000000000E+00 0.  1.
         12    1    4    4    0    0  0.58816377661E+01 -0.29784490012E+02 -0.57319822911E+01  0.30896037433E+02  0.00000000000E+00 0. -1.
         -5    1    5    5    0  502 -0.73855761583E+01 -0.53184403991E+02  0.97852760885E+02  0.11171562279E+03  0.47000000000E+01 0.  1.
         11    1    6    6    0    0 -0.11528905674E+02  0.33737116318E+02  0.41698207256E+03  0.41850347373E+03  0.00000000000E+00 0. -1.
        -12    1    6    6    0    0 -0.46201737582E+02  0.26069817217E+02  0.12976482556E+03  0.14018967821E+03  0.00000000000E+00 0.  1.
</event>
<event>
12    1  0.1030140E-001  0.2189869E+03  0.7818608E-02  0.1137078E+00
         21   -1    0    0  503  502  0.00000000000E+00  0.00000000000E+00  0.14093165325E+04  0.14093165325E+04  0.00000000000E+00 0.  1.
         21   -1    0    0  501  503 -0.00000000000E+00 -0.00000000000E+00 -0.79893215688E+02  0.79893215688E+02  0.00000000000E+00 0.  1.
          6    2    1    2  501    0  0.10879984722E+03  0.78515197399E+02  0.96802336412E+02  0.23942835082E+03  0.17306992767E+03 0.  0.
         24    2    3    3    0    0  0.12774776578E+03  0.36853799571E+02  0.11125874600E+03  0.19120207723E+03  0.80635175746E+02 0.  0.
         -6    2    1    2    0  502 -0.10879984722E+03 -0.78515197399E+02  0.12326209804E+04  0.12497813973E+04  0.15683436134E+03 0.  0.
        -24    2    5    5    0    0 -0.97342328786E+01 -0.68161392605E+02  0.56583946946E+03  0.57558493449E+03  0.79893559710E+02 0.  0.
          5    1    3    3  501    0 -0.18947918561E+02  0.41661397828E+02 -0.14456409592E+02  0.48226273597E+02  0.47000000000E+01 0. -1.
        -13    1    4    4    0    0  0.91478936125E+02  0.60747089546E+02  0.64362984574E+02  0.12728392839E+03  0.00000000000E+00 0.  1.
         14    1    4    4    0    0  0.36268829660E+02 -0.23893289975E+02  0.46895761431E+02  0.63918148838E+02  0.00000000000E+00 0. -1.
         -5    1    5    5    0  502 -0.99065614345E+02 -0.10353804794E+02  0.66678151089E+03  0.67419646283E+03  0.47000000000E+01 0.  1.
         11    1    6    6    0    0  0.13490580793E+02 -0.16712833003E+02  0.39657541117E+03  0.39715660803E+03  0.00000000000E+00 0. -1.
        -12    1    6    6    0    0 -0.23224813672E+02 -0.51448559602E+02  0.16926405830E+03  0.17842832647E+03  0.00000000000E+00 0.  1.
</event>
<event>
12    1  0.1030140E-001  0.2192785E+03  0.7818608E-02  0.1135765E+00
         21   -1    0    0  501  502  0.00000000000E+00  0.00000000000E+00  0.77073778161E+02  0.77073778161E+02  0.00000000000E+00 0.  1.
         21   -1    0    0  502  503 -0.00000000000E+00 -0.00000000000E+00 -0.12808724700E+04  0.12808724700E+04  0.00000000000E+00 0.  1.
         -6    2    1    2    0  503 -0.37195516354E+02 -0.13029592993E+03 -0.11000973003E+04  0.11217384498E+04  0.17240227343E+03 0.  0.
        -24    2    3    3    0    0 -0.56972446113E+02 -0.12593033956E+03 -0.58327708509E+03  0.60450019700E+03  0.78128228859E+02 0.  0.
          6    2    1    2  501    0  0.37195516354E+02  0.13029592993E+03 -0.10370139159E+03  0.23620779839E+03  0.16333894089E+03 0.  0.
         24    2    5    5    0    0  0.80676373751E+02  0.12056112168E+03 -0.68456081258E+02  0.17920189210E+03  0.79896318620E+02 0.  0.
          5    1    5    5  501    0 -0.43480857397E+02  0.97348082490E+01 -0.35245310332E+02  0.57005906291E+02  0.47000000000E+01 0. -1.
        -13    1    6    6    0    0  0.25602710304E+02  0.48746429970E+02  0.13953731837E+02  0.56801583094E+02  0.00000000000E+00 0.  1.
         14    1    6    6    0    0  0.55073663447E+02  0.71814691710E+02 -0.82409813094E+02  0.12240030901E+03  0.00000000000E+00 0. -1.
         -5    1    3    3    0  503  0.19776929759E+02 -0.43655903671E+01 -0.51682021519E+03  0.51723825280E+03  0.47000000000E+01 0.  1.
         11    1    4    4    0    0 -0.58874855210E+02 -0.11642881122E+03 -0.57965316787E+03  0.59415461933E+03  0.00000000000E+00 0. -1.
        -12    1    4    4    0    0  0.19024090974E+01 -0.95015283452E+01 -0.36239172264E+01  0.10345577670E+02  0.00000000000E+00 0.  1.
</event>
<event>
12    1  0.1030140E-001  0.2127149E+03  0.7818608E-02  0.1140440E+00
         21   -1    0    0  501  502  0.00000000000E+00  0.00000000000E+00  0.25673448426E+02  0.25673448426E+02  0.00000000000E+00 0.  1.
         21   -1    0    0  502  503 -0.00000000000E+00 -0.00000000000E+00 -0.18795840250E+04  0.18795840250E+04  0.00000000000E+00 0.  1.
         -6    2    1    2    0  503 -0.91102312140E+02  0.77696046489E+02 -0.66006758516E+03  0.69349610188E+03  0.17581615235E+03 0.  0.
        -24    2    3    3    0    0 -0.10809056700E+02  0.10119271390E+03 -0.41209079477E+03  0.43174492458E+03  0.78918031587E+02 0.  0.
          6    2    1    2  501    0  0.91102312140E+02 -0.77696046489E+02 -0.11938429915E+04  0.12117613716E+04  0.16961198810E+03 0.  0.
         24    2    5    5    0    0  0.67172558448E+02 -0.59787557313E+02 -0.11613307702E+04  0.11673487425E+04  0.76988467036E+02 0.  0.
          5    1    5    5  501    0  0.23929753691E+02 -0.17908489176E+02 -0.32512221249E+02  0.44412629137E+02  0.47000000000E+01 0. -1.
        -11    1    6    6    0    0  0.65020195698E+02 -0.18859800694E+02 -0.47559904184E+03  0.48039334564E+03  0.00000000000E+00 0.  1.
         12    1    6    6    0    0  0.21523627497E+01 -0.40927756619E+02 -0.68573172837E+03  0.68695539682E+03  0.00000000000E+00 0. -1.
         -5    1    3    3    0  503 -0.80293255440E+02 -0.23496667408E+02 -0.24797679038E+03  0.26175117730E+03  0.47000000000E+01 0.  1.
         13    1    4    4    0    0  0.28578472081E+02  0.17329321431E+02 -0.15237404004E+03  0.15599641831E+03  0.00000000000E+00 0. -1.
        -14    1    4    4    0    0 -0.39387528781E+02  0.83863392466E+02 -0.25971675474E+03  0.27574850627E+03  0.00000000000E+00 0.  1.
</event>
<event>
12    1  0.1030140E-001  0.3078764E+03  0.7818608E-02  0.1081633E+00
         21   -1    0    0  501  502  0.00000000000E+00  0.00000000000E+00  0.25398438531E+03  0.25398438531E+03  0.00000000000E+00 0.  1.
         21   -1    0    0  502  503 -0.00000000000E+00 -0.00000000000E+00 -0.41798043053E+03  0.41798043053E+03  0.00000000000E+00 0. -1.
         -6    2    1    2    0  503  0.20744919539E+03  0.15009575603E+03  0.30911198871E+02  0.30942429216E+03  0.17095024339E+03 0.  0.
        -24    2    3    3    0    0  0.21134673161E+03  0.15565169155E+03 -0.37477519979E+01  0.27379576309E+03  0.77815064070E+02 0.  0.
          6    2    1    2  501    0 -0.20744919539E+03 -0.15009575603E+03 -0.19490724408E+03  0.36254052368E+03  0.16698171418E+03 0.  0.
         24    2    5    5    0    0 -0.12317320431E+03 -0.16384024231E+03 -0.12905550077E+03  0.25460584124E+03  0.78444559132E+02 0.  0.
          5    1    5    5  501    0 -0.84275991079E+02  0.13744486279E+02 -0.65851743316E+02  0.10793468244E+03  0.47000000000E+01 0. -1.
        -11    1    6    6    0    0 -0.10210098992E+03 -0.78235383195E+02 -0.95791246627E+02  0.16037877121E+03  0.00000000000E+00 0.  1.
         12    1    6    6    0    0 -0.21072214396E+02 -0.85604859111E+02 -0.33264254140E+02  0.94227070031E+02  0.00000000000E+00 0. -1.
         -5    1    3    3    0  503 -0.38975362178E+01 -0.55559355247E+01  0.34658950869E+02  0.35628529067E+02  0.47000000000E+01 0.  1.
         11    1    4    4    0    0  0.89510109790E+02  0.91578447797E+02  0.31134076304E+02  0.13178771780E+03  0.00000000000E+00 0. -1.
        -12    1    4    4    0    0  0.12183662182E+03  0.64073243755E+02 -0.34881828302E+02  0.14200804529E+03  0.00000000000E+00 0.  1.
</event>
<event>
12    1  0.1030140E-001  0.1993159E+03  0.7818608E-02  0.1150337E+00
         21   -1    0    0  503  502  0.00000000000E+00  0.00000000000E+00  0.11412021648E+03  0.11412021648E+03  0.00000000000E+00 0. -1.
         21   -1    0    0  501  503 -0.00000000000E+00 -0.00000000000E+00 -0.50983565774E+03  0.50983565774E+03  0.00000000000E+00 0.  1.
          6    2    1    2  501    0  0.86969896609E+02 -0.49045024011E+02 -0.37362150031E+03  0.42341912972E+03  0.17239941016E+03 0.  0.
         24    2    3    3    0    0  0.11281863348E+03 -0.59346220280E+01 -0.20595208479E+03  0.24831405596E+03  0.80500592288E+02 0.  0.
         -6    2    1    2    0  502 -0.86969896609E+02  0.49045024011E+02 -0.22093940948E+02  0.20053674450E+03  0.17250410537E+03 0.  0.
        -24    2    5    5    0    0 -0.12494085760E+03  0.49413456336E+02 -0.66162724252E+01  0.15926232332E+03  0.85257287104E+02 0.  0.
          5    1    3    3  501    0 -0.25848736870E+02 -0.43110401983E+02 -0.16766941552E+03  0.17510507376E+03  0.47000000000E+01 0. -1.
        -13    1    4    4    0    0  0.71538508673E+02 -0.29013420302E+02 -0.17638459473E+03  0.19253846899E+03  0.00000000000E+00 0.  1.
         14    1    4    4    0    0  0.41280124806E+02  0.23078798275E+02 -0.29567490057E+02  0.55775586972E+02  0.00000000000E+00 0. -1.
         -5    1    5    5    0  502  0.37970960988E+02 -0.36843232431E+00 -0.15477668523E+02  0.41274421178E+02  0.47000000000E+01 0.  1.
         11    1    6    6    0    0  0.48621089563E+01  0.14109950507E+01  0.17997507898E+02  0.18696023670E+02  0.00000000000E+00 0. -1.
        -12    1    6    6    0    0 -0.12980296655E+03  0.48002461285E+02 -0.24613780323E+02  0.14056629965E+03  0.00000000000E+00 0.  1.
</event>
<event>
12    1  0.1030140E-001  0.1809006E+03  0.7818608E-02  0.1167682E+00
         21   -1    0    0  501  502  0.00000000000E+00  0.00000000000E+00  0.10809844093E+04  0.10809844093E+04  0.00000000000E+00 0.  1.
         21   -1    0    0  502  503 -0.00000000000E+00 -0.00000000000E+00 -0.98865865601E+02  0.98865865601E+02  0.00000000000E+00 0.  1.
         -6    2    1    2    0  503 -0.49429664097E+02 -0.88511174432E+01 -0.34146913563E+01  0.17785187931E+03  0.17058134976E+03 0.  0.
        -24    2    3    3    0    0  0.28686009895E+01 -0.52043275501E+02 -0.40749591172E+02  0.10028477421E+03  0.75364284393E+02 0.  0.
          6    2    1    2  501    0  0.49429664097E+02  0.88511174432E+01  0.98553323508E+03  0.10019983956E+04  0.17379123509E+03 0.  0.
         24    2    5    5    0    0  0.51279220832E+02  0.69913476760E+02  0.70409065270E+03  0.71396358910E+03  0.80516499068E+02 0.  0.
          5    1    5    5  501    0 -0.18495567345E+01 -0.61062359317E+02  0.28144258238E+03  0.28803480651E+03  0.47000000000E+01 0. -1.
        -13    1    6    6    0    0  0.44151125291E+02 -0.20050593880E+01  0.33100101345E+03  0.33393863663E+03  0.00000000000E+00 0.  1.
         14    1    6    6    0    0  0.71280955413E+01  0.71918536148E+02  0.37308963925E+03  0.38002495247E+03  0.00000000000E+00 0. -1.
         -5    1    3    3    0  503 -0.52298265087E+02  0.43192158058E+02  0.37334899815E+02  0.77567105096E+02  0.47000000000E+01 0.  1.
         13    1    4    4    0    0  0.24178641849E+02  0.94604830329E+01 -0.16813949879E+02  0.30932448519E+02  0.00000000000E+00 0. -1.
        -14    1    4    4    0    0 -0.21310040859E+02 -0.61503758534E+02 -0.23935641293E+02  0.69352325695E+02  0.00000000000E+00 0.  1.
</event>
<event>
12    1  0.1030140E-001  0.2072880E+03  0.7818608E-02  0.1147166E+00
         21   -1    0    0  503  502  0.00000000000E+00  0.00000000000E+00  0.13699862530E+03  0.13699862530E+03  0.00000000000E+00 0. -1.
         21   -1    0    0  501  503 -0.00000000000E+00 -0.00000000000E+00 -0.29105677290E+03  0.29105677290E+03  0.00000000000E+00 0. -1.
          6    2    1    2  501    0  0.36625021359E+02 -0.10755453267E+03 -0.89900515553E+02  0.21106569748E+03  0.15348373292E+03 0.  0.
         24    2    3    3    0    0  0.72091802996E+02 -0.86925696120E+02 -0.97430965003E+02  0.16908666503E+03  0.79650503099E+02 0.  0.
         -6    2    1    2    0  502 -0.36625021359E+02  0.10755453267E+03 -0.64157632051E+02  0.21698970071E+03  0.17337519655E+03 0.  0.
        -24    2    5    5    0    0  0.28111675060E+02  0.87809503605E+02 -0.76381969115E+02  0.14805327745E+03  0.87090714538E+02 0.  0.
          5    1    3    3  501    0 -0.35466781637E+02 -0.20628836546E+02  0.75304494499E+01  0.41979032455E+02  0.47000000000E+01 0. -1.
        -11    1    4    4    0    0  0.12730972265E+02  0.12389710401E+02 -0.30835868547E+02  0.35586983121E+02  0.00000000000E+00 0.  1.
         12    1    4    4    0    0  0.59360830731E+02 -0.99315406520E+02 -0.66595096457E+02  0.13349968191E+03  0.00000000000E+00 0. -1.
         -5    1    5    5    0  502 -0.64736696419E+02  0.19745029061E+02  0.12224337064E+02  0.68936423264E+02  0.47000000000E+01 0.  1.
         11    1    6    6    0    0  0.22736990887E+02  0.79044589759E+02 -0.12315015832E+02  0.83166565034E+02  0.00000000000E+00 0. -1.
        -12    1    6    6    0    0  0.53746841734E+01  0.87649138463E+01 -0.64066953283E+02  0.64886712412E+02  0.00000000000E+00 0.  1.
</event>
<event>
12    1  0.1030140E-001  0.1803468E+03  0.7818608E-02  0.1168104E+00
         21   -1    0    0  501  502  0.00000000000E+00  0.00000000000E+00  0.17725588508E+03  0.17725588508E+03  0.00000000000E+00 0.  1.
         21   -1    0    0  502  503 -0.00000000000E+00 -0.00000000000E+00 -0.20806356304E+03  0.20806356304E+03  0.00000000000E+00 0.  1.
         -6    2    1    2    0  503 -0.43808842708E+02  0.18045730543E+02 -0.84991516877E+02  0.19700889627E+03  0.17130115054E+03 0.  0.
        -24    2    3    3    0    0  0.79476660901E+01  0.24208403868E+02 -0.11110673358E+03  0.13852121133E+03  0.78703287900E+02 0.  0.
          6    2    1    2  501    0  0.43808842708E+02 -0.18045730543E+02  0.54183838923E+02  0.18831055186E+03  0.17401181698E+03 0.  0.
         24    2    5    5    0    0  0.50683877005E+02 -0.32767503608E+02 -0.28217435306E+02  0.10419125150E+03  0.80106357751E+02 0.  0.
          5    1    5    5  501    0 -0.68750342964E+01  0.14721773065E+02  0.82401274229E+02  0.84119300362E+02  0.47000000000E+01 0. -1.
        -13    1    6    6    0    0  0.43492798511E+02  0.16904332616E+02 -0.10066393253E+00  0.46662512970E+02  0.00000000000E+00 0.  1.
         14    1    6    6    0    0  0.71910784942E+01 -0.49671836225E+02 -0.28116771373E+02  0.57528738525E+02  0.00000000000E+00 0. -1.
         -5    1    3    3    0  503 -0.51756508799E+02 -0.61626733244E+01  0.26115216708E+02  0.58487684936E+02  0.47000000000E+01 0.  1.
         13    1    4    4    0    0 -0.11850123764E+02  0.48508518357E+02 -0.55256525189E+02  0.74476743769E+02  0.00000000000E+00 0. -1.
        -14    1    4    4    0    0  0.19797789854E+02 -0.24300114490E+02 -0.55850208396E+02  0.64044467561E+02  0.00000000000E+00 0.  1.
</event>
<event>
12    1  0.1030140E-001  0.1886830E+03  0.7818608E-02  0.1159743E+00
         21   -1    0    0  501  502  0.00000000000E+00  0.00000000000E+00  0.11564596018E+03  0.11564596018E+03  0.00000000000E+00 0. -1.
         21   -1    0    0  502  503 -0.00000000000E+00 -0.00000000000E+00 -0.57258830558E+03  0.57258830558E+03  0.00000000000E+00 0.  1.
         -6    2    1    2    0  503  0.76538538094E+02  0.74295856694E+00 -0.46261288323E+03  0.49946604206E+03  0.17203763436E+03 0.  0.
        -24    2    3    3    0    0  0.59225429833E+02 -0.63548837165E+02 -0.24222405742E+03  0.26919119919E+03  0.79027219894E+02 0.  0.
          6    2    1    2  501    0 -0.76538538094E+02 -0.74295856694E+00  0.56705378331E+01  0.18876822370E+03  0.17246039394E+03 0.  0.
         24    2    5    5    0    0  0.89192743650E+01 -0.38227891673E+02  0.23521938745E+02  0.93642409981E+02  0.81698801630E+02 0.  0.
          5    1    5    5  501    0 -0.85457812459E+02  0.37484933106E+02 -0.17851400912E+02  0.95125813714E+02  0.47000000000E+01 0. -1.
        -13    1    6    6    0    0  0.19061869341E+02  0.22258104518E+02  0.80497022961E+01  0.30390389707E+02  0.00000000000E+00 0.  1.
         14    1    6    6    0    0 -0.10142594976E+02 -0.60485996191E+02  0.15472236449E+02  0.63252020274E+02  0.00000000000E+00 0. -1.
         -5    1    3    3    0  503  0.17313108261E+02  0.64291795732E+02 -0.22038882582E+03  0.23027484287E+03  0.47000000000E+01 0.  1.
         13    1    4    4    0    0 -0.70829670993E+00 -0.35277756824E+01  0.59327884372E+01  0.69386500225E+01  0.00000000000E+00 0. -1.
        -14    1    4    4    0    0  0.59933726543E+02 -0.60021061482E+02 -0.24815684585E+03  0.26225254916E+03  0.00000000000E+00 0.  1.
</event>
<event>
12    1  0.1030140E-001  0.1796557E+03  0.7818608E-02  0.1168184E+00
         21   -1    0    0  501  502  0.00000000000E+00  0.00000000000E+00  0.57570504070E+02  0.57570504070E+02  0.00000000000E+00 0. -1.
         21   -1    0    0  502  503 -0.00000000000E+00 -0.00000000000E+00 -0.80933255504E+03  0.80933255504E+03  0.00000000000E+00 0. -1.
         -6    2    1    2    0  503 -0.14372015019E+02  0.49833083586E+02 -0.61631009835E+03  0.64190657643E+03  0.17180228317E+03 0.  0.
        -24    2    3    3    0    0  0.53872074947E+02  0.11150563764E+02 -0.42879234219E+03  0.43858763479E+03  0.73957454926E+02 0.  0.
          6    2    1    2  501    0  0.14372015019E+02 -0.49833083586E+02 -0.13545195262E+03  0.22499648268E+03  0.17200667055E+03 0.  0.
         24    2    5    5    0    0  0.54769640782E+02 -0.65187773242E+02 -0.45304215859E+02  0.12491432091E+03  0.79384861662E+02 0.  0.
          5    1    5    5  501    0 -0.40397625764E+02  0.15354689655E+02 -0.90147736761E+02  0.10008216177E+03  0.47000000000E+01 0. -1.
        -11    1    6    6    0    0  0.10229377756E+02  0.18025032277E+02 -0.15688468395E+02  0.25993653042E+02  0.00000000000E+00 0.  1.
         12    1    6    6    0    0  0.44540263027E+02 -0.83212805519E+02 -0.29615747464E+02  0.98920667864E+02  0.00000000000E+00 0. -1.
         -5    1    3    3    0  503 -0.68244089965E+02  0.38682519822E+02 -0.18751775616E+03  0.20331894164E+03  0.47000000000E+01 0.  1.
         11    1    4    4    0    0  0.38892497850E+02  0.33523859580E+02 -0.15095482572E+03  0.15944853388E+03  0.00000000000E+00 0. -1.
        -12    1    4    4    0    0  0.14979577097E+02 -0.22373295816E+02 -0.27783751648E+03  0.27913910091E+03  0.00000000000E+00 0.  1.
</event>
<event>
12    1  0.1030140E-001  0.1822171E+03  0.7818608E-02  0.1166064E+00
         21   -1    0    0  503  502  0.00000000000E+00  0.00000000000E+00  0.19961720569E+03  0.19961720569E+03  0.00000000000E+00 0. -1.
         21   -1    0    0  501  503 -0.00000000000E+00 -0.00000000000E+00 -0.16894172927E+03  0.16894172927E+03  0.00000000000E+00 0. -1.
          6    2    1    2  501    0  0.23569298857E+02 -0.50103709396E+02 -0.13404130642E+02  0.18108602253E+03  0.17189119609E+03 0.  0.
         24    2    3    3    0    0 -0.38134627997E+02  0.18050252789E+01  0.22602792580E+02  0.92652545588E+02  0.81339412359E+02 0.  0.
         -6    2    1    2    0  502 -0.23569298857E+02  0.50103709396E+02  0.44079607067E+02  0.18747291243E+03  0.17360065550E+03 0.  0.
        -24    2    5    5    0    0 -0.27256161505E+02  0.88651135349E+02 -0.10529049326E+02  0.12036335754E+03  0.75990491641E+02 0.  0.
          5    1    3    3  501    0  0.61703926853E+02 -0.51908734675E+02 -0.36006923222E+02  0.88433476945E+02  0.47000000000E+01 0. -1.
        -11    1    4    4    0    0  0.69814486053E+01 -0.22687059164E+02  0.32626559481E+02  0.40347684713E+02  0.00000000000E+00 0.  1.
         12    1    4    4    0    0 -0.45116076602E+02  0.24492084443E+02 -0.10023766901E+02  0.52304860875E+02  0.00000000000E+00 0. -1.
         -5    1    5    5    0  502  0.36868626489E+01 -0.38547425953E+02  0.54608656393E+02  0.67109554885E+02  0.47000000000E+01 0.  1.
         11    1    6    6    0    0 -0.45870998980E+02  0.22804637365E+02 -0.83385138149E+01  0.51901164201E+02  0.00000000000E+00 0. -1.
        -12    1    6    6    0    0  0.18614837475E+02  0.65846497984E+02 -0.21905355110E+01  0.68462193339E+02  0.00000000000E+00 0.  1.
</event>
<event>
12    1  0.1030140E-001  0.1844492E+03  0.7818608E-02  0.1163760E+00
         21   -1    0    0  503  502  0.00000000000E+00  0.00000000000E+00  0.16506304491E+03  0.16506304491E+03  0.00000000000E+00 0. -1.
         21   -1    0    0  501  503 -0.00000000000E+00 -0.00000000000E+00 -0.31152024731E+03  0.31152024731E+03  0.00000000000E+00 0. -1.
          6    2    1    2  501    0 -0.65310767577E+02  0.45812147920E+00 -0.21233845571E+03  0.28072151038E+03  0.17161363692E+03 0.  0.
         24    2    3    3    0    0  0.22264209318E+02  0.12152157108E+02 -0.53319031312E+02  0.98745153715E+02  0.79147434218E+02 0.  0.
         -6    2    1    2    0  502  0.65310767577E+02 -0.45812147920E+00  0.65881253322E+02  0.19586178184E+03  0.17249867191E+03 0.  0.
        -24    2    5    5    0    0 -0.26896109771E+02 -0.20308008839E+02  0.12463010213E+02  0.87364201427E+02  0.79632663672E+02 0.  0.
          5    1    3    3  501    0 -0.87574976894E+02 -0.11694035629E+02 -0.15901942440E+03  0.18197635666E+03  0.47000000000E+01 0. -1.
        -11    1    4    4    0    0  0.16515887618E+02  0.30488793909E+02  0.70562430382E+01  0.35385472495E+02  0.00000000000E+00 0.  1.
         12    1    4    4    0    0  0.57483216998E+01 -0.18336636801E+02 -0.60375274350E+02  0.63359681221E+02  0.00000000000E+00 0. -1.
         -5    1    5    5    0  502  0.92206877348E+02  0.19849887360E+02  0.53418243109E+02  0.10849758041E+03  0.47000000000E+01 0.  1.
         11    1    6    6    0    0 -0.21475682285E+02  0.27092007257E+02  0.18607968838E+02  0.39261154989E+02  0.00000000000E+00 0. -1.
        -12    1    6    6    0    0 -0.54204274867E+01 -0.47400016096E+02 -0.61449586256E+01  0.48103046438E+02  0.00000000000E+00 0.  1.
</event>
<event>
12    1  0.1030140E-001  0.2026347E+03  0.7818608E-02  0.1147793E+00
         21   -1    0    0  503  502  0.00000000000E+00  0.00000000000E+00  0.30447175315E+03  0.30447175315E+03  0.00000000000E+00 0. -1.
         21   -1    0    0  501  503 -0.00000000000E+00 -0.00000000000E+00 -0.13866056993E+03  0.13866056993E+03  0.00000000000E+00 0. -1.
          6    2    1    2  501    0 -0.10478571034E+03 -0.18614592379E+02  0.42185426853E+02  0.20576306417E+03  0.17097450160E+03 0.  0.
         24    2    3    3    0    0  0.76677313054E+01 -0.30398987898E+02  0.40181771287E+01  0.86333262755E+02  0.80339242851E+02 0.  0.
         -6    2    1    2    0  502  0.10478571034E+03  0.18614592379E+02  0.12362575637E+03  0.23736925891E+03  0.17243633404E+03 0.  0.
        -24    2    5    5    0    0  0.32625626547E+02  0.50933401870E+02  0.85160012836E+01  0.97641205693E+02  0.76175060470E+02 0.  0.
          5    1    3    3  501    0 -0.11245344164E+03  0.11784395520E+02  0.38167249724E+02  0.11942980142E+03  0.47000000000E+01 0. -1.
        -13    1    4    4    0    0  0.30863917320E+02 -0.16337499060E+02  0.31997346203E+02  0.47363756522E+02  0.00000000000E+00 0.  1.
         14    1    4    4    0    0 -0.23196186014E+02 -0.14061488839E+02 -0.27979169074E+02  0.38969506233E+02  0.00000000000E+00 0. -1.
         -5    1    5    5    0  502  0.72160083792E+02 -0.32318809491E+02  0.11510975509E+03  0.13972805322E+03  0.47000000000E+01 0.  1.
         11    1    6    6    0    0  0.56225331121E+02  0.24058375282E+02  0.93412460454E+01  0.61865597536E+02  0.00000000000E+00 0. -1.
        -12    1    6    6    0    0 -0.23599704573E+02  0.26875026588E+02 -0.82524476181E+00  0.35775608157E+02  0.00000000000E+00 0.  1.
</event>
<event>
12    1  0.1030140E-001  0.1788289E+03  0.7818608E-02  0.1169017E+00
         21   -1    0    0  503  502  0.00000000000E+00  0.00000000000E+00  0.25010565276E+03  0.25010565276E+03  0.00000000000E+00 0.  1.
         21   -1    0    0  501  503 -0.00000000000E+00 -0.00000000000E+00 -0.29030506498E+03  0.29030506498E+03  0.00000000000E+00 0.  1.
          6    2    1    2  501    0  0.41801072816E+02  0.23456911386E+02 -0.22235136670E+03  0.28514787513E+03  0.17196401960E+03 0.  0.
         24    2    3    3    0    0  0.43384530875E+02 -0.41238085313E+02 -0.77023517011E+02  0.12599315848E+03  0.79742439205E+02 0.  0.
         -6    2    1    2    0  502 -0.41801072816E+02 -0.23456911386E+02  0.18215195448E+03  0.25526284261E+03  0.17228530963E+03 0.  0.
        -24    2    5    5    0    0 -0.32307455777E+02 -0.50715395522E+02  0.36893460841E+02  0.10708972192E+03  0.80568343942E+02 0.  0.
          5    1    3    3  501    0 -0.15834580590E+01  0.64694996699E+02 -0.14532784969E+03  0.15915471666E+03  0.47000000000E+01 0. -1.
        -13    1    4    4    0    0  0.46304266123E+02 -0.26557800686E+02 -0.91008883068E+02  0.10550838183E+03  0.00000000000E+00 0.  1.
         14    1    4    4    0    0 -0.29197352477E+01 -0.14680284627E+02  0.13985366056E+02  0.20484776649E+02  0.00000000000E+00 0. -1.
         -5    1    5    5    0  502 -0.94936170393E+01  0.27258484136E+02  0.14525849364E+03  0.14817312069E+03  0.47000000000E+01 0.  1.
         13    1    6    6    0    0 -0.40176232967E+02 -0.56479050197E+02  0.53685321762E+02  0.87670557082E+02  0.00000000000E+00 0. -1.
        -14    1    6    6    0    0  0.78687771898E+01  0.57636546744E+01 -0.16791860921E+02  0.19419164834E+02  0.00000000000E+00 0.  1.
</event>
<event>
12    1  0.1030140E-001  0.1797983E+03  0.7818608E-02  0.1168144E+00
         21   -1    0    0  501  502  0.00000000000E+00  0.00000000000E+00  0.68045998666E+03  0.68045998666E+03  0.00000000000E+00 0.  1.
         21   -1    0    0  502  503 -0.00000000000E+00 -0.00000000000E+00 -0.59142079969E+02  0.59142079969E+02  0.00000000000E+00 0.  1.
         -6    2    1    2    0  503  0.16252151724E+02 -0.54080234555E+02  0.14511910818E+03  0.23059055626E+03  0.17006952952E+03 0.  0.
        -24    2    3    3    0    0 -0.31087530779E+02 -0.23949743404E+02  0.17144482828E+02  0.90774653123E+02  0.80037988350E+02 0.  0.
          6    2    1    2  501    0 -0.16252151724E+02  0.54080234555E+02  0.47619879851E+03  0.50901151037E+03  0.17070037428E+03 0.  0.
         24    2    5    5    0    0 -0.26856420229E+02  0.16932035873E+02  0.45794708389E+03  0.46602716133E+03  0.80360576817E+02 0.  0.
          5    1    5    5  501    0  0.10604268505E+02  0.37148198683E+02  0.18251714625E+02  0.42984349043E+02  0.47000000000E+01 0. -1.
        -11    1    6    6    0    0  0.93524767475E+01  0.23963002951E+02  0.36678189270E+03  0.36768281323E+03  0.00000000000E+00 0.  1.
         12    1    6    6    0    0 -0.36208896977E+02 -0.70309670783E+01  0.91165191188E+02  0.98344348097E+02  0.00000000000E+00 0. -1.
         -5    1    3    3    0  503  0.47339682503E+02 -0.30130491151E+02  0.12797462535E+03  0.13981590314E+03  0.47000000000E+01 0.  1.
         11    1    4    4    0    0 -0.46762373594E+02 -0.30506715555E+02  0.35182880876E+02  0.65994048102E+02  0.00000000000E+00 0. -1.
        -12    1    4    4    0    0  0.15674842816E+02  0.65569721509E+01 -0.18038398048E+02  0.24780605021E+02  0.00000000000E+00 0.  1.
</event>
<event>
12    1  0.1030140E-001  0.2692510E+03  0.7818608E-02  0.1101891E+00
         21   -1    0    0  503  502  0.00000000000E+00  0.00000000000E+00  0.10195695671E+04  0.10195695671E+04  0.00000000000E+00 0. -1.
         21   -1    0    0  501  503 -0.00000000000E+00 -0.00000000000E+00 -0.14515855911E+03  0.14515855911E+03  0.00000000000E+00 0.  1.
          6    2    1    2  501    0 -0.27186593281E+02 -0.20505302328E+03  0.20815805076E+02  0.27005443589E+03  0.17236660754E+03 0.  0.
         24    2    3    3    0    0  0.42426637456E+02 -0.76765667595E+02 -0.15114975017E+02  0.11966574456E+03  0.79990253562E+02 0.  0.
         -6    2    1    2    0  502  0.27186593281E+02  0.20505302328E+03  0.85359520288E+03  0.89467369029E+03  0.17038306399E+03 0.  0.
        -24    2    5    5    0    0 -0.28497670815E+01  0.15363663040E+03  0.78474028857E+03  0.80352042580E+03  0.78837927441E+02 0.  0.
          5    1    3    3  501    0 -0.69613230738E+02 -0.12828735569E+03  0.35930780092E+02  0.15038869133E+03  0.47000000000E+01 0. -1.
        -11    1    4    4    0    0  0.30229099833E+02 -0.93347007889E+02 -0.12160497093E+02  0.98870319349E+02  0.00000000000E+00 0.  1.
         12    1    4    4    0    0  0.12197537624E+02  0.16581340294E+02 -0.29544779239E+01  0.20795425214E+02  0.00000000000E+00 0. -1.
         -5    1    5    5    0  502  0.30036360363E+02  0.51416392885E+02  0.68854914316E+02  0.91153264487E+02  0.47000000000E+01 0.  1.
         13    1    6    6    0    0  0.29979414884E+02  0.10392174498E+03  0.59140493408E+03  0.60121401385E+03  0.00000000000E+00 0. -1.
        -14    1    6    6    0    0 -0.32829181965E+02  0.49714885419E+02  0.19333535449E+03  0.20230641195E+03  0.00000000000E+00 0.  1.
</event>
<event>
12    1  0.1030140E-001  0.2947641E+03  0.7818608E-02  0.1087920E+00
         21   -1    0    0  503  502  0.00000000000E+00  0.00000000000E+00  0.13178420535E+03  0.13178420535E+03  0.00000000000E+00 0. -1.
         21   -1    0    0  501  503 -0.00000000000E+00 -0.00000000000E+00 -0.10991155821E+04  0.10991155821E+04  0.00000000000E+00 0. -1.
          6    2    1    2  501    0  0.11715780636E+03 -0.20810712199E+03 -0.87335884144E+03  0.92176002597E+03  0.17277544312E+03 0.  0.
         24    2    3    3    0    0  0.33863703817E+02 -0.22217918699E+02 -0.22955634926E+03  0.24648493954E+03  0.80114428085E+02 0.  0.
         -6    2    1    2    0  502 -0.11715780636E+03  0.20810712199E+03 -0.93972535286E+02  0.30913976144E+03  0.17234276574E+03 0.  0.
        -24    2    5    5    0    0 -0.14016664117E+03  0.11614176292E+03 -0.75087297699E+02  0.21236282231E+03  0.79525276701E+02 0.  0.
          5    1    3    3  501    0  0.83294102542E+02 -0.18588920329E+03 -0.64380249218E+03  0.67527508643E+03  0.47000000000E+01 0. -1.
        -11    1    4    4    0    0  0.37405717609E+02  0.13422166945E+02 -0.52515175642E+02  0.65857315069E+02  0.00000000000E+00 0.  1.
         12    1    4    4    0    0 -0.35420137920E+01 -0.35640085645E+02 -0.17704117362E+03  0.18062762447E+03  0.00000000000E+00 0. -1.
         -5    1    5    5    0  502  0.23008834812E+02  0.91965359074E+02 -0.18885237587E+02  0.96776939132E+02  0.47000000000E+01 0.  1.
         11    1    6    6    0    0 -0.10477501405E+03  0.12403023501E+03 -0.62631182986E+02  0.17402289461E+03  0.00000000000E+00 0. -1.
        -12    1    6    6    0    0 -0.35391627126E+02 -0.78884720969E+01 -0.12456114713E+02  0.38339927704E+02  0.00000000000E+00 0.  1.
</event>
<event>
12    1  0.1030140E-001  0.2049122E+03  0.7818608E-02  0.1145828E+00
         21   -1    0    0  503  502  0.00000000000E+00  0.00000000000E+00  0.82298463401E+03  0.82298463401E+03  0.00000000000E+00 0.  1.
         21   -1    0    0  501  503 -0.00000000000E+00 -0.00000000000E+00 -0.10787349293E+03  0.10787349293E+03  0.00000000000E+00 0. -1.
          6    2    1    2  501    0  0.11078627820E+03 -0.13929446918E+02  0.18720130246E+02  0.20494527483E+03  0.17083469633E+03 0.  0.
         24    2    3    3    0    0  0.69205772728E+02 -0.40169249563E+02  0.70780177369E+02  0.13318313868E+03  0.79529286002E+02 0.  0.
         -6    2    1    2    0  502 -0.11078627820E+03  0.13929446918E+02  0.69639101084E+03  0.72591285211E+03  0.17181792677E+03 0.  0.
        -24    2    5    5    0    0 -0.14282667301E+03 -0.85391559749E+01  0.59532019141E+03  0.61742863411E+03  0.79621681776E+02 0.  0.
          5    1    3    3  501    0  0.41580505468E+02  0.26239802644E+02 -0.52060047123E+02  0.71762136146E+02  0.47000000000E+01 0. -1.
        -13    1    4    4    0    0 -0.94428828021E+01  0.97176993955E+01  0.27130290606E+02  0.30325803955E+02  0.00000000000E+00 0.  1.
         14    1    4    4    0    0  0.78648655530E+02 -0.49886948958E+02  0.43649886763E+02  0.10285733473E+03  0.00000000000E+00 0. -1.
         -5    1    5    5    0  502  0.32040394818E+02  0.22468602893E+02  0.10107081942E+03  0.10848421800E+03  0.47000000000E+01 0.  1.
         13    1    6    6    0    0 -0.41807717695E+01 -0.22069048691E+02  0.12133554260E+03  0.12339706504E+03  0.00000000000E+00 0. -1.
        -14    1    6    6    0    0 -0.13864590124E+03  0.13529892716E+02  0.47398464882E+03  0.49403156908E+03  0.00000000000E+00 0.  1.
</event>
<event>
12    1  0.1030140E-001  0.2319543E+03  0.7818608E-02  0.1126715E+00
         21   -1    0    0  501  502  0.00000000000E+00  0.00000000000E+00  0.54532381488E+02  0.54532381488E+02  0.00000000000E+00 0.  1.
         21   -1    0    0  502  503 -0.00000000000E+00 -0.00000000000E+00 -0.95743892774E+03  0.95743892774E+03  0.00000000000E+00 0.  1.
         -6    2    1    2    0  503  0.47864095112E+02  0.14843326059E+03 -0.49644968764E+03  0.54796450675E+03  0.17169567219E+03 0.  0.
        -24    2    3    3    0    0  0.74153014004E+02  0.16553271447E+03 -0.40498443339E+03  0.45115809521E+03  0.81433939744E+02 0.  0.
          6    2    1    2  501    0 -0.47864095112E+02 -0.14843326059E+03 -0.40645685861E+03  0.46400680248E+03  0.16053576046E+03 0.  0.
         24    2    5    5    0    0 -0.14378191983E+02 -0.15415392514E+03 -0.37802465389E+03  0.41945894084E+03  0.95252291635E+02 0.  0.
          5    1    5    5  501    0 -0.33485903129E+02  0.57206645489E+01 -0.28432204719E+02  0.44547861637E+02  0.47000000000E+01 0. -1.
        -11    1    6    6    0    0 -0.36347171251E+02 -0.25001209010E+02 -0.52581814329E+02  0.68636903398E+02  0.00000000000E+00 0.  1.
         12    1    6    6    0    0  0.21968979269E+02 -0.12915271613E+03 -0.32544283957E+03  0.35082203745E+03  0.00000000000E+00 0. -1.
         -5    1    3    3    0  503 -0.26288918892E+02 -0.17099453877E+02 -0.91465254255E+02  0.96806411541E+02  0.47000000000E+01 0.  1.
         13    1    4    4    0    0 -0.27271894615E+01 -0.22375229727E+01 -0.58368369102E+02  0.58474871381E+02  0.00000000000E+00 0. -1.
        -14    1    4    4    0    0  0.76880203465E+02  0.16777023744E+03 -0.34661606428E+03  0.39268322383E+03  0.00000000000E+00 0.  1.
</event>
<event>
12    1  0.1030140E-001  0.2335759E+03  0.7818608E-02  0.1124267E+00
         21   -1    0    0  503  502  0.00000000000E+00  0.00000000000E+00  0.44678361897E+03  0.44678361897E+03  0.00000000000E+00 0.  1.
         21   -1    0    0  501  503 -0.00000000000E+00 -0.00000000000E+00 -0.13608297665E+03  0.13608297665E+03  0.00000000000E+00 0. -1.
          6    2    1    2  501    0 -0.13778232885E+02 -0.15572052038E+03  0.60978847210E+02  0.24140448961E+03  0.17354822854E+03 0.  0.
         24    2    3    3    0    0 -0.48146977520E+02 -0.37716794075E+02 -0.14133963687E+02  0.97286085544E+02  0.74324461057E+02 0.  0.
         -6    2    1    2    0  502  0.13778232885E+02  0.15572052038E+03  0.24972179511E+03  0.34146210601E+03  0.17261713332E+03 0.  0.
        -24    2    5    5    0    0 -0.23295970436E+02  0.24007985220E+02  0.14244144485E+03  0.16752576126E+03  0.81585721069E+02 0.  0.
          5    1    3    3  501    0  0.34368744635E+02 -0.11800372631E+03  0.75112810897E+02  0.14411840407E+03  0.47000000000E+01 0. -1.
        -11    1    4    4    0    0 -0.61631012998E+02 -0.13841895222E+02  0.57326656804E+01  0.63425888108E+02  0.00000000000E+00 0.  1.
         12    1    4    4    0    0  0.13484035478E+02 -0.23874898852E+02 -0.19866629368E+02  0.33860197436E+02  0.00000000000E+00 0. -1.
         -5    1    5    5    0  502  0.37074203321E+02  0.13171253516E+03  0.10728035026E+03  0.17393634474E+03  0.47000000000E+01 0.  1.
         13    1    6    6    0    0 -0.92826614826E+01  0.41411736038E+02  0.27815909603E+02  0.50742728671E+02  0.00000000000E+00 0. -1.
        -14    1    6    6    0    0 -0.14013308953E+02 -0.17403750819E+02  0.11462553525E+03  0.11678303259E+03  0.00000000000E+00 0.  1.
</event>
<event>
12    1  0.1030140E-001  0.1961430E+03  0.7818608E-02  0.1153270E+00
         21   -1    0    0  501  502  0.00000000000E+00  0.00000000000E+00  0.61147425639E+03  0.61147425639E+03  0.00000000000E+00 0. -1.
         21   -1    0    0  502  503 -0.00000000000E+00 -0.00000000000E+00 -0.62661899587E+02  0.62661899587E+02  0.00000000000E+00 0. -1.
         -6    2    1    2    0  503  0.19723464996E+02  0.92627688171E+02  0.28659735338E+03  0.34667809498E+03  0.17052493921E+03 0.  0.
        -24    2    3    3    0    0 -0.30737754808E+02  0.10451796864E+03  0.24684516060E+03  0.28117969573E+03  0.79124412419E+02 0.  0.
          6    2    1    2  501    0 -0.19723464996E+02 -0.92627688171E+02  0.26221500343E+03  0.32745806100E+03  0.17176486836E+03 0.  0.
         24    2    5    5    0    0 -0.48885645731E+02 -0.78579933674E+02  0.26715714556E+03  0.29437805253E+03  0.81981004226E+02 0.  0.
          5    1    5    5  501    0  0.29162180736E+02 -0.14047754498E+02 -0.49421421240E+01  0.33080008471E+02  0.47000000000E+01 0. -1.
        -11    1    6    6    0    0 -0.88015872569E+01 -0.67736637631E+02  0.22526265363E+03  0.23539112799E+03  0.00000000000E+00 0.  1.
         12    1    6    6    0    0 -0.40084058474E+02 -0.10843296042E+02  0.41894491929E+02  0.58986924541E+02  0.00000000000E+00 0. -1.
         -5    1    3    3    0  503  0.50461219804E+02 -0.11890280471E+02  0.39752192774E+02  0.65498399249E+02  0.47000000000E+01 0.  1.
         11    1    4    4    0    0 -0.37929579248E+00  0.56312710174E+01  0.10744019312E+03  0.10758833662E+03  0.00000000000E+00 0. -1.
        -12    1    4    4    0    0 -0.30358459016E+02  0.98886697625E+02  0.13940496748E+03  0.17359135911E+03  0.00000000000E+00 0.  1.
</event>
<event>
12    1  0.1030140E-001  0.1839293E+03  0.7818608E-02  0.1164863E+00
         21   -1    0    0  503  502  0.00000000000E+00  0.00000000000E+00  0.11557366447E+03  0.11557366447E+03  0.00000000000E+00 0.  1.
         21   -1    0    0  501  503 -0.00000000000E+00 -0.00000000000E+00 -0.37905626016E+03  0.37905626016E+03  0.00000000000E+00 0.  1.
          6    2    1    2  501    0 -0.44371868740E+02  0.47820679541E+02 -0.25433608355E+03  0.31387392799E+03  0.17197185568E+03 0.  0.
         24    2    3    3    0    0  0.22095216435E+02  0.14967328578E+02 -0.56319590288E+02  0.10237963094E+03  0.81224830355E+02 0.  0.
         -6    2    1    2    0  502  0.44371868740E+02 -0.47820679541E+02 -0.91465121357E+01  0.18075599664E+03  0.16832525512E+03 0.  0.
        -24    2    5    5    0    0 -0.46245234357E+01 -0.78372211155E+02 -0.34251559314E+02  0.11761808470E+03  0.80605550898E+02 0.  0.
          5    1    3    3  501    0 -0.66467085175E+02  0.32853350963E+02 -0.19801649327E+03  0.21149429705E+03  0.47000000000E+01 0. -1.
        -13    1    4    4    0    0  0.36576977331E+02  0.13296368678E+01 -0.69477870742E+02  0.78529088418E+02  0.00000000000E+00 0.  1.
         14    1    4    4    0    0 -0.14481760896E+02  0.13637691711E+02  0.13158280455E+02  0.23850542517E+02  0.00000000000E+00 0. -1.
         -5    1    5    5    0  502  0.48996392176E+02  0.30551531614E+02  0.25105047178E+02  0.63137911939E+02  0.47000000000E+01 0.  1.
         13    1    6    6    0    0 -0.10906389916E+02 -0.18801821803E+02 -0.50984198597E+02  0.55424239740E+02  0.00000000000E+00 0. -1.
        -14    1    6    6    0    0  0.62818664800E+01 -0.59570389352E+02  0.16732639283E+02  0.62193844964E+02  0.00000000000E+00 0.  1.
</event>
<event>
12    1  0.1030140E-001  0.1882104E+03  0.7818608E-02  0.1160594E+00
         21   -1    0    0  501  502  0.00000000000E+00  0.00000000000E+00  0.22139963131E+03  0.22139963131E+03  0.00000000000E+00 0.  1.
         21   -1    0    0  502  503 -0.00000000000E+00 -0.00000000000E+00 -0.16775903845E+03  0.16775903845E+03  0.00000000000E+00 0. -1.
         -6    2    1    2    0  503  0.25497155037E+01  0.72789639307E+02 -0.19670281565E+02  0.18923545973E+03  0.17354626647E+03 0.  0.
        -24    2    3    3    0    0 -0.60483676511E+02  0.18432616140E+02  0.11867216742E+02  0.10010298375E+03  0.76692503281E+02 0.  0.
          6    2    1    2  501    0 -0.25497155037E+01 -0.72789639307E+02  0.73310874416E+02  0.19992321002E+03  0.17114313588E+03 0.  0.
         24    2    5    5    0    0  0.53677722128E+02 -0.75319017325E+02  0.28256900707E+02  0.12767452116E+03  0.83355135967E+02 0.  0.
          5    1    5    5  501    0 -0.56227437631E+02  0.25293780181E+01  0.45053973709E+02  0.72248688865E+02  0.47000000000E+01 0. -1.
        -13    1    6    6    0    0  0.43632587157E+02 -0.55726046980E+02  0.57416120739E+02  0.91136194208E+02  0.00000000000E+00 0.  1.
         14    1    6    6    0    0  0.10045134971E+02 -0.19592970345E+02 -0.29159220032E+02  0.36538326951E+02  0.00000000000E+00 0. -1.
         -5    1    3    3    0  503  0.63033392015E+02  0.54357023168E+02 -0.31537498307E+02  0.89132475989E+02  0.47000000000E+01 0.  1.
         13    1    4    4    0    0 -0.59279131157E+02 -0.15964361291E+02 -0.53404696609E+01  0.61623021983E+02  0.00000000000E+00 0. -1.
        -14    1    4    4    0    0 -0.12045453543E+01  0.34396977431E+02  0.17207686403E+02  0.38479961762E+02  0.00000000000E+00 0.  1.
</event>
<event>
12    1  0.1030140E-001  0.1744187E+03  0.7818608E-02  0.1173555E+00
         21   -1    0    0  501  502  0.00000000000E+00  0.00000000000E+00  0.43896459474E+03  0.43896459474E+03  0.00000000000E+00 0. -1.
         21   -1    0    0  502  503 -0.00000000000E+00 -0.00000000000E+00 -0.87895855301E+02  0.87895855301E+02  0.00000000000E+00 0. -1.
         -6    2    1    2    0  503 -0.24881543308E+02  0.85912820328E+01  0.52794562535E+02  0.18133276567E+03  0.17146837828E+03 0.  0.
        -24    2    3    3    0    0 -0.75866109480E+02 -0.22792079434E+02  0.42189768394E+02  0.12035003842E+03  0.80181105866E+02 0.  0.
          6    2    1    2  501    0  0.24881543308E+02 -0.85912820328E+01  0.29827417690E+03  0.34552768436E+03  0.17242098112E+03 0.  0.
         24    2    5    5    0    0  0.35674824709E+02  0.33668647751E+02  0.28581261873E+03  0.29992311200E+03  0.76542466150E+02 0.  0.
          5    1    5    5  501    0 -0.10793281401E+02 -0.42259929784E+02  0.12461558170E+02  0.45604572367E+02  0.47000000000E+01 0. -1.
        -11    1    6    6    0    0  0.59358588459E+02  0.31032061520E+02  0.20443204853E+03  0.21512529682E+03  0.00000000000E+00 0.  1.
         12    1    6    6    0    0 -0.23683763750E+02  0.26365862306E+01  0.81380570196E+02  0.84797815171E+02  0.00000000000E+00 0. -1.
         -5    1    3    3    0  503  0.50984566172E+02  0.31383361467E+02  0.10604794141E+02  0.60982727255E+02  0.47000000000E+01 0.  1.
         13    1    4    4    0    0  0.43053224543E+01  0.12502340102E+02 -0.11571827347E+02  0.17571326006E+02  0.00000000000E+00 0. -1.
        -14    1    4    4    0    0 -0.80171431935E+02 -0.35294419536E+02  0.53761595741E+02  0.10277871241E+03  0.00000000000E+00 0.  1.
</event>
<event>
12    1  0.1030140E-001  0.2136400E+03  0.7818608E-02  0.1138768E+00
         21   -1    0    0  503  502  0.00000000000E+00  0.00000000000E+00  0.88518791645E+02  0.88518791645E+02  0.00000000000E+00 0. -1.
         21   -1    0    0  501  503 -0.00000000000E+00 -0.00000000000E+00 -0.79566571745E+03  0.79566571745E+03  0.00000000000E+00 0. -1.
          6    2    1    2  501    0  0.37233617252E+02 -0.12183520972E+03 -0.61630472969E+03  0.65228334172E+03  0.17149891390E+03 0.  0.
         24    2    3    3    0    0  0.87845938588E+02 -0.98398230755E+02 -0.40451972795E+03  0.43322655453E+03  0.81547020207E+02 0.  0.
         -6    2    1    2    0  502 -0.37233617252E+02  0.12183520972E+03 -0.90842196110E+02  0.23190116737E+03  0.17115982663E+03 0.  0.
        -24    2    5    5    0    0 -0.15538499987E+02  0.15373754717E+03 -0.69075306610E+02  0.18735540746E+03  0.80336618860E+02 0.  0.
          5    1    3    3  501    0 -0.50612321336E+02 -0.23436978967E+02 -0.21178500174E+03  0.21905678720E+03  0.47000000000E+01 0. -1.
        -11    1    4    4    0    0  0.12341309966E+02 -0.94541859181E+01 -0.39899386209E+01  0.16050207888E+02  0.00000000000E+00 0.  1.
         12    1    4    4    0    0  0.75504628622E+02 -0.88944044837E+02 -0.40052978933E+03  0.41717634664E+03  0.00000000000E+00 0. -1.
         -5    1    5    5    0  502 -0.21695117265E+02 -0.31902337443E+02 -0.21766889500E+02  0.44545759910E+02  0.47000000000E+01 0.  1.
         13    1    6    6    0    0 -0.39414794570E+02  0.86409478261E+02 -0.11623711707E+02  0.95682990329E+02  0.00000000000E+00 0. -1.
        -14    1    6    6    0    0  0.23876294582E+02  0.67328068904E+02 -0.57451594902E+02  0.91672417128E+02  0.00000000000E+00 0.  1.
</event>
<event>
12    1  0.1030140E-001  0.2001235E+03  0.7818608E-02  0.1149731E+00
         21   -1    0    0  501  502  0.00000000000E+00  0.00000000000E+00  0.35083669099E+03  0.35083669099E+03  0.00000000000E+00 0.  1.
         21   -1    0    0  502  503 -0.00000000000E+00 -0.00000000000E+00 -0.15658967422E+03  0.15658967422E+03  0.00000000000E+00 0.  1.
         -6    2    1    2    0  503  0.77574482161E+02  0.65748507713E+02 -0.35435032888E+02  0.20279010131E+03  0.17183572704E+03 0.  0.
        -24    2    3    3    0    0  0.35371696929E+01  0.71823681892E+02 -0.61905572167E+02  0.12378876697E+03  0.79499723975E+02 0.  0.
          6    2    1    2  501    0 -0.77574482161E+02 -0.65748507713E+02  0.22968204966E+03  0.30463626390E+03  0.17236224296E+03 0.  0.
         24    2    5    5    0    0 -0.20193442683E+02 -0.79433833228E+02  0.59338131855E+02  0.12430597759E+03  0.72204246309E+02 0.  0.
          5    1    5    5  501    0 -0.57381039478E+02  0.13685325514E+02  0.17034391781E+03  0.18033028631E+03  0.47000000000E+01 0. -1.
        -13    1    6    6    0    0  0.19347035762E+02 -0.84118081201E+01 -0.37273800836E+01  0.21423344064E+02  0.00000000000E+00 0.  1.
         14    1    6    6    0    0 -0.39540478445E+02 -0.71022025108E+02  0.63065511938E+02  0.10288263353E+03  0.00000000000E+00 0. -1.
         -5    1    3    3    0  503  0.74037312468E+02 -0.60751741787E+01  0.26470539279E+02  0.79001334347E+02  0.47000000000E+01 0.  1.
         11    1    4    4    0    0 -0.22036426512E+02  0.64023509076E+01 -0.46533701561E+02  0.51884290219E+02  0.00000000000E+00 0. -1.
        -12    1    4    4    0    0  0.25573596205E+02  0.65421330985E+02 -0.15371870606E+02  0.71904476749E+02  0.00000000000E+00 0.  1.
</event>
<event>
12    1  0.1030140E-001  0.2495121E+03  0.7818608E-02  0.1113687E+00
         21   -1    0    0  503  502  0.00000000000E+00  0.00000000000E+00  0.58357179297E+03  0.58357179297E+03  0.00000000000E+00 0. -1.
         21   -1    0    0  501  503 -0.00000000000E+00 -0.00000000000E+00 -0.11931518960E+03  0.11931518960E+03  0.00000000000E+00 0.  1.
          6    2    1    2  501    0  0.12923835578E+03 -0.12233113341E+03  0.11667821996E+03  0.27502363756E+03  0.17423184382E+03 0.  0.
         24    2    3    3    0    0  0.91659242733E+02 -0.15458386426E+03  0.10867425543E+03  0.22463929642E+03  0.79719080735E+02 0.  0.
         -6    2    1    2    0  502 -0.12923835578E+03  0.12233113341E+03  0.34757838341E+03  0.42786334501E+03  0.17489668547E+03 0.  0.
        -24    2    5    5    0    0 -0.35901319894E+02  0.62572263865E+02  0.12361823965E+03  0.17793703437E+03  0.10571625255E+03 0.  0.
          5    1    3    3  501    0  0.37579113042E+02  0.32252730853E+02  0.80039645293E+01  0.50384341146E+02  0.47000000000E+01 0. -1.
        -11    1    4    4    0    0  0.78716119288E+01 -0.42338240932E+01 -0.11611538072E+02  0.14653168845E+02  0.00000000000E+00 0.  1.
         12    1    4    4    0    0  0.83787630805E+02 -0.15035004016E+03  0.12028579350E+03  0.20998612757E+03  0.00000000000E+00 0. -1.
         -5    1    5    5    0  502 -0.93337035881E+02  0.59758869540E+02  0.22396014376E+03  0.24992631064E+03  0.47000000000E+01 0.  1.
         11    1    6    6    0    0 -0.87752920192E+00  0.96041592246E+01  0.11317327981E+03  0.11358345476E+03  0.00000000000E+00 0. -1.
        -12    1    6    6    0    0 -0.35023790692E+02  0.52968104641E+02  0.10444959841E+02  0.64353579619E+02  0.00000000000E+00 0.  1.
</event>
<event>
12    1  0.1030140E-001  0.2187410E+03  0.7818608E-02  0.1135697E+00
         21   -1    0    0  503  502  0.00000000000E+00  0.00000000000E+00  0.91907072328E+02  0.91907072328E+02  0.00000000000E+00 0. -1.
         21   -1    0    0  501  503 -0.00000000000E+00 -0.00000000000E+00 -0.65806915972E+03  0.65806915972E+03  0.00000000000E+00 0.  1.
          6    2    1    2  501    0 -0.67464542371E+01  0.12866594952E+03 -0.46342766749E+03  0.51245765137E+03  0.17676877623E+03 0.  0.
         24    2    3    3    0    0  0.49591468451E+02  0.13182705716E+03 -0.34134953005E+03  0.37788753666E+03  0.80260836983E+02 0.  0.
         -6    2    1    2    0  502  0.67464542371E+01 -0.12866594952E+03 -0.10273441990E+03  0.23751858067E+03  0.17105634721E+03 0.  0.
        -24    2    5    5    0    0  0.47291228666E+02 -0.10789070272E+03 -0.12285120374E+03  0.18749593974E+03  0.78647600840E+02 0.  0.
          5    1    3    3  501    0 -0.56337922688E+02 -0.31611076445E+01 -0.12207813743E+03  0.13457011471E+03  0.47000000000E+01 0. -1.
        -11    1    4    4    0    0  0.68363746483E+02  0.10266061449E+03 -0.22637972118E+03  0.25779949915E+03  0.00000000000E+00 0.  1.
         12    1    4    4    0    0 -0.18772278032E+02  0.29166442669E+02 -0.11496980888E+03  0.12008803751E+03  0.00000000000E+00 0. -1.
         -5    1    5    5    0  502 -0.40544774429E+02 -0.20775246802E+02  0.20116783842E+02  0.50022640927E+02  0.47000000000E+01 0.  1.
         13    1    6    6    0    0  0.13250860044E+02 -0.67838399479E+02 -0.19941915366E+02  0.71939653351E+02  0.00000000000E+00 0. -1.
        -14    1    6    6    0    0  0.34040368622E+02 -0.40052303237E+02 -0.10290928838E+03  0.11555628639E+03  0.00000000000E+00 0.  1.
</event>
<event>
12    1  0.1030140E-001  0.1835051E+03  0.7818608E-02  0.1164480E+00
         21   -1    0    0  503  502  0.00000000000E+00  0.00000000000E+00  0.56937812633E+03  0.56937812633E+03  0.00000000000E+00 0.  1.
         21   -1    0    0  501  503 -0.00000000000E+00 -0.00000000000E+00 -0.80062063123E+02  0.80062063123E+02  0.00000000000E+00 0.  1.
          6    2    1    2  501    0  0.64627607819E+02  0.97775277947E+01  0.78465477492E+02  0.19947095270E+03  0.17134614694E+03 0.  0.
         24    2    3    3    0    0  0.77267794071E+02  0.47746312907E+02  0.10544144203E+02  0.12049753649E+03  0.78475823838E+02 0.  0.
         -6    2    1    2    0  502 -0.64627607819E+02 -0.97775277947E+01  0.41085058571E+03  0.44996923675E+03  0.17146947979E+03 0.  0.
        -24    2    5    5    0    0 -0.43430900366E+02  0.55241620123E+02  0.17881261108E+03  0.20801779188E+03  0.79746925697E+02 0.  0.
          5    1    3    3  501    0 -0.12640186252E+02 -0.37968785113E+02  0.67921333289E+02  0.78973416205E+02  0.47000000000E+01 0. -1.
        -13    1    4    4    0    0  0.85500863160E+02  0.54289145743E+02  0.23339840668E+02  0.10393486955E+03  0.00000000000E+00 0.  1.
         14    1    4    4    0    0 -0.82330690889E+01 -0.65428328359E+01 -0.12795696465E+02  0.16562666940E+02  0.00000000000E+00 0. -1.
         -5    1    5    5    0  502 -0.21196707453E+02 -0.65019147917E+02  0.23203797463E+03  0.24195144487E+03  0.47000000000E+01 0.  1.
         11    1    6    6    0    0 -0.12488164676E+02  0.38290437547E+02  0.16546431767E+03  0.17029548522E+03  0.00000000000E+00 0. -1.
        -12    1    6    6    0    0 -0.30942735690E+02  0.16951182576E+02  0.13348293405E+02  0.37722306658E+02  0.00000000000E+00 0.  1.
</event>
<event>
12    1  0.1030140E-001  0.2174230E+03  0.7818608E-02  0.1135844E+00
         21   -1    0    0  501  502  0.00000000000E+00  0.00000000000E+00  0.24486413686E+03  0.24486413686E+03  0.00000000000E+00 0.  1.
         21   -1    0    0  502  503 -0.00000000000E+00 -0.00000000000E+00 -0.27689565386E+03  0.27689565386E+03  0.00000000000E+00 0. -1.
         -6    2    1    2    0  503 -0.83849048159E+02 -0.10237488750E+03 -0.15966985156E+03  0.26975398733E+03  0.17251513474E+03 0.  0.
        -24    2    3    3    0    0 -0.14773454735E+02 -0.94829641595E+02 -0.38389575977E+02  0.12989919267E+03  0.78670990994E+02 0.  0.
          6    2    1    2  501    0  0.83849048159E+02  0.10237488750E+03  0.12763833457E+03  0.25200580339E+03  0.17234877436E+03 0.  0.
         24    2    5    5    0    0  0.86108827666E+02  0.10794069472E+03  0.40418430550E+02  0.16445303947E+03  0.79656944991E+02 0.  0.
          5    1    5    5  501    0 -0.22597795062E+01 -0.55658072162E+01  0.87219904015E+02  0.87552763919E+02  0.47000000000E+01 0. -1.
        -13    1    6    6    0    0  0.79378819601E+01 -0.59859818895E+00  0.29153199891E+02  0.30220479044E+02  0.00000000000E+00 0.  1.
         14    1    6    6    0    0  0.78170945705E+02  0.10853929291E+03  0.11265230660E+02  0.13423256043E+03  0.00000000000E+00 0. -1.
         -5    1    3    3    0  503 -0.69075593424E+02 -0.75452459068E+01 -0.12128027558E+03  0.13985479465E+03  0.47000000000E+01 0.  1.
         13    1    4    4    0    0  0.11004616034E+02 -0.96235853893E-01 -0.29303209716E+02  0.31301580393E+02  0.00000000000E+00 0. -1.
        -14    1    4    4    0    0 -0.25778070769E+02 -0.94733405741E+02 -0.90863662610E+01  0.98597612282E+02  0.00000000000E+00 0.  1.
</event>
<event>
12    1  0.1030140E-001  0.2197328E+03  0.7818608E-02  0.1134262E+00
         21   -1    0    0  503  502  0.00000000000E+00  0.00000000000E+00  0.58336413609E+02  0.58336413609E+02  0.00000000000E+00 0. -1.
         21   -1    0    0  501  503 -0.00000000000E+00 -0.00000000000E+00 -0.95933921124E+03  0.95933921124E+03  0.00000000000E+00 0. -1.
          6    2    1    2  501    0 -0.13300287940E+03  0.30628813225E+02 -0.64074097842E+03  0.67706039129E+03  0.17097918554E+03 0.  0.
         24    2    3    3    0    0 -0.21402056503E+02 -0.35583145650E+02 -0.26586292682E+03  0.28033074689E+03  0.78600404051E+02 0.  0.
         -6    2    1    2    0  502  0.13300287940E+03 -0.30628813225E+02 -0.26026181921E+03  0.34061523357E+03  0.17220520513E+03 0.  0.
        -24    2    5    5    0    0  0.12544814819E+03 -0.43893261220E+02 -0.27629795680E+03  0.31798191183E+03  0.84309424449E+02 0.  0.
          5    1    3    3  501    0 -0.11160082289E+03  0.66211958876E+02 -0.37487805161E+03  0.39672964440E+03  0.47000000000E+01 0. -1.
        -13    1    4    4    0    0  0.20490483857E+02 -0.14371616726E+02 -0.26678545187E+02  0.36580706244E+02  0.00000000000E+00 0.  1.
         14    1    4    4    0    0 -0.41892540361E+02 -0.21211528924E+02 -0.23918438163E+03  0.24375004064E+03  0.00000000000E+00 0. -1.
         -5    1    5    5    0  502  0.75547312063E+01  0.13264447995E+02  0.16036137591E+02  0.22633321742E+02  0.47000000000E+01 0.  1.
         11    1    6    6    0    0  0.98318830870E+02 -0.84094735165E+01 -0.11965740983E+03  0.15509741286E+03  0.00000000000E+00 0. -1.
        -12    1    6    6    0    0  0.27129317321E+02 -0.35483787704E+02 -0.15664054697E+03  0.16288449897E+03  0.00000000000E+00 0.  1.
</event>
<event>
12    1  0.1030140E-001  0.1904585E+03  0.7818608E-02  0.1158684E+00
         21   -1    0    0  503  502  0.00000000000E+00  0.00000000000E+00  0.17917812800E+03  0.17917812800E+03  0.00000000000E+00 0.  1.
         21   -1    0    0  501  503 -0.00000000000E+00 -0.00000000000E+00 -0.26942627889E+03  0.26942627889E+03  0.00000000000E+00 0.  1.
          6    2    1    2  501    0 -0.57808664365E+02 -0.43954298720E+02 -0.15965557438E+03  0.24852432020E+03  0.17606991012E+03 0.  0.
         24    2    3    3    0    0  0.57991563344E+01 -0.80961816541E+02 -0.75986083403E+02  0.13699770926E+03  0.80037750584E+02 0.  0.
         -6    2    1    2    0  502  0.57808664365E+02  0.43954298720E+02  0.69407423488E+02  0.20008008669E+03  0.17303418333E+03 0.  0.
        -24    2    5    5    0    0  0.29784977080E+02 -0.32606796211E+02  0.77395510523E+02  0.11802627605E+03  0.77393725646E+02 0.  0.
          5    1    3    3  501    0 -0.63607820699E+02  0.37007517821E+02 -0.83669490978E+02  0.11152661095E+03  0.47000000000E+01 0. -1.
        -13    1    4    4    0    0 -0.33227076522E+02 -0.62512136759E+02 -0.48765471518E+02  0.85964394192E+02  0.00000000000E+00 0.  1.
         14    1    4    4    0    0  0.39026232856E+02 -0.18449679781E+02 -0.27220611885E+02  0.51033315064E+02  0.00000000000E+00 0. -1.
         -5    1    5    5    0  502  0.28023687285E+02  0.76561094931E+02 -0.79880870345E+01  0.82053810640E+02  0.47000000000E+01 0.  1.
         11    1    6    6    0    0  0.21990820375E+02 -0.79818359285E+01 -0.11059754796E+02  0.25877095310E+02  0.00000000000E+00 0. -1.
        -12    1    6    6    0    0  0.77941567048E+01 -0.24624960283E+02  0.88455265319E+02  0.92149180736E+02  0.00000000000E+00 0.  1.
</event>
<event>
12    1  0.1030140E-001  0.1724865E+03  0.7818608E-02  0.1175930E+00
         21   -1    0    0  501  502  0.00000000000E+00  0.00000000000E+00  0.66422799526E+03  0.66422799526E+03  0.00000000000E+00 0. -1.
         21   -1    0    0  502  503 -0.00000000000E+00 -0.00000000000E+00 -0.20167801228E+03  0.20167801228E+03  0.00000000000E+00 0. -1.
         -6    2    1    2    0  503 -0.76991871350E+01 -0.48133202867E+01 -0.15174977749E+03  0.22784974354E+03  0.16972055011E+03 0.  0.
        -24    2    3    3    0    0 -0.58985065244E+02 -0.18650340667E+02 -0.54152334969E+02  0.11663348928E+03  0.82727397575E+02 0.  0.
          6    2    1    2  501    0  0.76991871350E+01  0.48133202867E+01  0.61429976047E+03  0.63805626400E+03  0.17224736510E+03 0.  0.
         24    2    5    5    0    0  0.30724933337E+02 -0.57908028833E+02  0.31998627449E+03  0.33621744832E+03  0.79709443350E+02 0.  0.
          5    1    5    5  501    0 -0.23025746202E+02  0.62721349120E+02  0.29431348598E+03  0.30183881568E+03  0.47000000000E+01 0. -1.
        -13    1    6    6    0    0 -0.20473683227E+02  0.26627987431E+01  0.10632975704E+03  0.10831564723E+03  0.00000000000E+00 0.  1.
         14    1    6    6    0    0  0.51198616565E+02 -0.60570827576E+02  0.21365651746E+03  0.22790180110E+03  0.00000000000E+00 0. -1.
         -5    1    3    3    0  503  0.51285878109E+02  0.13837020380E+02 -0.97597442519E+02  0.11121625427E+03  0.47000000000E+01 0.  1.
         11    1    4    4    0    0 -0.45178210542E+02  0.72800732131E+01 -0.69712395795E+02  0.83389977223E+02  0.00000000000E+00 0. -1.
        -12    1    4    4    0    0 -0.13806854703E+02 -0.25930413880E+02  0.15560060826E+02  0.33243512054E+02  0.00000000000E+00 0.  1.
</event>
<event>
12    1  0.1030140E-001  0.1888543E+03  0.7818608E-02  0.1160108E+00
         21   -1    0    0  501  502  0.00000000000E+00  0.00000000000E+00  0.29017873529E+03  0.29017873529E+03  0.00000000000E+00 0. -1.
         21   -1    0    0  502  503 -0.00000000000E+00 -0.00000000000E+00 -0.45542016358E+03  0.45542016358E+03  0.00000000000E+00 0. -1.
         -6    2    1    2    0  503  0.22164014398E+02  0.73856893626E+02 -0.40183379276E+03  0.44287480147E+03  0.16947450693E+03 0.  0.
        -24    2    3    3    0    0  0.41176392448E+02  0.11166584858E+03 -0.33086218410E+03  0.36010979177E+03  0.77746512642E+02 0.  0.
          6    2    1    2  501    0 -0.22164014398E+02 -0.73856893626E+02  0.23659236446E+03  0.30272409740E+03  0.17239445454E+03 0.  0.
         24    2    5    5    0    0 -0.77820102860E+02 -0.34299420539E+02  0.17505079237E+03  0.21068144992E+03  0.80693709621E+02 0.  0.
          5    1    5    5  501    0  0.55656088462E+02 -0.39557473087E+02  0.61541572089E+02  0.92042647480E+02  0.47000000000E+01 0. -1.
        -13    1    6    6    0    0 -0.32118415662E+02  0.41555804241E+01  0.81222276151E+01  0.33389100837E+02  0.00000000000E+00 0.  1.
         14    1    6    6    0    0 -0.45701687198E+02 -0.38455000963E+02  0.16692856476E+03  0.17729234909E+03  0.00000000000E+00 0. -1.
         -5    1    3    3    0  503 -0.19012378050E+02 -0.37808954957E+02 -0.70971608662E+02  0.82765009696E+02  0.47000000000E+01 0.  1.
         13    1    4    4    0    0  0.15961499139E+02  0.30375408332E+02 -0.20699631221E+03  0.20982113372E+03  0.00000000000E+00 0. -1.
        -14    1    4    4    0    0  0.25214893309E+02  0.81290440250E+02 -0.12386587189E+03  0.15028865805E+03  0.00000000000E+00 0.  1.
</event>
<event>
12    1  0.1030140E-001  0.1808215E+03  0.7818608E-02  0.1167315E+00
         21   -1    0    0  501  502  0.00000000000E+00  0.00000000000E+00  0.40561826422E+02  0.40561826422E+02  0.00000000000E+00 0.  1.
         21   -1    0    0  502  503 -0.00000000000E+00 -0.00000000000E+00 -0.10176791683E+04  0.10176791683E+04  0.00000000000E+00 0.  1.
         -6    2    1    2    0  503  0.58495358953E+01  0.50887887769E+02 -0.73165781011E+03  0.75336924233E+03  0.17209959324E+03 0.  0.
        -24    2    3    3    0    0  0.56460386250E+02 -0.13888656897E+02 -0.32542879615E+03  0.33887972413E+03  0.74531175055E+02 0.  0.
          6    2    1    2  501    0 -0.58495358953E+01 -0.50887887769E+02 -0.24545953181E+03  0.30487175244E+03  0.17341455962E+03 0.  0.
         24    2    5    5    0    0 -0.66436516198E+02  0.69005704873E+01 -0.17432968380E+03  0.19490887976E+03  0.56010750732E+02 0.  0.
          5    1    5    5  501    0  0.60586980303E+02 -0.57788458257E+02 -0.71129848004E+02  0.10996287268E+03  0.47000000000E+01 0. -1.
        -13    1    6    6    0    0 -0.40571533390E+02 -0.21311171450E+02 -0.11998373746E+03  0.12843797182E+03  0.00000000000E+00 0.  1.
         14    1    6    6    0    0 -0.25864982808E+02  0.28211741937E+02 -0.54345946343E+02  0.66470907942E+02  0.00000000000E+00 0. -1.
         -5    1    3    3    0  503 -0.50610850355E+02  0.64776544667E+02 -0.40622901396E+03  0.41448951820E+03  0.47000000000E+01 0.  1.
         11    1    4    4    0    0  0.61809848349E+01 -0.11925635265E+02 -0.47044531428E+01  0.14232260164E+02  0.00000000000E+00 0. -1.
        -12    1    4    4    0    0  0.50279401415E+02 -0.19630216326E+01 -0.32072434301E+03  0.32464746397E+03  0.00000000000E+00 0.  1.
</event>
<event>
12    1  0.1030140E-001  0.1784799E+03  0.7818608E-02  0.1169337E+00
         21   -1    0    0  501  502  0.00000000000E+00  0.00000000000E+00  0.59917648712E+02  0.59917648712E+02  0.00000000000E+00 0.  1.
         21   -1    0    0  502  503 -0.00000000000E+00 -0.00000000000E+00 -0.10848089698E+04  0.10848089698E+04  0.00000000000E+00 0.  1.
         -6    2    1    2    0  503  0.32121331088E+02 -0.35354846308E+02 -0.92124901873E+03  0.93833670411E+03  0.17173896094E+03 0.  0.
        -24    2    3    3    0    0  0.14664656843E+02 -0.88201805639E+02 -0.56783212466E+03  0.58053350737E+03  0.81186333227E+02 0.  0.
          6    2    1    2  501    0 -0.32121331088E+02  0.35354846308E+02 -0.10364230238E+03  0.20638991443E+03  0.17196896483E+03 0.  0.
         24    2    5    5    0    0 -0.61880215535E+02  0.67632292247E+02 -0.10361907839E+03  0.16223659904E+03  0.84737905534E+02 0.  0.
          5    1    5    5  501    0  0.29758884447E+02 -0.32277445940E+02 -0.23223998814E-01  0.44153315383E+02  0.47000000000E+01 0. -1.
        -11    1    6    6    0    0  0.57525246664E+01  0.25467904814E+02  0.59191519195E+01  0.26772039054E+02  0.00000000000E+00 0.  1.
         12    1    6    6    0    0 -0.67632740202E+02  0.42164387434E+02 -0.10953823031E+03  0.13546455999E+03  0.00000000000E+00 0. -1.
         -5    1    3    3    0  503  0.17456674244E+02  0.52846959331E+02 -0.35341689407E+03  0.35780319674E+03  0.47000000000E+01 0.  1.
         13    1    4    4    0    0 -0.14424916894E+02 -0.36744585773E+02 -0.80796641513E+02  0.89924079594E+02  0.00000000000E+00 0. -1.
        -14    1    4    4    0    0  0.29089573737E+02 -0.51457219865E+02 -0.48703548315E+03  0.49060942778E+03  0.00000000000E+00 0.  1.
</event>
<event>
12    1  0.1030140E-001  0.2445057E+03  0.7818608E-02  0.1116938E+00
         21   -1    0    0  501  502  0.00000000000E+00  0.00000000000E+00  0.41065615234E+02  0.41065615234E+02  0.00000000000E+00 0.  1.
         21   -1    0    0  502  503 -0.00000000000E+00 -0.00000000000E+00 -0.25821904844E+04  0.25821904844E+04  0.00000000000E+00 0.  1.
         -6    2    1    2    0  503 -0.59367407166E+02  0.16347358181E+03 -0.21374115799E+04  0.21512736382E+04  0.17088564462E+03 0.  0.
        -24    2    3    3    0    0  0.29780953066E+01  0.12100660681E+03 -0.90367169063E+03  0.91522080356E+03  0.79719049661E+02 0.  0.
          6    2    1    2  501    0  0.59367407166E+02 -0.16347358181E+03 -0.40371328923E+03  0.47198246140E+03  0.17185727504E+03 0.  0.
         24    2    5    5    0    0  0.57774029445E+02 -0.16206285232E+03 -0.23006697085E+03  0.29825951272E+03  0.80160584269E+02 0.  0.
          5    1    5    5  501    0  0.15933777206E+01 -0.14107294834E+01 -0.17364631839E+03  0.17372294868E+03  0.47000000000E+01 0. -1.
        -11    1    6    6    0    0  0.55600020936E+02 -0.15833961219E+03 -0.17297312345E+03  0.24100310486E+03  0.00000000000E+00 0.  1.
         12    1    6    6    0    0  0.21740085089E+01 -0.37232401351E+01 -0.57093847400E+02  0.57256407860E+02  0.00000000000E+00 0. -1.
         -5    1    3    3    0  503 -0.62345502472E+02  0.42466974998E+02 -0.12337398893E+04  0.12360528347E+04  0.47000000000E+01 0.  1.
         11    1    4    4    0    0  0.94289698632E+01  0.12964479928E+01 -0.27825428244E+03  0.27841701087E+03  0.00000000000E+00 0. -1.
        -12    1    4    4    0    0 -0.64508745566E+01  0.11971015882E+03 -0.62541740819E+03  0.63680379269E+03  0.00000000000E+00 0.  1.
</event>
<event>
12    1  0.1030140E-001  0.1913184E+03  0.7818608E-02  0.1158996E+00
         21   -1    0    0  501  502  0.00000000000E+00  0.00000000000E+00  0.15736055288E+03  0.15736055288E+03  0.00000000000E+00 0. -1.
         21   -1    0    0  502  503 -0.00000000000E+00 -0.00000000000E+00 -0.55441747924E+03  0.55441747924E+03  0.00000000000E+00 0.  1.
         -6    2    1    2    0  503 -0.40888472862E+02 -0.71021880856E+02  0.77989789502E+02  0.19965294178E+03  0.16450810047E+03 0.  0.
        -24    2    3    3    0    0 -0.51519756818E+02 -0.10843952600E+03  0.68363502234E+02  0.15930619751E+03  0.79318850123E+02 0.  0.
          6    2    1    2  501    0  0.40888472862E+02  0.71021880856E+02 -0.47504671586E+03  0.51212509033E+03  0.17287785029E+03 0.  0.
         24    2    5    5    0    0 -0.20450281686E+02  0.33224917044E+02 -0.39417247272E+03  0.40371020904E+03  0.78024903037E+02 0.  0.
          5    1    5    5  501    0  0.61338754548E+02  0.37796963813E+02 -0.80874243139E+02  0.10841488129E+03  0.47000000000E+01 0. -1.
        -13    1    6    6    0    0 -0.37362085089E+02  0.24294797407E+02 -0.10711437625E+03  0.11601574110E+03  0.00000000000E+00 0.  1.
         14    1    6    6    0    0  0.16911803404E+02  0.89301196365E+01 -0.28705809647E+03  0.28769446794E+03  0.00000000000E+00 0. -1.
         -5    1    3    3    0  503  0.10631283956E+02  0.37417645145E+02  0.96262872680E+01  0.40346744272E+02  0.47000000000E+01 0.  1.
         11    1    4    4    0    0 -0.17738477043E+02 -0.26842627685E+02  0.63108344499E+02  0.70836737462E+02  0.00000000000E+00 0. -1.
        -12    1    4    4    0    0 -0.33781279775E+02 -0.81596898316E+02  0.52551577355E+01  0.88469460047E+02  0.00000000000E+00 0.  1.
</event>
<event>
12    1  0.1030140E-001  0.2554154E+03  0.7818608E-02  0.1110141E+00
         21   -1    0    0  503  502  0.00000000000E+00  0.00000000000E+00  0.49544398694E+02  0.49544398694E+02  0.00000000000E+00 0. -1.
         21   -1    0    0  501  503 -0.00000000000E+00 -0.00000000000E+00 -0.14476499238E+04  0.14476499238E+04  0.00000000000E+00 0.  1.
          6    2    1    2  501    0 -0.90284759736E+02  0.16446052988E+03 -0.46964595370E+03  0.53460674202E+03  0.17331602078E+03 0.  0.
         24    2    3    3    0    0 -0.10064287245E+03  0.14757542278E+03 -0.47526752245E+03  0.51348591400E+03  0.76688152926E+02 0.  0.
         -6    2    1    2    0  502  0.90284759736E+02 -0.16446052988E+03 -0.92845957141E+03  0.96258758048E+03  0.17128651614E+03 0.  0.
        -24    2    5    5    0    0  0.82665413290E+02 -0.26600785441E+02 -0.45924785738E+03  0.47346071947E+03  0.75599510772E+02 0.  0.
          5    1    3    3  501    0  0.10358112711E+02  0.16885107104E+02  0.56215687562E+01  0.21120828016E+02  0.47000000000E+01 0. -1.
        -13    1    4    4    0    0 -0.30588077961E+01  0.16991605971E+02 -0.13593470607E+03  0.13702669555E+03  0.00000000000E+00 0.  1.
         14    1    4    4    0    0 -0.97584064650E+02  0.13058381680E+03 -0.33933281638E+03  0.37645921845E+03  0.00000000000E+00 0. -1.
         -5    1    5    5    0  502  0.76193464459E+01 -0.13785974444E+03 -0.46921171403E+03  0.48912686101E+03  0.47000000000E+01 0.  1.
         11    1    6    6    0    0  0.37827081785E+02 -0.16297339495E+02 -0.67886623223E+02  0.79404565383E+02  0.00000000000E+00 0. -1.
        -12    1    6    6    0    0  0.44838331505E+02 -0.10303445946E+02 -0.39136123416E+03  0.39405615409E+03  0.00000000000E+00 0.  1.
</event>
<event>
12    1  0.1030140E-001  0.2109117E+03  0.7818608E-02  0.1141066E+00
         21   -1    0    0  503  502  0.00000000000E+00  0.00000000000E+00  0.24784260011E+02  0.24784260011E+02  0.00000000000E+00 0. -1.
         21   -1    0    0  501  503 -0.00000000000E+00 -0.00000000000E+00 -0.19858565077E+04  0.19858565077E+04  0.00000000000E+00 0. -1.
          6    2    1    2  501    0 -0.12188020560E+03  0.70573463610E+01 -0.12976390727E+04  0.13144889868E+04  0.17061518872E+03 0.  0.
         24    2    3    3    0    0 -0.12434995125E+03 -0.35885555701E+02 -0.11682680957E+04  0.11780736937E+04  0.79098678409E+02 0.  0.
         -6    2    1    2    0  502  0.12188020560E+03 -0.70573463610E+01 -0.66343317496E+03  0.69615178093E+03  0.17198585351E+03 0.  0.
        -24    2    5    5    0    0  0.50433417976E+02  0.58983584151E+02 -0.40211377126E+03  0.41726834881E+03  0.79967474843E+02 0.  0.
          5    1    3    3  501    0  0.24697456421E+01  0.42942902062E+02 -0.12937097703E+03  0.13641529305E+03  0.47000000000E+01 0. -1.
        -11    1    4    4    0    0  0.76163819717E+01  0.48153251006E+01 -0.17733477270E+03  0.17756356112E+03  0.00000000000E+00 0.  1.
         12    1    4    4    0    0 -0.13196633322E+03 -0.40700880801E+02 -0.99093332302E+03  0.10005101326E+04  0.00000000000E+00 0. -1.
         -5    1    5    5    0  502  0.71446787627E+02 -0.66040930512E+02 -0.26131940369E+03  0.27888343212E+03  0.47000000000E+01 0.  1.
         13    1    6    6    0    0  0.62420625752E+02  0.20843010519E+02 -0.30907410344E+03  0.31600247946E+03  0.00000000000E+00 0. -1.
        -14    1    6    6    0    0 -0.11987207776E+02  0.38140573632E+02 -0.93039667823E+02  0.10126586935E+03  0.00000000000E+00 0.  1.
</event>
<event>
12    1  0.1030140E-001  0.2126963E+03  0.7818608E-02  0.1139587E+00
         21   -1    0    0  503  502  0.00000000000E+00  0.00000000000E+00  0.25108008366E+03  0.25108008366E+03  0.00000000000E+00 0. -1.
         21   -1    0    0  501  503 -0.00000000000E+00 -0.00000000000E+00 -0.21566616560E+03  0.21566616560E+03  0.00000000000E+00 0. -1.
          6    2    1    2  501    0 -0.38053049506E+02  0.11860828151E+03 -0.77783603471E+02  0.22580348679E+03  0.17152541111E+03 0.  0.
         24    2    3    3    0    0  0.32160543419E+02  0.30302427969E+02  0.21645915753E+02  0.75350199372E+02  0.57066357715E+02 0.  0.
         -6    2    1    2    0  502  0.38053049506E+02 -0.11860828151E+03  0.11319752153E+03  0.24094276248E+03  0.17240584936E+03 0.  0.
        -24    2    5    5    0    0  0.86516372840E+02 -0.89658936960E+02  0.10477240852E+03  0.18367295553E+03  0.85056976565E+02 0.  0.
          5    1    3    3  501    0 -0.70213592925E+02  0.88305853539E+02 -0.99429519224E+02  0.15045328741E+03  0.47000000000E+01 0. -1.
        -11    1    4    4    0    0  0.33444520482E+02  0.24525198098E+02 -0.10404196350E+02  0.42758257609E+02  0.00000000000E+00 0.  1.
         12    1    4    4    0    0 -0.12839770636E+01  0.57772298710E+01  0.32050112103E+02  0.32591941763E+02  0.00000000000E+00 0. -1.
         -5    1    5    5    0  502 -0.48463323334E+02 -0.28949344548E+02  0.84251130138E+01  0.57269806946E+02  0.47000000000E+01 0.  1.
         11    1    6    6    0    0  0.89657077012E+02 -0.10333301358E+03  0.95931130459E+02  0.16708945193E+03  0.00000000000E+00 0. -1.
        -12    1    6    6    0    0 -0.31407041721E+01  0.13674076623E+02  0.88412780576E+01  0.16583503607E+02  0.00000000000E+00 0.  1.
</event>
<event>
12    1  0.1030140E-001  0.2126626E+03  0.7818608E-02  0.1139483E+00
         21   -1    0    0  503  502  0.00000000000E+00  0.00000000000E+00  0.12769874167E+03  0.12769874167E+03  0.00000000000E+00 0. -1.
         21   -1    0    0  501  503 -0.00000000000E+00 -0.00000000000E+00 -0.37469727116E+03  0.37469727116E+03  0.00000000000E+00 0.  1.
          6    2    1    2  501    0 -0.94290824286E+02  0.81224940312E+02 -0.18240709649E+03  0.28014064772E+03  0.17238962609E+03 0.  0.
         24    2    3    3    0    0 -0.36953397923E+02  0.10366645537E+03 -0.82041126479E+02  0.16229914402E+03  0.86590866314E+02 0.  0.
         -6    2    1    2    0  502  0.94290824286E+02 -0.81224940312E+02 -0.64591433000E+02  0.22225536511E+03  0.17244461032E+03 0.  0.
        -24    2    5    5    0    0  0.95681854015E+02 -0.23194678767E+02 -0.93229818951E+02  0.15735780453E+03  0.79854049336E+02 0.  0.
          5    1    3    3  501    0 -0.57337426363E+02 -0.22441515055E+02 -0.10036597001E+03  0.11784150370E+03  0.47000000000E+01 0. -1.
        -11    1    4    4    0    0  0.77630536290E+01 -0.12761528039E+02 -0.12656185265E+02  0.19578064894E+02  0.00000000000E+00 0.  1.
         12    1    4    4    0    0 -0.44716451552E+02  0.11642798341E+03 -0.69384941214E+02  0.14272107912E+03  0.00000000000E+00 0. -1.
         -5    1    5    5    0  502 -0.13910297286E+01 -0.58030261545E+02  0.28638385951E+02  0.64897560575E+02  0.47000000000E+01 0.  1.
         13    1    6    6    0    0  0.49419316164E+02 -0.11714208468E+01  0.17227874975E+01  0.49463208890E+02  0.00000000000E+00 0. -1.
        -14    1    6    6    0    0  0.46262537851E+02 -0.22023257920E+02 -0.94952606449E+02  0.10789459564E+03  0.00000000000E+00 0.  1.
</event>
<event>
12    1  0.1030140E-001  0.2036926E+03  0.7818608E-02  0.1146821E+00
         21   -1    0    0  503  502  0.00000000000E+00  0.00000000000E+00  0.36304360891E+03  0.36304360891E+03  0.00000000000E+00 0.  1.
         21   -1    0    0  501  503 -0.00000000000E+00 -0.00000000000E+00 -0.12111845012E+03  0.12111845012E+03  0.00000000000E+00 0.  1.
          6    2    1    2  501    0  0.54249759405E+02  0.91924784736E+02  0.61874666457E+02  0.21288290084E+03  0.17348617431E+03 0.  0.
         24    2    3    3    0    0  0.90244411928E+02  0.30827540550E+02  0.92679236412E+01  0.12446317653E+03  0.79440523430E+02 0.  0.
         -6    2    1    2    0  502 -0.54249759405E+02 -0.91924784736E+02  0.18005049233E+03  0.27127915819E+03  0.17257172258E+03 0.  0.
        -24    2    5    5    0    0 -0.87002040777E+02 -0.47589958671E+02  0.17262943236E+03  0.21546293413E+03  0.82396576392E+02 0.  0.
          5    1    3    3  501    0 -0.35994652524E+02  0.61097244185E+02  0.52606742816E+02  0.88419724310E+02  0.47000000000E+01 0. -1.
        -11    1    4    4    0    0  0.57261705092E+02  0.46203338388E+02 -0.21666327853E+02  0.76701245824E+02  0.00000000000E+00 0.  1.
         12    1    4    4    0    0  0.32982706836E+02 -0.15375797837E+02  0.30934251494E+02  0.47761930707E+02  0.00000000000E+00 0. -1.
         -5    1    5    5    0  502  0.32752281372E+02 -0.44334826065E+02  0.74210599700E+01  0.55816224060E+02  0.47000000000E+01 0.  1.
         13    1    6    6    0    0 -0.56654661539E+02  0.15544593447E+02  0.83640826650E+02  0.10221141297E+03  0.00000000000E+00 0. -1.
        -14    1    6    6    0    0 -0.30347379238E+02 -0.63134552118E+02  0.88988605707E+02  0.11325152115E+03  0.00000000000E+00 0.  1.
</event>
<event>
12    1  0.1030140E-001  0.1885954E+03  0.7818608E-02  0.1159898E+00
         21   -1    0    0  501  502  0.00000000000E+00  0.00000000000E+00  0.23978270760E+03  0.23978270760E+03  0.00000000000E+00 0.  1.
         21   -1    0    0  502  503 -0.00000000000E+00 -0.00000000000E+00 -0.15729545279E+03  0.15729545279E+03  0.00000000000E+00 0.  1.
         -6    2    1    2    0  503 -0.56428237884E+02  0.52933002157E+02 -0.76812717655E+01  0.18803604990E+03  0.17120895239E+03 0.  0.
        -24    2    3    3    0    0 -0.28145620274E+02  0.97085291764E+02 -0.27225771188E+02  0.13188083114E+03  0.80209607821E+02 0.  0.
          6    2    1    2  501    0  0.56428237884E+02 -0.52933002157E+02  0.90168526577E+02  0.20904211049E+03  0.17199474417E+03 0.  0.
         24    2    5    5    0    0 -0.20328529681E+02  0.13584375050E+02  0.58836595093E+02  0.10264689082E+03  0.80478909710E+02 0.  0.
          5    1    5    5  501    0  0.76756767564E+02 -0.66517377207E+02  0.31331931484E+02  0.10639521967E+03  0.47000000000E+01 0. -1.
        -13    1    6    6    0    0 -0.20977116671E+02  0.17935592662E+02 -0.13117777332E+02  0.30558157505E+02  0.00000000000E+00 0.  1.
         14    1    6    6    0    0  0.64858699005E+00 -0.43512176120E+01  0.71954372424E+02  0.72088733314E+02  0.00000000000E+00 0. -1.
         -5    1    3    3    0  503 -0.28282617610E+02 -0.44152289608E+02  0.19544499422E+02  0.56155218762E+02  0.47000000000E+01 0.  1.
         13    1    4    4    0    0 -0.32371944272E+02  0.68301380727E+02 -0.53561804415E+02  0.92638481623E+02  0.00000000000E+00 0. -1.
        -14    1    4    4    0    0  0.42263239981E+01  0.28783911037E+02  0.26336033228E+02  0.39242349513E+02  0.00000000000E+00 0.  1.
</event>
<event>
12    1  0.1030140E-001  0.2512389E+03  0.7818608E-02  0.1112575E+00
         21   -1    0    0  503  502  0.00000000000E+00  0.00000000000E+00  0.13519732220E+04  0.13519732220E+04  0.00000000000E+00 0. -1.
         21   -1    0    0  501  503 -0.00000000000E+00 -0.00000000000E+00 -0.11518134360E+03  0.11518134360E+03  0.00000000000E+00 0.  1.
          6    2    1    2  501    0  0.55032152769E+02  0.17519570860E+03  0.52618784325E+02  0.25668994035E+03  0.17146111764E+03 0.  0.
         24    2    3    3    0    0 -0.35853102737E+02  0.97190181685E+02  0.88505089947E+01  0.12908608530E+03  0.76508231689E+02 0.  0.
         -6    2    1    2    0  502 -0.55032152769E+02 -0.17519570860E+03  0.11841730941E+04  0.12104646252E+04  0.17098718690E+03 0.  0.
        -24    2    5    5    0    0  0.13247252944E+02 -0.14817803650E+03  0.95100628291E+03  0.96596332938E+03  0.80870163594E+02 0.  0.
          5    1    3    3  501    0  0.90885255507E+02  0.78005526916E+02  0.43768275330E+02  0.12760385505E+03  0.47000000000E+01 0. -1.
        -13    1    4    4    0    0  0.44849437178E+01  0.49007602213E+02 -0.27617233061E+02  0.56432006492E+02  0.00000000000E+00 0.  1.
         14    1    4    4    0    0 -0.40338046455E+02  0.48182579473E+02  0.36467742056E+02  0.72654078806E+02  0.00000000000E+00 0. -1.
         -5    1    5    5    0  502 -0.68279405713E+02 -0.27017672101E+02  0.23316681115E+03  0.24450129585E+03  0.47000000000E+01 0.  1.
         11    1    6    6    0    0  0.38603105535E+01 -0.77981705319E+02  0.26364351378E+03  0.27496172592E+03  0.00000000000E+00 0. -1.
        -12    1    6    6    0    0  0.93869423903E+01 -0.70196331181E+02  0.68736276914E+03  0.69100160347E+03  0.00000000000E+00 0.  1.
</event>
<event>
12    1  0.1030140E-001  0.1842801E+03  0.7818608E-02  0.1167517E+00
         21   -1    0    0  501  502  0.00000000000E+00  0.00000000000E+00  0.58663055133E+02  0.58663055133E+02  0.00000000000E+00 0. -1.
         21   -1    0    0  502  503 -0.00000000000E+00 -0.00000000000E+00 -0.86683639067E+03  0.86683639067E+03  0.00000000000E+00 0. -1.
         -6    2    1    2    0  503 -0.36967282039E+02  0.33310785360E+02 -0.68093983861E+03  0.70156302338E+03  0.16135496153E+03 0.  0.
        -24    2    3    3    0    0 -0.26398381757E+02  0.62158548028E+02 -0.64802771044E+03  0.65629500769E+03  0.78883863799E+02 0.  0.
          6    2    1    2  501    0  0.36967282039E+02 -0.33310785360E+02 -0.12723349693E+03  0.22393642242E+03  0.17743441094E+03 0.  0.
         24    2    5    5    0    0  0.66898450802E+02 -0.73194979385E+02 -0.11699333632E+03  0.17281328983E+03  0.79649762539E+02 0.  0.
          5    1    5    5  501    0 -0.29931168763E+02  0.39884194025E+02 -0.10240160609E+02  0.51123132590E+02  0.47000000000E+01 0. -1.
        -13    1    6    6    0    0  0.64466793532E+02 -0.59284787742E+02 -0.12787039231E+03  0.15498867944E+03  0.00000000000E+00 0.  1.
         14    1    6    6    0    0  0.24316572696E+01 -0.13910191643E+02  0.10877055988E+02  0.17824610391E+02  0.00000000000E+00 0. -1.
         -5    1    3    3    0  503 -0.10568900282E+02 -0.28847762668E+02 -0.32912128171E+02  0.45268015694E+02  0.47000000000E+01 0.  1.
         11    1    4    4    0    0 -0.23856205274E+02 -0.67738066373E+01 -0.71985470835E+02  0.76137448065E+02  0.00000000000E+00 0. -1.
        -12    1    4    4    0    0 -0.25421764824E+01  0.68932354666E+02 -0.57604223960E+03  0.58015755962E+03  0.00000000000E+00 0.  1.
</event>
<event>
12    1  0.1030140E-001  0.3045732E+03  0.7818608E-02  0.1083006E+00
         21   -1    0    0  501  502  0.00000000000E+00  0.00000000000E+00  0.69984908161E+03  0.69984908161E+03  0.00000000000E+00 0. -1.
         21   -1    0    0  502  503 -0.00000000000E+00 -0.00000000000E+00 -0.28912997441E+03  0.28912997441E+03  0.00000000000E+00 0. -1.
         -6    2    1    2    0  503 -0.16220853933E+03  0.19096013297E+03 -0.15862137877E+03  0.34340294915E+03  0.17316888019E+03 0.  0.
        -24    2    3    3    0    0 -0.75971416049E+02  0.53274782720E+02 -0.83040941804E+01  0.12201759925E+03  0.78800241215E+02 0.  0.
          6    2    1    2  501    0  0.16220853933E+03 -0.19096013297E+03  0.56934048597E+03  0.64557610688E+03  0.17274992966E+03 0.  0.
         24    2    5    5    0    0  0.15645173029E+03 -0.92827228062E+02  0.44152683503E+03  0.48426390262E+03  0.80445902044E+02 0.  0.
          5    1    5    5  501    0  0.57568090451E+01 -0.98132904907E+02  0.12781365094E+03  0.16131220426E+03  0.47000000000E+01 0. -1.
        -13    1    6    6    0    0  0.47437002962E+02  0.94093815264E+01  0.13103948085E+03  0.13967874302E+03  0.00000000000E+00 0.  1.
         14    1    6    6    0    0  0.10901472732E+03 -0.10223660959E+03  0.31048735418E+03  0.34458515960E+03  0.00000000000E+00 0. -1.
         -5    1    3    3    0  503 -0.86237123283E+02  0.13768535025E+03 -0.15031728459E+03  0.22138534990E+03  0.47000000000E+01 0.  1.
         11    1    4    4    0    0 -0.48203886063E+02 -0.13403050092E+01 -0.30263791010E+02  0.56932487170E+02  0.00000000000E+00 0. -1.
        -12    1    4    4    0    0 -0.27767529986E+02  0.54615087729E+02  0.21959696830E+02  0.65085112077E+02  0.00000000000E+00 0.  1.
</event>
<event>
12    1  0.1030140E-001  0.1920589E+03  0.7818608E-02  0.1156728E+00
         21   -1    0    0  501  502  0.00000000000E+00  0.00000000000E+00  0.11062074638E+04  0.11062074638E+04  0.00000000000E+00 0.  1.
         21   -1    0    0  502  503 -0.00000000000E+00 -0.00000000000E+00 -0.77918675481E+02  0.77918675481E+02  0.00000000000E+00 0.  1.
         -6    2    1    2    0  503  0.33817073427E+02 -0.77246702479E+02  0.65624180667E+02  0.20248986022E+03  0.17200279911E+03 0.  0.
        -24    2    3    3    0    0 -0.47379481383E+02 -0.45005848100E+02  0.24435309150E+02  0.10578946549E+03  0.79523487444E+02 0.  0.
          6    2    1    2  501    0 -0.33817073427E+02  0.77246702479E+02  0.96266460763E+03  0.98163627905E+03  0.17255720805E+03 0.  0.
         24    2    5    5    0    0 -0.83658019023E+02  0.81232647679E+02  0.74255893794E+03  0.75587400707E+03  0.79714058059E+02 0.  0.
          5    1    5    5  501    0  0.49840945596E+02 -0.39859452003E+01  0.22010566969E+03  0.22576227198E+03  0.47000000000E+01 0. -1.
        -13    1    6    6    0    0 -0.62278346831E+02  0.32834799705E+02  0.59432314923E+03  0.59847867319E+03  0.00000000000E+00 0.  1.
         14    1    6    6    0    0 -0.21379672192E+02  0.48397847974E+02  0.14823578871E+03  0.15739533387E+03  0.00000000000E+00 0. -1.
         -5    1    3    3    0  503  0.81196554810E+02 -0.32240854379E+02  0.41188871517E+02  0.96700394730E+02  0.47000000000E+01 0.  1.
         13    1    4    4    0    0 -0.19199590283E+02  0.21842135555E+02 -0.48101018193E+00  0.29084953557E+02  0.00000000000E+00 0. -1.
        -14    1    4    4    0    0 -0.28179891100E+02 -0.66847983655E+02  0.24916319332E+02  0.76704511929E+02  0.00000000000E+00 0.  1.
</event>
<event>
12    1  0.1030140E-001  0.2587278E+03  0.7818608E-02  0.1108171E+00
         21   -1    0    0  501  502  0.00000000000E+00  0.00000000000E+00  0.29259520856E+03  0.29259520856E+03  0.00000000000E+00 0.  1.
         21   -1    0    0  502  503 -0.00000000000E+00 -0.00000000000E+00 -0.46723094012E+03  0.46723094012E+03  0.00000000000E+00 0. -1.
         -6    2    1    2    0  503 -0.75294775168E+02  0.17821690033E+03 -0.35944445661E+03  0.44187278684E+03  0.16917646300E+03 0.  0.
        -24    2    3    3    0    0 -0.58421930883E+02  0.19503133542E+03 -0.35554818130E+03  0.41728236059E+03  0.79118363416E+02 0.  0.
          6    2    1    2  501    0  0.75294775168E+02 -0.17821690033E+03  0.18480872505E+03  0.31795336184E+03  0.17178331910E+03 0.  0.
         24    2    5    5    0    0 -0.12735601273E+02 -0.14083615111E+03  0.10814221563E+03  0.19528914027E+03  0.80287561323E+02 0.  0.
          5    1    5    5  501    0  0.88030376441E+02 -0.37380749215E+02  0.76666509417E+02  0.12266422157E+03  0.47000000000E+01 0. -1.
        -11    1    6    6    0    0  0.15942233239E+02 -0.13114350035E+03  0.91957732630E+02  0.16096271952E+03  0.00000000000E+00 0.  1.
         12    1    6    6    0    0 -0.28677834512E+02 -0.96926507635E+01  0.16184483003E+02  0.34326420746E+02  0.00000000000E+00 0. -1.
         -5    1    3    3    0  503 -0.16872844285E+02 -0.16814435095E+02 -0.38962753108E+01  0.24590426249E+02  0.47000000000E+01 0.  1.
         13    1    4    4    0    0 -0.30692392848E+02  0.12467323936E+03 -0.14558293464E+03  0.19411293221E+03  0.00000000000E+00 0. -1.
        -14    1    4    4    0    0 -0.27729538035E+02  0.70358096065E+02 -0.20996524665E+03  0.22316942838E+03  0.00000000000E+00 0.  1.
</event>
<event>
12    1  0.1030140E-001  0.1923763E+03  0.7818608E-02  0.1156356E+00
         21   -1    0    0  503  502  0.00000000000E+00  0.00000000000E+00  0.33238722082E+03  0.33238722082E+03  0.00000000000E+00 0. -1.
         21   -1    0    0  501  503 -0.00000000000E+00 -0.00000000000E+00 -0.11236105362E+03  0.11236105362E+03  0.00000000000E+00 0. -1.
          6    2    1    2  501    0  0.82894252754E+02  0.22136693971E+02  0.13171968650E+03  0.23307240785E+03  0.17207899677E+03 0.  0.
         24    2    3    3    0    0  0.10078694615E+03  0.53728613999E+01  0.45914798135E+02  0.14370942096E+03  0.91418558450E+02 0.  0.
         -6    2    1    2    0  502 -0.82894252754E+02 -0.22136693971E+02  0.88306480694E+02  0.21167586659E+03  0.17218347076E+03 0.  0.
        -24    2    5    5    0    0 -0.45820113935E+02 -0.47902377080E+02  0.11201662421E+03  0.16046431417E+03  0.93845359248E+02 0.  0.
          5    1    3    3  501    0 -0.17892693400E+02  0.16763832571E+02  0.85804888363E+02  0.89362986894E+02  0.47000000000E+01 0. -1.
        -11    1    4    4    0    0  0.13736692196E+02 -0.32776537384E+02  0.31675279989E+02  0.47605897510E+02  0.00000000000E+00 0.  1.
         12    1    4    4    0    0  0.87050253958E+02  0.38149398784E+02  0.14239518146E+02  0.96103523446E+02  0.00000000000E+00 0. -1.
         -5    1    5    5    0  502 -0.37074138819E+02  0.25765683108E+02 -0.23710143518E+02  0.51211552416E+02  0.47000000000E+01 0.  1.
         11    1    6    6    0    0 -0.16683213321E+02 -0.60992606126E+02  0.25397022020E+02  0.68142764372E+02  0.00000000000E+00 0. -1.
        -12    1    6    6    0    0 -0.29136900614E+02  0.13090229046E+02  0.86619602192E+02  0.92321549802E+02  0.00000000000E+00 0.  1.
</event>
<event>
12    1  0.1030140E-001  0.2025024E+03  0.7818608E-02  0.1147909E+00
         21   -1    0    0  501  502  0.00000000000E+00  0.00000000000E+00  0.23347036666E+03  0.23347036666E+03  0.00000000000E+00 0.  1.
         21   -1    0    0  502  503 -0.00000000000E+00 -0.00000000000E+00 -0.58657418751E+03  0.58657418751E+03  0.00000000000E+00 0.  1.
         -6    2    1    2    0  503  0.63002848551E+02  0.83124906354E+02 -0.52003209283E+03  0.55760930885E+03  0.17209199506E+03 0.  0.
        -24    2    3    3    0    0 -0.13308445793E+02  0.89996513015E+02 -0.35478621579E+03  0.37540359406E+03  0.82329292701E+02 0.  0.
          6    2    1    2  501    0 -0.63002848551E+02 -0.83124906354E+02  0.16692827198E+03  0.26243524532E+03  0.17357448262E+03 0.  0.
         24    2    5    5    0    0 -0.10767187289E+03 -0.73049157579E+02  0.10514813248E+03  0.18539163374E+03  0.79903169289E+02 0.  0.
          5    1    5    5  501    0  0.44669024337E+02 -0.10075748775E+02  0.61780139497E+02  0.77043611578E+02  0.47000000000E+01 0. -1.
        -11    1    6    6    0    0 -0.35748744109E+02 -0.11252140787E+01  0.68500357907E+02  0.77275726108E+02  0.00000000000E+00 0.  1.
         12    1    6    6    0    0 -0.71923128779E+02 -0.71923943500E+02  0.36647774574E+02  0.10811590763E+03  0.00000000000E+00 0. -1.
         -5    1    3    3    0  503  0.76311294344E+02 -0.68716066609E+01 -0.16524587704E+03  0.18220571479E+03  0.47000000000E+01 0.  1.
         11    1    4    4    0    0 -0.45726866116E+02  0.34042528370E+02 -0.14227130704E+03  0.15326762486E+03  0.00000000000E+00 0. -1.
        -12    1    4    4    0    0  0.32418420323E+02  0.55953984645E+02 -0.21251490875E+03  0.22213596921E+03  0.00000000000E+00 0.  1.
</event>
<event>
12    1  0.1030140E-001  0.2170473E+03  0.7818608E-02  0.1136514E+00
         21   -1    0    0  501  502  0.00000000000E+00  0.00000000000E+00  0.34043319815E+03  0.34043319815E+03  0.00000000000E+00 0. -1.
         21   -1    0    0  502  503 -0.00000000000E+00 -0.00000000000E+00 -0.26211939759E+03  0.26211939759E+03  0.00000000000E+00 0.  1.
         -6    2    1    2    0  503  0.12670534170E+03 -0.12323585868E+02 -0.16887873255E+03  0.27500831785E+03  0.17579372627E+03 0.  0.
        -24    2    3    3    0    0  0.28792040690E+02  0.45149698300E+02 -0.52716085347E+02  0.11250895320E+03  0.83736503578E+02 0.  0.
          6    2    1    2  501    0 -0.12670534170E+03  0.12323585868E+02  0.24719253311E+03  0.32754427789E+03  0.17313287142E+03 0.  0.
         24    2    5    5    0    0 -0.10974065392E+03  0.48656860543E+01  0.77544436234E+02  0.15682231775E+03  0.80705723017E+02 0.  0.
          5    1    5    5  501    0 -0.16964687779E+02  0.74578998142E+01  0.16964809688E+03  0.17072196014E+03  0.47000000000E+01 0. -1.
        -11    1    6    6    0    0 -0.43570140643E+02 -0.35100801480E+02  0.49138431142E+02  0.74464816090E+02  0.00000000000E+00 0.  1.
         12    1    6    6    0    0 -0.66170513281E+02  0.39966487534E+02  0.28406005091E+02  0.82357501655E+02  0.00000000000E+00 0. -1.
         -5    1    3    3    0  503  0.97913301012E+02 -0.57473284168E+02 -0.11616264720E+03  0.16249936465E+03  0.47000000000E+01 0.  1.
         13    1    4    4    0    0  0.47115801906E+02 -0.21606285313E+01 -0.15713839752E+02  0.49714101266E+02  0.00000000000E+00 0. -1.
        -14    1    4    4    0    0 -0.18323761216E+02  0.47310326831E+02 -0.37002245595E+02  0.62794851931E+02  0.00000000000E+00 0.  1.
</event>
<event>
12    1  0.1030140E-001  0.2507072E+03  0.7818608E-02  0.1112986E+00
         21   -1    0    0  503  502  0.00000000000E+00  0.00000000000E+00  0.16047242419E+03  0.16047242419E+03  0.00000000000E+00 0.  1.
         21   -1    0    0  501  503 -0.00000000000E+00 -0.00000000000E+00 -0.70149653120E+03  0.70149653120E+03  0.00000000000E+00 0. -1.
          6    2    1    2  501    0  0.48591152599E+02 -0.17542641410E+03 -0.55775565038E+03  0.61151080608E+03  0.17239075832E+03 0.  0.
         24    2    3    3    0    0 -0.10676922061E+02 -0.47368600837E+02 -0.33300291014E+03  0.34609152936E+03  0.80812298094E+02 0.  0.
         -6    2    1    2    0  502 -0.48591152599E+02  0.17542641410E+03  0.16731543371E+02  0.25045814930E+03  0.17121277152E+03 0.  0.
        -24    2    5    5    0    0 -0.84449053125E+02  0.70180348160E+02  0.19714224636E+02  0.13913200765E+03  0.83139287101E+02 0.  0.
          5    1    3    3  501    0  0.59268074660E+02 -0.12805781326E+03 -0.22475274023E+03  0.26541927672E+03  0.47000000000E+01 0. -1.
        -13    1    4    4    0    0  0.26675678294E+02  0.33937277640E+01 -0.15370433856E+03  0.15603888263E+03  0.00000000000E+00 0.  1.
         14    1    4    4    0    0 -0.37352600355E+02 -0.50762328601E+02 -0.17929857159E+03  0.19005264674E+03  0.00000000000E+00 0. -1.
         -5    1    5    5    0  502  0.35857900526E+02  0.10524606594E+03 -0.29826812643E+01  0.11132614165E+03  0.47000000000E+01 0.  1.
         11    1    6    6    0    0 -0.87734304511E+02  0.29737866554E+02 -0.28950101683E+01  0.92682414616E+02  0.00000000000E+00 0. -1.
        -12    1    6    6    0    0  0.32852513857E+01  0.40442481605E+02  0.22609234804E+02  0.46449593039E+02  0.00000000000E+00 0.  1.
</event>
<event>
12    1  0.1030140E-001  0.1822433E+03  0.7818608E-02  0.1166014E+00
         21   -1    0    0  503  502  0.00000000000E+00  0.00000000000E+00  0.91688513385E+03  0.91688513385E+03  0.00000000000E+00 0. -1.
         21   -1    0    0  501  503 -0.00000000000E+00 -0.00000000000E+00 -0.80270326504E+02  0.80270326504E+02  0.00000000000E+00 0. -1.
          6    2    1    2  501    0 -0.12226570370E+02 -0.49133790699E+02  0.48500194816E+02  0.18858656937E+03  0.17506857753E+03 0.  0.
         24    2    3    3    0    0 -0.32419864700E+01 -0.99715728552E+02  0.52489442060E+02  0.13684433055E+03  0.77572496917E+02 0.  0.
         -6    2    1    2    0  502  0.12226570370E+02  0.49133790699E+02  0.78811461253E+03  0.80856889099E+03  0.17348023107E+03 0.  0.
        -24    2    5    5    0    0 -0.33889963020E+01 -0.38398470029E+02  0.45228178833E+03  0.46113325896E+03  0.81235082730E+02 0.  0.
          5    1    3    3  501    0 -0.89845838997E+01  0.50581937854E+02 -0.39892472446E+01  0.51742238824E+02  0.47000000000E+01 0. -1.
        -11    1    4    4    0    0  0.29221825712E+02 -0.44025299518E+02 -0.13473283774E+01  0.52857898080E+02  0.00000000000E+00 0.  1.
         12    1    4    4    0    0 -0.32463812182E+02 -0.55690429034E+02  0.53836770438E+02  0.83986432467E+02  0.00000000000E+00 0. -1.
         -5    1    5    5    0  502  0.15615566672E+02  0.87532260727E+02  0.33583282420E+03  0.34743563203E+03  0.47000000000E+01 0.  1.
         11    1    6    6    0    0 -0.39515597927E+02 -0.43236787035E+01  0.17711703906E+03  0.18152306246E+03  0.00000000000E+00 0. -1.
        -12    1    6    6    0    0  0.36126601625E+02 -0.34074791325E+02  0.27516474927E+03  0.27961019650E+03  0.00000000000E+00 0.  1.
</event>
<event>
12    1  0.1030140E-001  0.2000059E+03  0.7818608E-02  0.1149833E+00
         21   -1    0    0  501  502  0.00000000000E+00  0.00000000000E+00  0.95970445959E+03  0.95970445959E+03  0.00000000000E+00 0.  1.
         21   -1    0    0  502  503 -0.00000000000E+00 -0.00000000000E+00 -0.43223758395E+02  0.43223758395E+02  0.00000000000E+00 0. -1.
         -6    2    1    2    0  503 -0.76283990668E+02 -0.67044516813E+02  0.55539602404E+03  0.59015162437E+03  0.17175558727E+03 0.  0.
        -24    2    3    3    0    0 -0.80158127685E+02 -0.33252643738E+02  0.19669162933E+03  0.22980757709E+03  0.81196438904E+02 0.  0.
          6    2    1    2  501    0  0.76283990668E+02  0.67044516813E+02  0.36108467716E+03  0.41277659362E+03  0.17230251796E+03 0.  0.
         24    2    5    5    0    0 -0.78598699959E+01 -0.15230979734E+02  0.12738496289E+03  0.15107620564E+03  0.79393518882E+02 0.  0.
          5    1    5    5  501    0  0.84143860663E+02  0.82275496547E+02  0.23369971427E+03  0.26170038798E+03  0.47000000000E+01 0. -1.
        -13    1    6    6    0    0  0.12422416602E+02 -0.20526303840E+02  0.12787697343E+03  0.13010828535E+03  0.00000000000E+00 0.  1.
         14    1    6    6    0    0 -0.20282286598E+02  0.52953241059E+01 -0.49201053720E+00  0.20967920293E+02  0.00000000000E+00 0. -1.
         -5    1    3    3    0  503  0.38741370176E+01 -0.33791873075E+02  0.35870439471E+03  0.36034404727E+03  0.47000000000E+01 0.  1.
         13    1    4    4    0    0  0.11646060271E+02 -0.31961879460E+01  0.16946208418E+01  0.12195002132E+02  0.00000000000E+00 0. -1.
        -14    1    4    4    0    0 -0.91804187956E+02 -0.30056455792E+02  0.19499700849E+03  0.21761257496E+03  0.00000000000E+00 0.  1.
</event>
<event>
12    1  0.1030140E-001  0.1839599E+03  0.7818608E-02  0.1165025E+00
         21   -1    0    0  501  502  0.00000000000E+00  0.00000000000E+00  0.89449974597E+02  0.89449974597E+02  0.00000000000E+00 0.  1.
         21   -1    0    0  502  503 -0.00000000000E+00 -0.00000000000E+00 -0.38286117659E+03  0.38286117659E+03  0.00000000000E+00 0.  1.
         -6    2    1    2    0  503 -0.28947255617E+02 -0.46824248256E+02 -0.10135162325E+03  0.20636356030E+03  0.17112367940E+03 0.  0.
        -24    2    3    3    0    0 -0.97561183736E+01  0.40714689779E+02 -0.57936532640E+02  0.10667240967E+03  0.79180132358E+02 0.  0.
          6    2    1    2  501    0  0.28947255617E+02  0.46824248256E+02 -0.19205957875E+03  0.26594759089E+03  0.17553001305E+03 0.  0.
         24    2    5    5    0    0  0.37924776292E+02  0.89322005929E+02 -0.18411046734E+03  0.22154113126E+03  0.75941419909E+02 0.  0.
          5    1    5    5  501    0 -0.89775206747E+01 -0.42497757674E+02 -0.79491114082E+01  0.44406459631E+02  0.47000000000E+01 0. -1.
        -11    1    6    6    0    0  0.37434873790E+02  0.22326933507E+02 -0.12433670982E+03  0.13175537615E+03  0.00000000000E+00 0.  1.
         12    1    6    6    0    0  0.48990250168E+00  0.66995072423E+02 -0.59773757518E+02  0.89785755113E+02  0.00000000000E+00 0. -1.
         -5    1    3    3    0  503 -0.19191137244E+02 -0.87538938035E+02 -0.43415090608E+02  0.99691150628E+02  0.47000000000E+01 0.  1.
         13    1    4    4    0    0  0.25035027210E+02  0.19173732210E+02 -0.57696776873E+02  0.65751826254E+02  0.00000000000E+00 0. -1.
        -14    1    4    4    0    0 -0.34791145583E+02  0.21540957570E+02 -0.23975576754E+00  0.40920583413E+02  0.00000000000E+00 0.  1.
</event>
<event>
12    1  0.1030140E-001  0.2040836E+03  0.7818608E-02  0.1146527E+00
         21   -1    0    0  501  502  0.00000000000E+00  0.00000000000E+00  0.16523443524E+03  0.16523443524E+03  0.00000000000E+00 0.  1.
         21   -1    0    0  502  503 -0.00000000000E+00 -0.00000000000E+00 -0.25094223594E+03  0.25094223594E+03  0.00000000000E+00 0. -1.
         -6    2    1    2    0  503 -0.58321413189E+02 -0.99140542650E+02 -0.42505770889E+02  0.20846310970E+03  0.16858200708E+03 0.  0.
        -24    2    3    3    0    0 -0.74476260388E+02 -0.17973191576E+02 -0.55217761034E+02  0.12460130277E+03  0.81281821710E+02 0.  0.
          6    2    1    2  501    0  0.58321413189E+02  0.99140542650E+02 -0.43202029815E+02  0.20771356149E+03  0.16747618879E+03 0.  0.
         24    2    5    5    0    0  0.34498226903E+02  0.87318896331E+02  0.32533189591E+02  0.12730703821E+03  0.79586156068E+02 0.  0.
          5    1    5    5  501    0  0.23823186286E+02  0.11821646320E+02 -0.75735219406E+02  0.80406523274E+02  0.47000000000E+01 0. -1.
        -13    1    6    6    0    0  0.27601165077E+02  0.30574595887E+02  0.52525359907E+02  0.66749858881E+02  0.00000000000E+00 0.  1.
         14    1    6    6    0    0  0.68970618254E+01  0.56744300443E+02 -0.19992170316E+02  0.60557179331E+02  0.00000000000E+00 0. -1.
         -5    1    3    3    0  503  0.16154847199E+02 -0.81167351074E+02  0.12711990146E+02  0.83861806932E+02  0.47000000000E+01 0.  1.
         13    1    4    4    0    0 -0.12011628654E+02 -0.18103374147E+02 -0.58141578841E+02  0.62068144556E+02  0.00000000000E+00 0. -1.
        -14    1    4    4    0    0 -0.62464631734E+02  0.13018257060E+00  0.29238178072E+01  0.62533158210E+02  0.00000000000E+00 0.  1.
</event>
<event>
12    1  0.1030140E-001  0.1996447E+03  0.7818608E-02  0.1150105E+00
         21   -1    0    0  503  502  0.00000000000E+00  0.00000000000E+00  0.23246274453E+03  0.23246274453E+03  0.00000000000E+00 0.  1.
         21   -1    0    0  501  503 -0.00000000000E+00 -0.00000000000E+00 -0.34484758942E+03  0.34484758942E+03  0.00000000000E+00 0.  1.
          6    2    1    2  501    0  0.10097028291E+03 -0.63387892093E+01 -0.26105173617E+03  0.32864270643E+03  0.17211287358E+03 0.  0.
         24    2    3    3    0    0  0.17349535302E+02  0.34099142553E+02 -0.56120238523E+02  0.10359456828E+03  0.78221451708E+02 0.  0.
         -6    2    1    2    0  502 -0.10097028291E+03  0.63387892093E+01  0.14866689127E+03  0.24866762752E+03  0.17175146619E+03 0.  0.
        -24    2    5    5    0    0 -0.10901329567E+03 -0.57479893512E+01  0.42404327188E+02  0.14131492474E+03  0.79087565239E+02 0.  0.
          5    1    3    3  501    0  0.83620747604E+02 -0.40437931762E+02 -0.20493149765E+03  0.22504813815E+03  0.47000000000E+01 0. -1.
        -13    1    4    4    0    0  0.54661247090E+01  0.37303181243E+02 -0.73319697959E+02  0.82445035988E+02  0.00000000000E+00 0.  1.
         14    1    4    4    0    0  0.11883410593E+02 -0.32040386905E+01  0.17199459437E+02  0.21149532292E+02  0.00000000000E+00 0. -1.
         -5    1    5    5    0  502  0.80430127591E+01  0.12086778560E+02  0.10626256408E+03  0.10735270279E+03  0.47000000000E+01 0.  1.
         13    1    6    6    0    0 -0.34379723888E+02  0.27871846238E+02  0.39635209373E+02  0.59411741679E+02  0.00000000000E+00 0. -1.
        -14    1    6    6    0    0 -0.74633571777E+02 -0.33619835589E+02  0.27691178148E+01  0.81903183057E+02  0.00000000000E+00 0.  1.
</event>
<event>
12    1  0.1030140E-001  0.2394489E+03  0.7818608E-02  0.1120535E+00
         21   -1    0    0  503  502  0.00000000000E+00  0.00000000000E+00  0.19023637864E+03  0.19023637864E+03  0.00000000000E+00 0.  1.
         21   -1    0    0  501  503 -0.00000000000E+00 -0.00000000000E+00 -0.54628911934E+03  0.54628911934E+03  0.00000000000E+00 0.  1.
          6    2    1    2  501    0  0.79155046580E+02 -0.14253520968E+03 -0.42645492358E+03  0.48908035173E+03  0.17536813050E+03 0.  0.
         24    2    3    3    0    0  0.74069079092E+02 -0.14883187179E+02 -0.21801833037E+03  0.24456284866E+03  0.81063289038E+02 0.  0.
         -6    2    1    2    0  502 -0.79155046580E+02  0.14253520968E+03  0.70402182878E+02  0.24744514625E+03  0.17231025986E+03 0.  0.
        -24    2    5    5    0    0 -0.20625538842E+02  0.29506833798E+02  0.82640906372E+02  0.11948814807E+03  0.78433615437E+02 0.  0.
          5    1    3    3  501    0  0.50859674885E+01 -0.12765202250E+03 -0.20843659322E+03  0.24451750307E+03  0.47000000000E+01 0. -1.
        -11    1    4    4    0    0  0.40898112646E+02 -0.32051202185E+02 -0.19234491250E+03  0.19923980662E+03  0.00000000000E+00 0.  1.
         12    1    4    4    0    0  0.33170966446E+02  0.17168015005E+02 -0.25673417868E+02  0.45323042034E+02  0.00000000000E+00 0. -1.
         -5    1    5    5    0  502 -0.58529507738E+02  0.11302837588E+03 -0.12238723494E+02  0.12795699818E+03  0.47000000000E+01 0.  1.
         11    1    6    6    0    0  0.28979825117E+02  0.10347505634E+02  0.44265237819E+02  0.53910225522E+02  0.00000000000E+00 0. -1.
        -12    1    6    6    0    0 -0.49605363959E+02  0.19159328164E+02  0.38375668553E+02  0.65577922551E+02  0.00000000000E+00 0.  1.
</event>
<event>
12    1  0.1030140E-001  0.1920876E+03  0.7818608E-02  0.1156862E+00
         21   -1    0    0  501  502  0.00000000000E+00  0.00000000000E+00  0.56338148537E+03  0.56338148537E+03  0.00000000000E+00 0.  1.
         21   -1    0    0  502  503 -0.00000000000E+00 -0.00000000000E+00 -0.76802253364E+02  0.76802253364E+02  0.00000000000E+00 0.  1.
         -6    2    1    2    0  503  0.51299755522E+02  0.64348952422E+02  0.11889235230E+03  0.22590492079E+03  0.17356609463E+03 0.  0.
        -24    2    3    3    0    0 -0.28078569126E+02  0.24935982383E+02  0.13904126137E+02  0.88431584227E+02  0.78845488797E+02 0.  0.
          6    2    1    2  501    0 -0.51299755522E+02 -0.64348952422E+02  0.36768687970E+03  0.41427881794E+03  0.17222324146E+03 0.  0.
         24    2    5    5    0    0  0.37334800340E+02 -0.44792963034E+02  0.21118700805E+03  0.23330141317E+03  0.80182916900E+02 0.  0.
          5    1    5    5  501    0 -0.88634555862E+02 -0.19555989388E+02  0.15649987165E+03  0.18097740478E+03  0.47000000000E+01 0. -1.
        -13    1    6    6    0    0 -0.23821932179E+01 -0.42703186589E+02  0.43660463234E+02  0.61118516336E+02  0.00000000000E+00 0.  1.
         14    1    6    6    0    0  0.39716993558E+02 -0.20897764455E+01  0.16752654482E+03  0.17218289683E+03  0.00000000000E+00 0. -1.
         -5    1    3    3    0  503  0.79378324647E+02  0.39412970039E+02  0.10498822617E+03  0.13747333656E+03  0.47000000000E+01 0.  1.
         11    1    4    4    0    0  0.77024941363E+01  0.40006694483E+02  0.25312936685E+02  0.47964661815E+02  0.00000000000E+00 0. -1.
        -12    1    4    4    0    0 -0.35781063262E+02 -0.15070712101E+02 -0.11408810548E+02  0.40466922412E+02  0.00000000000E+00 0.  1.
</event>
<event>
12    1  0.1030140E-001  0.2371186E+03  0.7818608E-02  0.1123230E+00
         21   -1    0    0  501  502  0.00000000000E+00  0.00000000000E+00  0.78686145503E+03  0.78686145503E+03  0.00000000000E+00 0. -1.
         21   -1    0    0  502  503 -0.00000000000E+00 -0.00000000000E+00 -0.21604596358E+03  0.21604596358E+03  0.00000000000E+00 0.  1.
         -6    2    1    2    0  503 -0.51757491349E+02 -0.15409948044E+03 -0.13017219889E+03  0.26290134130E+03  0.16045817558E+03 0.  0.
        -24    2    3    3    0    0 -0.17144919932E+02 -0.95879833909E+02 -0.13062705183E+02  0.12753413383E+03  0.81286100874E+02 0.  0.
          6    2    1    2  501    0  0.51757491349E+02  0.15409948044E+03  0.70098769033E+03  0.74000607731E+03  0.17262608342E+03 0.  0.
         24    2    5    5    0    0 -0.60332215783E+01  0.56921620282E+02  0.49985290835E+03  0.50922350966E+03  0.78607774376E+02 0.  0.
          5    1    5    5  501    0  0.57790712927E+02  0.97177860157E+02  0.20113478199E+03  0.23078256765E+03  0.47000000000E+01 0. -1.
        -11    1    6    6    0    0 -0.15905494629E+02  0.21224202013E+02  0.40700051722E+02  0.48579272541E+02  0.00000000000E+00 0.  1.
         12    1    6    6    0    0  0.98722730504E+01  0.35697418269E+02  0.45915285662E+03  0.46064423712E+03  0.00000000000E+00 0. -1.
         -5    1    3    3    0  503 -0.34612571417E+02 -0.58219646531E+02 -0.11710949370E+03  0.13536720747E+03  0.47000000000E+01 0.  1.
         13    1    4    4    0    0 -0.46127679271E+02 -0.83402827864E+02 -0.97383297388E+01  0.95805164562E+02  0.00000000000E+00 0. -1.
        -14    1    4    4    0    0  0.28982759339E+02 -0.12477006045E+02 -0.33243754441E+01  0.31728969268E+02  0.00000000000E+00 0.  1.
</event>
<event>
12    1  0.1030140E-001  0.2043219E+03  0.7818608E-02  0.1146552E+00
         21   -1    0    0  501  502  0.00000000000E+00  0.00000000000E+00  0.20280206295E+03  0.20280206295E+03  0.00000000000E+00 0.  1.
         21   -1    0    0  502  503 -0.00000000000E+00 -0.00000000000E+00 -0.20410731869E+03  0.20410731869E+03  0.00000000000E+00 0.  1.
         -6    2    1    2    0  503 -0.48964342055E+02  0.99319665133E+02 -0.77340456023E+01  0.20446817720E+03  0.17171347458E+03 0.  0.
        -24    2    3    3    0    0 -0.46754236246E+02  0.12387992659E+03 -0.46457166981E+02  0.15831992545E+03  0.73312588364E+02 0.  0.
          6    2    1    2  501    0  0.48964342055E+02 -0.99319665133E+02  0.64287898708E+01  0.20244120444E+03  0.16934937036E+03 0.  0.
         24    2    5    5    0    0  0.35289963164E+02 -0.65638909042E+02 -0.58041718319E+02  0.12827976975E+03  0.86792916653E+02 0.  0.
          5    1    5    5  501    0  0.13674378891E+02 -0.33680756091E+02  0.64470508190E+02  0.74161434689E+02  0.47000000000E+01 0. -1.
        -13    1    6    6    0    0 -0.16099325087E+01 -0.52348750472E+02 -0.69865015877E+02  0.87316115363E+02  0.00000000000E+00 0.  1.
         14    1    6    6    0    0  0.36899895673E+02 -0.13290158570E+02  0.11823297558E+02  0.40963654386E+02  0.00000000000E+00 0. -1.
         -5    1    3    3    0  503 -0.22101058093E+01 -0.24560261454E+02  0.38723121379E+02  0.46148251751E+02  0.47000000000E+01 0.  1.
         11    1    4    4    0    0 -0.18171207182E+02  0.51864583169E+02 -0.58095843436E+02  0.79970336890E+02  0.00000000000E+00 0. -1.
        -12    1    4    4    0    0 -0.28583029064E+02  0.72015343417E+02  0.11638676455E+02  0.78349588560E+02  0.00000000000E+00 0.  1.
</event>
<event>
12    1  0.1030140E-001  0.1794761E+03  0.7818608E-02  0.1168437E+00
         21   -1    0    0  501  502  0.00000000000E+00  0.00000000000E+00  0.17593294927E+03  0.17593294927E+03  0.00000000000E+00 0.  1.
         21   -1    0    0  502  503 -0.00000000000E+00 -0.00000000000E+00 -0.18943888267E+03  0.18943888267E+03  0.00000000000E+00 0.  1.
         -6    2    1    2    0  503 -0.50783089615E+02  0.18702006906E+01 -0.41563980693E+02  0.18422600365E+03  0.17213145003E+03 0.  0.
        -24    2    3    3    0    0  0.15774942289E+02  0.14081213168E+02  0.27806052541E+02  0.87203470457E+02  0.79900809341E+02 0.  0.
          6    2    1    2  501    0  0.50783089615E+02 -0.18702006906E+01  0.28058047293E+02  0.18114582828E+03  0.17159294054E+03 0.  0.
         24    2    5    5    0    0  0.55353521021E+02  0.40819345361E+02  0.65912165178E+02  0.12371490955E+03  0.78934999088E+02 0.  0.
          5    1    5    5  501    0 -0.45704314052E+01 -0.42689546051E+02 -0.37854117886E+02  0.57430918730E+02  0.47000000000E+01 0. -1.
        -13    1    6    6    0    0  0.17318036233E+02 -0.63594561307E+01 -0.14187647192E+02  0.23273297878E+02  0.00000000000E+00 0.  1.
         14    1    6    6    0    0  0.38035484787E+02  0.47178801491E+02  0.80099812371E+02  0.10044161167E+03  0.00000000000E+00 0. -1.
         -5    1    3    3    0  503 -0.66558031905E+02 -0.12211012477E+02 -0.69370033234E+02  0.97022533195E+02  0.47000000000E+01 0.  1.
         11    1    4    4    0    0  0.16657459492E+02 -0.32228476817E+02  0.13789249118E+02  0.38810940029E+02  0.00000000000E+00 0. -1.
        -12    1    4    4    0    0 -0.88251720266E+00  0.46309689985E+02  0.14016803423E+02  0.48392530429E+02  0.00000000000E+00 0.  1.
</event>
<event>
12    1  0.1030140E-001  0.1892396E+03  0.7818608E-02  0.1159370E+00
         21   -1    0    0  503  502  0.00000000000E+00  0.00000000000E+00  0.17444694430E+03  0.17444694430E+03  0.00000000000E+00 0. -1.
         21   -1    0    0  501  503 -0.00000000000E+00 -0.00000000000E+00 -0.20635510336E+03  0.20635510336E+03  0.00000000000E+00 0. -1.
          6    2    1    2  501    0  0.74125056892E+02  0.21309484012E+02  0.34042861022E+01  0.18829598050E+03  0.17174157604E+03 0.  0.
         24    2    3    3    0    0  0.25399903748E+02  0.67062670366E+02 -0.31711763412E+02  0.11264730871E+03  0.80877829807E+02 0.  0.
         -6    2    1    2    0  502 -0.74125056892E+02 -0.21309484012E+02 -0.35312445161E+02  0.19250606715E+03  0.17280914021E+03 0.  0.
        -24    2    5    5    0    0 -0.11191312927E+02  0.12234573999E+02 -0.74943352453E+02  0.11078361754E+03  0.79884751693E+02 0.  0.
          5    1    3    3  501    0  0.48725153145E+02 -0.45753186355E+02  0.35116049514E+02  0.75648671793E+02  0.47000000000E+01 0. -1.
        -13    1    4    4    0    0  0.36491434806E+02  0.78034901200E+02 -0.11191521634E+02  0.86869561849E+02  0.00000000000E+00 0.  1.
         14    1    4    4    0    0 -0.11091531058E+02 -0.10972230833E+02 -0.20520241778E+02  0.25777746862E+02  0.00000000000E+00 0. -1.
         -5    1    5    5    0  502 -0.62933743966E+02 -0.33544058010E+02  0.39630907292E+02  0.81722449609E+02  0.47000000000E+01 0.  1.
         11    1    6    6    0    0 -0.50240769943E+01 -0.12719772146E+02 -0.82786530503E+02  0.83908542985E+02  0.00000000000E+00 0. -1.
        -12    1    6    6    0    0 -0.61672359323E+01  0.24954346145E+02  0.78431780504E+01  0.26875074558E+02  0.00000000000E+00 0.  1.
</event>
<event>
12    1  0.1030140E-001  0.1783177E+03  0.7818608E-02  0.1169763E+00
         21   -1    0    0  503  502  0.00000000000E+00  0.00000000000E+00  0.27041482713E+03  0.27041482713E+03  0.00000000000E+00 0. -1.
         21   -1    0    0  501  503 -0.00000000000E+00 -0.00000000000E+00 -0.12368399411E+03  0.12368399411E+03  0.00000000000E+00 0.  1.
          6    2    1    2  501    0  0.41661386266E+02 -0.17729971042E+01  0.11984909570E+03  0.21376630685E+03  0.17202736288E+03 0.  0.
         24    2    3    3    0    0 -0.22931538754E+02 -0.13627909058E+02  0.49189377440E+01  0.81313235506E+02  0.76655534340E+02 0.  0.
         -6    2    1    2    0  502 -0.41661386266E+02  0.17729971042E+01  0.26881737324E+02  0.18033251440E+03  0.17337350813E+03 0.  0.
        -24    2    5    5    0    0  0.34987783554E+02 -0.27525423895E+02 -0.79518350129E+01  0.91063480184E+02  0.79041329597E+02 0.  0.
          5    1    3    3  501    0  0.64592925021E+02  0.11854911954E+02  0.11493015796E+03  0.13245307134E+03  0.47000000000E+01 0. -1.
        -13    1    4    4    0    0 -0.22413755456E+02 -0.16201619133E+01 -0.33902381423E+02  0.40673982156E+02  0.00000000000E+00 0.  1.
         14    1    4    4    0    0 -0.51778329756E+00 -0.12007747145E+02  0.38821319167E+02  0.40639253350E+02  0.00000000000E+00 0. -1.
         -5    1    5    5    0  502 -0.76649169821E+02  0.29298420999E+02  0.34833572337E+02  0.89269034211E+02  0.47000000000E+01 0.  1.
         13    1    6    6    0    0  0.53681380827E+02  0.12428968154E+01  0.59934060563E+01  0.54029217616E+02  0.00000000000E+00 0. -1.
        -14    1    6    6    0    0 -0.18693597273E+02 -0.28768320710E+02 -0.13945241069E+02  0.37034262568E+02  0.00000000000E+00 0.  1.
</event>
<event>
12    1  0.1030140E-001  0.2085609E+03  0.7818608E-02  0.1143206E+00
         21   -1    0    0  501  502  0.00000000000E+00  0.00000000000E+00  0.18375031366E+03  0.18375031366E+03  0.00000000000E+00 0.  1.
         21   -1    0    0  502  503 -0.00000000000E+00 -0.00000000000E+00 -0.62565557586E+03  0.62565557586E+03  0.00000000000E+00 0. -1.
         -6    2    1    2    0  503  0.95752356621E+02  0.67982888397E+02 -0.54166939562E+03  0.58043377735E+03  0.17235848928E+03 0.  0.
        -24    2    3    3    0    0  0.12248822622E+03  0.46992182791E+02 -0.51450938941E+03  0.53667109482E+03  0.78002060378E+02 0.  0.
          6    2    1    2  501    0 -0.95752356621E+02 -0.67982888397E+02  0.99764133422E+02  0.22897211217E+03  0.16936693574E+03 0.  0.
         24    2    5    5    0    0 -0.33865020455E+02 -0.10106892208E+03  0.53436003674E+02  0.14475148757E+03  0.82072041789E+02 0.  0.
          5    1    5    5  501    0 -0.61887336166E+02  0.33086033685E+02  0.46328129747E+02  0.84220624603E+02  0.47000000000E+01 0. -1.
        -13    1    6    6    0    0 -0.25486930374E+02 -0.81268143195E+02  0.75592096972E+02  0.11387826765E+03  0.00000000000E+00 0.  1.
         14    1    6    6    0    0 -0.83780900813E+01 -0.19800778887E+02 -0.22156093298E+02  0.30873219919E+02  0.00000000000E+00 0. -1.
         -5    1    3    3    0  503 -0.26735869595E+02  0.20990705606E+02 -0.27160006212E+02  0.43762682531E+02  0.47000000000E+01 0.  1.
         13    1    4    4    0    0  0.77119931825E+02  0.56627472016E+02 -0.42746077192E+03  0.43803751666E+03  0.00000000000E+00 0. -1.
        -14    1    4    4    0    0  0.45368294391E+02 -0.96352892246E+01 -0.87048617490E+02  0.98633578163E+02  0.00000000000E+00 0.  1.
</event>
<event>
12    1  0.1030140E-001  0.2128246E+03  0.7818608E-02  0.1139633E+00
         21   -1    0    0  503  502  0.00000000000E+00  0.00000000000E+00  0.15909110699E+04  0.15909110699E+04  0.00000000000E+00 0.  1.
         21   -1    0    0  501  503 -0.00000000000E+00 -0.00000000000E+00 -0.28375811867E+02  0.28375811867E+02  0.00000000000E+00 0.  1.
          6    2    1    2  501    0  0.61954134095E+02  0.10374557267E+03  0.83200338872E+03  0.85879214293E+03  0.17519374227E+03 0.  0.
         24    2    3    3    0    0  0.10092175594E+03  0.57575366329E+02  0.69262887905E+03  0.70681350150E+03  0.79689636531E+02 0.  0.
         -6    2    1    2    0  502 -0.61954134095E+02 -0.10374557267E+03  0.73053186932E+03  0.76049473885E+03  0.17341850288E+03 0.  0.
        -24    2    5    5    0    0 -0.47946094061E+02 -0.61409705650E+01  0.51629724417E+03  0.52461034312E+03  0.79477218788E+02 0.  0.
          5    1    3    3  501    0 -0.38967621846E+02  0.46170206345E+02  0.13937450967E+03  0.15197864143E+03  0.47000000000E+01 0. -1.
        -11    1    4    4    0    0  0.11068705987E+03  0.59268810106E+02  0.67510305134E+03  0.68667936259E+03  0.00000000000E+00 0.  1.
         12    1    4    4    0    0 -0.97653039286E+01 -0.16934437769E+01  0.17525827714E+02  0.20134138911E+02  0.00000000000E+00 0. -1.
         -5    1    5    5    0  502 -0.14008040034E+02 -0.97604602109E+02  0.21423462515E+03  0.23588439573E+03  0.47000000000E+01 0.  1.
         11    1    6    6    0    0 -0.11001283241E+02  0.19268237928E+02  0.38926461276E+03  0.38989643750E+03  0.00000000000E+00 0. -1.
        -12    1    6    6    0    0 -0.36944810820E+02 -0.25409208493E+02  0.12703263141E+03  0.13471390561E+03  0.00000000000E+00 0.  1.
</event>
<event>
12    1  0.1030140E-001  0.1848820E+03  0.7818608E-02  0.1163309E+00
         21   -1    0    0  501  502  0.00000000000E+00  0.00000000000E+00  0.21587236410E+03  0.21587236410E+03  0.00000000000E+00 0. -1.
         21   -1    0    0  502  503 -0.00000000000E+00 -0.00000000000E+00 -0.31944565727E+03  0.31944565727E+03  0.00000000000E+00 0. -1.
         -6    2    1    2    0  503  0.20927685647E+01 -0.66278687403E+02 -0.24223271343E+03  0.30472615048E+03  0.17258069200E+03 0.  0.
        -24    2    3    3    0    0  0.32256551860E+02 -0.97748304183E+02 -0.21914999836E+03  0.25517726212E+03  0.80582238827E+02 0.  0.
          6    2    1    2  501    0 -0.20927685647E+01  0.66278687403E+02  0.13865942025E+03  0.23059187088E+03  0.17189802794E+03 0.  0.
         24    2    5    5    0    0  0.54131941840E+02  0.37394844162E+02  0.13101424056E+03  0.16674805182E+03  0.79445201609E+02 0.  0.
          5    1    5    5  501    0 -0.56224710405E+02  0.28883843241E+02  0.76451796972E+01  0.63843819067E+02  0.47000000000E+01 0. -1.
        -13    1    6    6    0    0  0.12016817134E+02 -0.16947970936E+02  0.75722923338E+02  0.78521326604E+02  0.00000000000E+00 0.  1.
         14    1    6    6    0    0  0.42115124707E+02  0.54342815098E+02  0.55291317218E+02  0.88226725212E+02  0.00000000000E+00 0. -1.
         -5    1    3    3    0  503 -0.30163783295E+02  0.31469616780E+02 -0.23082715068E+02  0.49548888362E+02  0.47000000000E+01 0.  1.
         13    1    4    4    0    0  0.47958481199E+02 -0.78806343197E+02 -0.11132677598E+03  0.14458252556E+03  0.00000000000E+00 0. -1.
        -14    1    4    4    0    0 -0.15701929340E+02 -0.18941960986E+02 -0.10782322238E+03  0.11059473656E+03  0.00000000000E+00 0.  1.
</event>
<event>
12    1  0.1030140E-001  0.1888103E+03  0.7818608E-02  0.1160539E+00
         21   -1    0    0  501  502  0.00000000000E+00  0.00000000000E+00  0.17748177249E+03  0.17748177249E+03  0.00000000000E+00 0. -1.
         21   -1    0    0  502  503 -0.00000000000E+00 -0.00000000000E+00 -0.26175036570E+03  0.26175036570E+03  0.00000000000E+00 0.  1.
         -6    2    1    2    0  503  0.44720262230E+02  0.49696613187E+02 -0.15160755115E+03  0.23877298231E+03  0.17192449592E+03 0.  0.
        -24    2    3    3    0    0 -0.79318409355E+01  0.88177957187E+02 -0.70253637712E+02  0.13440053846E+03  0.72730082434E+02 0.  0.
          6    2    1    2  501    0 -0.44720262230E+02 -0.49696613187E+02  0.67338957944E+02  0.20045915589E+03  0.17657769595E+03 0.  0.
         24    2    5    5    0    0 -0.56238583640E+02 -0.69734952905E+02 -0.90824189564E+01  0.12048088613E+03  0.80046309356E+02 0.  0.
          5    1    5    5  501    0  0.11518321409E+02  0.20038339718E+02  0.76421376900E+02  0.79978269762E+02  0.47000000000E+01 0. -1.
        -11    1    6    6    0    0 -0.95510848217E+01 -0.31698231510E+02 -0.40700503476E+02  0.52464579340E+02  0.00000000000E+00 0.  1.
         12    1    6    6    0    0 -0.46687498818E+02 -0.38036721395E+02  0.31618084520E+02  0.68016306788E+02  0.00000000000E+00 0. -1.
         -5    1    3    3    0  503  0.52652103166E+02 -0.38481344000E+02 -0.81353913438E+02  0.10437244385E+03  0.47000000000E+01 0.  1.
         11    1    4    4    0    0 -0.33552194413E+02  0.39905637826E+02 -0.58759323019E+02  0.78554870771E+02  0.00000000000E+00 0. -1.
        -12    1    4    4    0    0  0.25620353477E+02  0.48272319361E+02 -0.11494314694E+02  0.55845667684E+02  0.00000000000E+00 0.  1.
</event>
<event>
12    1  0.1030140E-001  0.2387963E+03  0.7818608E-02  0.1120643E+00
         21   -1    0    0  503  502  0.00000000000E+00  0.00000000000E+00  0.11685958120E+04  0.11685958120E+04  0.00000000000E+00 0. -1.
         21   -1    0    0  501  503 -0.00000000000E+00 -0.00000000000E+00 -0.10764592300E+03  0.10764592300E+03  0.00000000000E+00 0. -1.
          6    2    1    2  501    0 -0.72262495259E+02  0.14914792344E+03  0.58299012037E+02  0.24554661478E+03  0.17154414575E+03 0.  0.
         24    2    3    3    0    0 -0.18085914494E+02  0.15780921546E+03  0.47632236146E+02  0.18945748936E+03  0.91621294294E+02 0.  0.
         -6    2    1    2    0  502  0.72262495259E+02 -0.14914792344E+03  0.10026508769E+04  0.10306951202E+04  0.17192055859E+03 0.  0.
        -24    2    5    5    0    0  0.19675565398E+02 -0.88659053032E+02  0.84782536244E+03  0.85628950510E+03  0.78589539915E+02 0.  0.
          5    1    3    3  501    0 -0.54176580765E+02 -0.86612920174E+01  0.10666775891E+02  0.56089125423E+02  0.47000000000E+01 0. -1.
        -11    1    4    4    0    0 -0.42928485957E+02  0.37930557991E+02  0.33131284105E+02  0.66176008663E+02  0.00000000000E+00 0.  1.
         12    1    4    4    0    0  0.24842571463E+02  0.11987865747E+03  0.14500952041E+02  0.12328148070E+03  0.00000000000E+00 0. -1.
         -5    1    5    5    0  502  0.52586929861E+02 -0.60488870410E+02  0.15482551450E+03  0.17440561510E+03  0.47000000000E+01 0.  1.
         11    1    6    6    0    0  0.72261779968E+01  0.11277074823E+02  0.22284281298E+03  0.22324495372E+03  0.00000000000E+00 0. -1.
        -12    1    6    6    0    0  0.12449387401E+02 -0.99936127854E+02  0.62498254946E+03  0.63304455138E+03  0.00000000000E+00 0.  1.
</event>
<event>
12    1  0.1030140E-001  0.3579882E+03  0.7818608E-02  0.1059421E+00
         21   -1    0    0  503  502  0.00000000000E+00  0.00000000000E+00  0.48348522528E+03  0.48348522528E+03  0.00000000000E+00 0. -1.
         21   -1    0    0  501  503 -0.00000000000E+00 -0.00000000000E+00 -0.31485076234E+03  0.31485076234E+03  0.00000000000E+00 0.  1.
          6    2    1    2  501    0  0.31403543210E+03 -0.12345683436E+02 -0.74815255229E+02  0.36572236068E+03  0.17142011017E+03 0.  0.
         24    2    3    3    0    0  0.22274744272E+03 -0.41858686787E+02  0.61177823459E+01  0.24011678380E+03  0.79057382345E+02 0.  0.
         -6    2    1    2    0  502 -0.31403543210E+03  0.12345683436E+02  0.24344971816E+03  0.43261362694E+03  0.17063445264E+03 0.  0.
        -24    2    5    5    0    0 -0.56436434032E+02 -0.74723420350E+01  0.66356461984E+02  0.11934998506E+03  0.81242426760E+02 0.  0.
          5    1    3    3  501    0  0.91287989384E+02  0.29513003351E+02 -0.80933037574E+02  0.12560557688E+03  0.47000000000E+01 0. -1.
        -11    1    4    4    0    0  0.17781119672E+03 -0.32027864987E+02 -0.28022198775E+02  0.18283284563E+03  0.00000000000E+00 0.  1.
         12    1    4    4    0    0  0.44936245995E+02 -0.98308218008E+01  0.34139981121E+02  0.57283938171E+02  0.00000000000E+00 0. -1.
         -5    1    5    5    0  502 -0.25759899807E+03  0.19818025471E+02  0.17709325618E+03  0.31326364188E+03  0.47000000000E+01 0.  1.
         13    1    6    6    0    0 -0.53801231845E+02 -0.22902687850E+02  0.81053347211E+01  0.59032212476E+02  0.00000000000E+00 0. -1.
        -14    1    6    6    0    0 -0.26352021867E+01  0.15430345815E+02  0.58251127263E+02  0.60317772588E+02  0.00000000000E+00 0.  1.
</event>
<event>
12    1  0.1030140E-001  0.1743260E+03  0.7818608E-02  0.1174190E+00
         21   -1    0    0  503  502  0.00000000000E+00  0.00000000000E+00  0.85033224031E+02  0.85033224031E+02  0.00000000000E+00 0.  1.
         21   -1    0    0  501  503 -0.00000000000E+00 -0.00000000000E+00 -0.65777814959E+03  0.65777814959E+03  0.00000000000E+00 0.  1.
          6    2    1    2  501    0  0.17636073380E+01  0.30466534118E+01 -0.54130633071E+03  0.56868452347E+03  0.17429042189E+03 0.  0.
         24    2    3    3    0    0  0.10365583031E+02 -0.51108429562E+02 -0.17754920151E+03  0.20078765472E+03  0.77925903557E+02 0.  0.
         -6    2    1    2    0  502 -0.17636073380E+01 -0.30466534118E+01 -0.31438594852E+02  0.17412685015E+03  0.17122903460E+03 0.  0.
        -24    2    5    5    0    0 -0.46940281628E+02  0.47659339748E+01  0.30407045074E+02  0.96997467947E+02  0.79106360249E+02 0.  0.
          5    1    3    3  501    0 -0.86019756933E+01  0.54155082974E+02 -0.36375712919E+03  0.36789686875E+03  0.47000000000E+01 0. -1.
        -13    1    4    4    0    0 -0.18098084298E+02 -0.90815727541E+01 -0.49023305454E+01  0.20833829790E+02  0.00000000000E+00 0.  1.
         14    1    4    4    0    0  0.28463667330E+02 -0.42026856808E+02 -0.17264687097E+03  0.17995382493E+03  0.00000000000E+00 0. -1.
         -5    1    5    5    0  502  0.45176674290E+02 -0.78125873866E+01 -0.61845639926E+02  0.77129382206E+02  0.47000000000E+01 0.  1.
         13    1    6    6    0    0 -0.60661495417E+02  0.23364569197E+02  0.92436418402E+01  0.65659462643E+02  0.00000000000E+00 0. -1.
        -14    1    6    6    0    0  0.13721213789E+02 -0.18598635222E+02  0.21163403234E+02  0.31338005304E+02  0.00000000000E+00 0.  1.
</event>
<event>
12    1  0.1030140E-001  0.2005925E+03  0.7818608E-02  0.1150002E+00
         21   -1    0    0  501  502  0.00000000000E+00  0.00000000000E+00  0.31168944509E+02  0.31168944509E+02  0.00000000000E+00 0.  1.
         21   -1    0    0  502  503 -0.00000000000E+00 -0.00000000000E+00 -0.15487044856E+04  0.15487044856E+04  0.00000000000E+00 0.  1.
         -6    2    1    2    0  503 -0.57451599526E+02 -0.84312282563E+02 -0.11007079973E+04  0.11188366527E+04  0.17270817202E+03 0.  0.
        -24    2    3    3    0    0  0.55718254953E+01 -0.97857681137E+02 -0.85424114316E+03  0.86403588711E+03  0.84987719971E+02 0.  0.
          6    2    1    2  501    0  0.57451599526E+02  0.84312282563E+02 -0.41682754375E+03  0.46103677743E+03  0.16852436512E+03 0.  0.
         24    2    5    5    0    0  0.27646110200E+02 -0.96902875876E+00 -0.90507712363E+02  0.12241015176E+03  0.77636027925E+02 0.  0.
          5    1    5    5  501    0  0.29805489326E+02  0.85281311322E+02 -0.32631983138E+03  0.33862662566E+03  0.47000000000E+01 0. -1.
        -11    1    6    6    0    0  0.16683171243E+02  0.28108864592E+02 -0.84710513526E+02  0.90798169438E+02  0.00000000000E+00 0.  1.
         12    1    6    6    0    0  0.10962938956E+02 -0.29077893351E+02 -0.57971988364E+01  0.31611982327E+02  0.00000000000E+00 0. -1.
         -5    1    3    3    0  503 -0.63023425021E+02  0.13545398574E+02 -0.24646685416E+03  0.25480076555E+03  0.47000000000E+01 0.  1.
         13    1    4    4    0    0  0.12572970720E+01 -0.62013079003E+02 -0.21479175381E+03  0.22356811102E+03  0.00000000000E+00 0. -1.
        -14    1    4    4    0    0  0.43145284233E+01 -0.35844602134E+02 -0.63944938936E+03  0.64046777609E+03  0.00000000000E+00 0.  1.
</event>
<event>
12    1  0.1030140E-001  0.2111509E+03  0.7818608E-02  0.1140999E+00
         21   -1    0    0  501  502  0.00000000000E+00  0.00000000000E+00  0.27654313612E+03  0.27654313612E+03  0.00000000000E+00 0. -1.
         21   -1    0    0  502  503 -0.00000000000E+00 -0.00000000000E+00 -0.16141999507E+03  0.16141999507E+03  0.00000000000E+00 0.  1.
         -6    2    1    2    0  503 -0.48003007634E+02  0.11229415245E+03  0.78548475843E+02  0.22366798363E+03  0.17012712432E+03 0.  0.
        -24    2    3    3    0    0  0.19456637291E+02  0.19331518244E+01  0.13701200926E+02  0.78900538338E+02  0.75201557381E+02 0.  0.
          6    2    1    2  501    0  0.48003007634E+02 -0.11229415245E+03  0.36574665205E+02  0.21429514755E+03  0.17225109204E+03 0.  0.
         24    2    5    5    0    0  0.82453207091E+02 -0.37480233796E+02  0.54153977906E+02  0.12994432715E+03  0.75825955644E+02 0.  0.
          5    1    5    5  501    0 -0.34450199457E+02 -0.74813918658E+02 -0.17579312701E+02  0.84350820403E+02  0.47000000000E+01 0. -1.
        -13    1    6    6    0    0  0.68482373674E+02 -0.58887659400E+02  0.52171565643E+02  0.10430467005E+03  0.00000000000E+00 0.  1.
         14    1    6    6    0    0  0.13970833417E+02  0.21407425604E+02  0.19824122635E+01  0.25639657091E+02  0.00000000000E+00 0. -1.
         -5    1    3    3    0  503 -0.67459644925E+02  0.11036100063E+03  0.64847274917E+02  0.14476744530E+03  0.47000000000E+01 0.  1.
         13    1    4    4    0    0  0.10934520981E+02 -0.19369211325E+02 -0.25277689172E+02  0.33670338079E+02  0.00000000000E+00 0. -1.
        -14    1    4    4    0    0  0.85221163105E+01  0.21302363150E+02  0.38978890098E+02  0.45230200259E+02  0.00000000000E+00 0.  1.
</event>
<event>
12    1  0.1030140E-001  0.1961465E+03  0.7818608E-02  0.1153221E+00
         21   -1    0    0  501  502  0.00000000000E+00  0.00000000000E+00  0.17490683156E+03  0.17490683156E+03  0.00000000000E+00 0.  1.
         21   -1    0    0  502  503 -0.00000000000E+00 -0.00000000000E+00 -0.31796588147E+03  0.31796588147E+03  0.00000000000E+00 0.  1.
         -6    2    1    2    0  503  0.81235444317E+02 -0.45340206173E+02 -0.20913400032E+03  0.28672369102E+03  0.17268037871E+03 0.  0.
        -24    2    3    3    0    0  0.20720382251E+01  0.18807973796E+02 -0.46445958837E+02  0.94704622438E+02  0.80334956265E+02 0.  0.
          6    2    1    2  501    0 -0.81235444317E+02  0.45340206173E+02  0.66074950411E+02  0.20614902200E+03  0.17168747331E+03 0.  0.
         24    2    5    5    0    0 -0.10640079454E+03 -0.11104573297E+02  0.46979861303E+02  0.14129518319E+03  0.79453010001E+02 0.  0.
          5    1    5    5  501    0  0.25165350219E+02  0.56444779470E+02  0.19095089107E+02  0.64853838816E+02  0.47000000000E+01 0. -1.
        -11    1    6    6    0    0 -0.68831989140E+02 -0.36290883332E+02  0.55094450741E+02  0.95342904531E+02  0.00000000000E+00 0.  1.
         12    1    6    6    0    0 -0.37568805397E+02  0.25186310035E+02 -0.81145894382E+01  0.45952278658E+02  0.00000000000E+00 0. -1.
         -5    1    3    3    0  503  0.79163406092E+02 -0.64148179969E+02 -0.16268804149E+03  0.19201906859E+03  0.47000000000E+01 0.  1.
         13    1    4    4    0    0  0.37210342295E+02  0.27335674850E+02 -0.22738927907E+02  0.51467538659E+02  0.00000000000E+00 0. -1.
        -14    1    4    4    0    0 -0.35138304070E+02 -0.85277010548E+01 -0.23707030929E+02  0.43237083779E+02  0.00000000000E+00 0.  1.
</event>
<event>
12    1  0.1030140E-001  0.1777213E+03  0.7818608E-02  0.1170035E+00
         21   -1    0    0  501  502  0.00000000000E+00  0.00000000000E+00  0.12834019840E+03  0.12834019840E+03  0.00000000000E+00 0.  1.
         21   -1    0    0  502  503 -0.00000000000E+00 -0.00000000000E+00 -0.44739932511E+03  0.44739932511E+03  0.00000000000E+00 0.  1.
         -6    2    1    2    0  503  0.36803958734E+02  0.28625666288E+02 -0.35263693440E+03  0.39487403443E+03  0.17146059435E+03 0.  0.
        -24    2    3    3    0    0 -0.44459010324E+02  0.43480897762E+01 -0.15876458523E+03  0.18321003505E+03  0.79776023560E+02 0.  0.
          6    2    1    2  501    0 -0.36803958734E+02 -0.28625666288E+02  0.33577807687E+02  0.18086548908E+03  0.17149605192E+03 0.  0.
         24    2    5    5    0    0 -0.32731161773E+02  0.26364311898E+02 -0.31156875892E+02  0.95700034619E+02  0.80133262868E+02 0.  0.
          5    1    5    5  501    0 -0.40727969608E+01 -0.54989978187E+02  0.64734683579E+02  0.85165454464E+02  0.47000000000E+01 0. -1.
        -11    1    6    6    0    0 -0.45412854065E+02  0.46202305462E+02 -0.31753204669E+02  0.72147393238E+02  0.00000000000E+00 0.  1.
         12    1    6    6    0    0  0.12681692291E+02 -0.19837993563E+02  0.59632877746E+00  0.23552641381E+02  0.00000000000E+00 0. -1.
         -5    1    3    3    0  503  0.81262969058E+02  0.24277576512E+02 -0.19387234917E+03  0.21166399938E+03  0.47000000000E+01 0.  1.
         11    1    4    4    0    0 -0.38680307947E+02  0.39513295655E+01 -0.16792740002E+03  0.17236992459E+03  0.00000000000E+00 0. -1.
        -12    1    4    4    0    0 -0.57787023762E+01  0.39676021071E+00  0.91628147867E+01  0.10840110453E+02  0.00000000000E+00 0.  1.
</event>
<event>
12    1  0.1030140E-001  0.1815826E+03  0.7818608E-02  0.1166699E+00
         21   -1    0    0  503  502  0.00000000000E+00  0.00000000000E+00  0.34954984358E+03  0.34954984358E+03  0.00000000000E+00 0. -1.
         21   -1    0    0  501  503 -0.00000000000E+00 -0.00000000000E+00 -0.18895992622E+03  0.18895992622E+03  0.00000000000E+00 0. -1.
          6    2    1    2  501    0 -0.58860869042E+01  0.54243845690E+02 -0.11134625188E+03  0.21152121641E+03  0.17136568026E+03 0.  0.
         24    2    3    3    0    0  0.26547917048E+02  0.96399578749E+02 -0.76845397017E+02  0.14794866393E+03  0.77368736803E+02 0.  0.
         -6    2    1    2    0  502  0.58860869042E+01 -0.54243845690E+02  0.27193616924E+03  0.32698855339E+03  0.17319120387E+03 0.  0.
        -24    2    5    5    0    0 -0.12241697388E+02 -0.18399757478E+02  0.27369783511E+03  0.28650882156E+03  0.81782575516E+02 0.  0.
          5    1    3    3  501    0 -0.32434003952E+02 -0.42155733059E+02 -0.34500854861E+02  0.63572552476E+02  0.47000000000E+01 0. -1.
        -13    1    4    4    0    0 -0.26571559777E+01  0.84368495178E+02 -0.26421880246E+02  0.88448963885E+02  0.00000000000E+00 0.  1.
         14    1    4    4    0    0  0.29205073026E+02  0.12031083571E+02 -0.50423516771E+02  0.59499700049E+02  0.00000000000E+00 0. -1.
         -5    1    5    5    0  502  0.18127784292E+02 -0.35844088212E+02 -0.17616658680E+01  0.40479731838E+02  0.47000000000E+01 0.  1.
         13    1    6    6    0    0 -0.12140806120E+02  0.18761568719E+02  0.22042684476E+03  0.22155674110E+03  0.00000000000E+00 0. -1.
        -14    1    6    6    0    0 -0.10089126790E+00 -0.37161326197E+02  0.53270990344E+02  0.64952080460E+02  0.00000000000E+00 0.  1.
</event>
<event>
12    1  0.1030140E-001  0.3205114E+03  0.7818608E-02  0.1075770E+00
         21   -1    0    0  503  502  0.00000000000E+00  0.00000000000E+00  0.12365239695E+03  0.12365239695E+03  0.00000000000E+00 0. -1.
         21   -1    0    0  501  503 -0.00000000000E+00 -0.00000000000E+00 -0.10211809292E+04  0.10211809292E+04  0.00000000000E+00 0.  1.
          6    2    1    2  501    0 -0.17032648726E+03 -0.20889058717E+03 -0.19822025625E+03  0.37685388138E+03  0.17343929270E+03 0.  0.
         24    2    3    3    0    0 -0.39725030797E+02 -0.23085162420E+02 -0.44413484346E+02  0.10252012593E+03  0.80167423761E+02 0.  0.
         -6    2    1    2    0  502  0.17032648726E+03  0.20889058717E+03 -0.69930827598E+03  0.76797944475E+03  0.16767221900E+03 0.  0.
        -24    2    5    5    0    0  0.72660271034E+02  0.55020826513E+02 -0.39892431890E+03  0.41660044037E+03  0.78156947083E+02 0.  0.
          5    1    3    3  501    0 -0.13060145646E+03 -0.18580542476E+03 -0.15380677190E+03  0.27433375545E+03  0.47000000000E+01 0. -1.
        -13    1    4    4    0    0 -0.41328041556E+02  0.45024583084E+01  0.88596829982E+01  0.42506154054E+02  0.00000000000E+00 0.  1.
         14    1    4    4    0    0  0.16030107590E+01 -0.27587620728E+02 -0.53273167344E+02  0.60013971872E+02  0.00000000000E+00 0. -1.
         -5    1    5    5    0  502  0.97666216226E+02  0.15386976066E+03 -0.30038395709E+03  0.35137900437E+03  0.47000000000E+01 0.  1.
         13    1    6    6    0    0 -0.12698706509E+02  0.51314881934E+01 -0.11787135170E+03  0.11866442124E+03  0.00000000000E+00 0. -1.
        -14    1    6    6    0    0  0.85358977542E+02  0.49889338319E+02 -0.28105296720E+03  0.29793601913E+03  0.00000000000E+00 0.  1.
</event>
<event>
12    1  0.1030140E-001  0.2164237E+03  0.7818608E-02  0.1136589E+00
         21   -1    0    0  501  502  0.00000000000E+00  0.00000000000E+00  0.82428430935E+02  0.82428430935E+02  0.00000000000E+00 0.  1.
         21   -1    0    0  502  503 -0.00000000000E+00 -0.00000000000E+00 -0.58380888087E+03  0.58380888087E+03  0.00000000000E+00 0.  1.
         -6    2    1    2    0  503  0.10276461662E+03  0.78158766174E+02 -0.30540513066E+03  0.37431474411E+03  0.17369477444E+03 0.  0.
        -24    2    3    3    0    0  0.61545730861E+02  0.55507502146E+02 -0.30663076179E+03  0.32703188805E+03  0.77836186611E+02 0.  0.
          6    2    1    2  501    0 -0.10276461662E+03 -0.78158766174E+02 -0.19597531928E+03  0.29192256770E+03  0.17361768517E+03 0.  0.
         24    2    5    5    0    0 -0.12056729363E+03 -0.71880200629E+02 -0.21199918688E+03  0.26671919437E+03  0.80574424412E+02 0.  0.
          5    1    5    5  501    0  0.17802677009E+02 -0.62785655442E+01  0.16023867607E+02  0.25203373327E+02  0.47000000000E+01 0. -1.
        -13    1    6    6    0    0 -0.12212952116E+03 -0.66967448407E+02 -0.15072067438E+03  0.20522422072E+03  0.00000000000E+00 0.  1.
         14    1    6    6    0    0  0.15622275307E+01 -0.49127522223E+01 -0.61278512501E+02  0.61494973645E+02  0.00000000000E+00 0. -1.
         -5    1    3    3    0  503  0.41218885762E+02  0.22651264027E+02  0.12256311284E+01  0.47282856060E+02  0.47000000000E+01 0.  1.
         13    1    4    4    0    0 -0.17966344859E+02  0.25060452060E+01 -0.49318203089E+02  0.52548596234E+02  0.00000000000E+00 0. -1.
        -14    1    4    4    0    0  0.79512075720E+02  0.53001456940E+02 -0.25731255870E+03  0.27448329182E+03  0.00000000000E+00 0.  1.
</event>
<event>
12    1  0.1030140E-001  0.1766335E+03  0.7818608E-02  0.1171487E+00
         21   -1    0    0  501  502  0.00000000000E+00  0.00000000000E+00  0.36272351870E+03  0.36272351870E+03  0.00000000000E+00 0. -1.
         21   -1    0    0  502  503 -0.00000000000E+00 -0.00000000000E+00 -0.90783790824E+02  0.90783790824E+02  0.00000000000E+00 0. -1.
         -6    2    1    2    0  503 -0.23382583406E+02  0.27214700541E+02  0.80611983316E+02  0.19415888376E+03  0.17295084607E+03 0.  0.
        -24    2    3    3    0    0 -0.77775013949E+02  0.44929358436E+01  0.25797466932E+02  0.11352677913E+03  0.78445401471E+02 0.  0.
          6    2    1    2  501    0  0.23382583406E+02 -0.27214700541E+02  0.19132774456E+03  0.25934842576E+03  0.17137069462E+03 0.  0.
         24    2    5    5    0    0 -0.33284978703E+02  0.32294881041E+02  0.12148393540E+03  0.15140005582E+03  0.77542125278E+02 0.  0.
          5    1    5    5  501    0  0.56667562110E+02 -0.59509581582E+02  0.69843809162E+02  0.10794836995E+03  0.47000000000E+01 0. -1.
        -13    1    6    6    0    0 -0.56958886799E+02  0.23178835352E+02  0.10318849367E+03  0.12012259746E+03  0.00000000000E+00 0.  1.
         14    1    6    6    0    0  0.23673908095E+02  0.91160456889E+01  0.18295441729E+02  0.31277458362E+02  0.00000000000E+00 0. -1.
         -5    1    3    3    0  503  0.54392430542E+02  0.22721764698E+02  0.54814516384E+02  0.80632104634E+02  0.47000000000E+01 0.  1.
         11    1    4    4    0    0 -0.47707117648E+02 -0.32644873016E+02  0.30767650183E+02  0.65485151800E+02  0.00000000000E+00 0. -1.
        -12    1    4    4    0    0 -0.30067896301E+02  0.37137808859E+02 -0.49701832508E+01  0.48041627329E+02  0.00000000000E+00 0.  1.
</event>
<event>
12    1  0.1030140E-001  0.1803648E+03  0.7818608E-02  0.1167870E+00
         21   -1    0    0  501  502  0.00000000000E+00  0.00000000000E+00  0.26879905706E+03  0.26879905706E+03  0.00000000000E+00 0.  1.
         21   -1    0    0  502  503 -0.00000000000E+00 -0.00000000000E+00 -0.22874643801E+03  0.22874643801E+03  0.00000000000E+00 0.  1.
         -6    2    1    2    0  503  0.41199108594E+02  0.30762063905E+02 -0.15165572266E+03  0.23432783926E+03  0.17107427309E+03 0.  0.
        -24    2    3    3    0    0  0.18950869090E+02  0.69676886089E+02 -0.40710938587E+02  0.11457733755E+03  0.79098557921E+02 0.  0.
          6    2    1    2  501    0 -0.41199108594E+02 -0.30762063905E+02  0.19170834170E+03  0.26321765581E+03  0.17288081133E+03 0.  0.
         24    2    5    5    0    0 -0.47193409291E+02  0.25170467627E+02  0.45139013356E+02  0.10615385432E+03  0.79814409350E+02 0.  0.
          5    1    5    5  501    0  0.59943006970E+01 -0.55932531532E+02  0.14656932835E+03  0.15706380148E+03  0.47000000000E+01 0. -1.
        -13    1    6    6    0    0  0.19071124941E+02  0.13382219831E+02  0.28522107737E+02  0.36828008959E+02  0.00000000000E+00 0.  1.
         14    1    6    6    0    0 -0.66264534232E+02  0.11788247797E+02  0.16616905619E+02  0.69325845364E+02  0.00000000000E+00 0. -1.
         -5    1    3    3    0  503  0.22248239504E+02 -0.38914822184E+02 -0.11094478407E+03  0.11975050171E+03  0.47000000000E+01 0.  1.
         11    1    4    4    0    0  0.39740971885E+02  0.74644427393E+02 -0.39027488218E+02  0.93135816010E+02  0.00000000000E+00 0. -1.
        -12    1    4    4    0    0 -0.20790102795E+02 -0.49675413042E+01 -0.16834503687E+01  0.21441521541E+02  0.00000000000E+00 0.  1.
</event>
<event>
12    1  0.1030140E-001  0.1785946E+03  0.7818608E-02  0.1169456E+00
         21   -1    0    0  501  502  0.00000000000E+00  0.00000000000E+00  0.18696951653E+03  0.18696951653E+03  0.00000000000E+00 0. -1.
         21   -1    0    0  502  503 -0.00000000000E+00 -0.00000000000E+00 -0.21143981686E+03  0.21143981686E+03  0.00000000000E+00 0. -1.
         -6    2    1    2    0  503  0.46091487467E+02 -0.10639600766E+02 -0.10100533134E+03  0.20517820524E+03  0.17221612184E+03 0.  0.
        -24    2    3    3    0    0  0.78166778175E+02  0.38922895746E+02 -0.83762213002E+02  0.14349611331E+03  0.77136172994E+02 0.  0.
          6    2    1    2  501    0 -0.46091487467E+02  0.10639600766E+02  0.76535031014E+02  0.19323112816E+03  0.17100594024E+03 0.  0.
         24    2    5    5    0    0 -0.95066758378E+02 -0.76215401862E+01  0.56605487625E+02  0.13709448123E+03  0.80591185188E+02 0.  0.
          5    1    5    5  501    0  0.48975270911E+02  0.18261140952E+02  0.19929543390E+02  0.56136646937E+02  0.47000000000E+01 0. -1.
        -13    1    6    6    0    0 -0.10593760556E+02 -0.11598308793E+02 -0.18304780082E+02  0.24120810588E+02  0.00000000000E+00 0.  1.
         14    1    6    6    0    0 -0.84472997821E+02  0.39767686072E+01  0.74910267706E+02  0.11297367064E+03  0.00000000000E+00 0. -1.
         -5    1    3    3    0  503 -0.32075290708E+02 -0.49562496512E+02 -0.17243118342E+02  0.61682091928E+02  0.47000000000E+01 0.  1.
         13    1    4    4    0    0  0.19928791619E+02  0.32392591641E+02 -0.75200928592E+02  0.84271088694E+02  0.00000000000E+00 0. -1.
        -14    1    4    4    0    0  0.58237986556E+02  0.65303041049E+01 -0.85612844100E+01  0.59225024614E+02  0.00000000000E+00 0.  1.
</event>
<event>
12    1  0.1030140E-001  0.2399388E+03  0.7818608E-02  0.1119878E+00
         21   -1    0    0  503  502  0.00000000000E+00  0.00000000000E+00  0.12478037159E+03  0.12478037159E+03  0.00000000000E+00 0. -1.
         21   -1    0    0  501  503 -0.00000000000E+00 -0.00000000000E+00 -0.11541214237E+04  0.11541214237E+04  0.00000000000E+00 0. -1.
          6    2    1    2  501    0  0.14756402166E+03 -0.79181614210E+02 -0.10101542021E+04  0.10381971223E+04  0.17145519639E+03 0.  0.
         24    2    3    3    0    0  0.77343120312E+02 -0.75717752290E+02 -0.36311325625E+03  0.38733073906E+03  0.80366213571E+02 0.  0.
         -6    2    1    2    0  502 -0.14756402166E+03  0.79181614210E+02 -0.19186850063E+02  0.24070467297E+03  0.17183054401E+03 0.  0.
        -24    2    5    5    0    0 -0.38229131833E+02 -0.20170137841E+02  0.27255939088E+01  0.91282004102E+02  0.80353434460E+02 0.  0.
          5    1    3    3  501    0  0.70220901349E+02 -0.34638619203E+01 -0.64704094582E+03  0.65086638329E+03  0.47000000000E+01 0. -1.
        -13    1    4    4    0    0  0.76041504197E+02 -0.19991522396E+02 -0.19680547849E+03  0.21193010095E+03  0.00000000000E+00 0.  1.
         14    1    4    4    0    0  0.13016161150E+01 -0.55726229894E+02 -0.16630777777E+03  0.17540063811E+03  0.00000000000E+00 0. -1.
         -5    1    5    5    0  502 -0.10933488983E+03  0.99351752052E+02 -0.21912443972E+02  0.14942266886E+03  0.47000000000E+01 0.  1.
         11    1    6    6    0    0 -0.21598955052E+02  0.26454543739E+02 -0.16810010428E+02  0.38064868243E+02  0.00000000000E+00 0. -1.
        -12    1    6    6    0    0 -0.16630176782E+02 -0.46624681580E+02  0.19535604337E+02  0.53217135859E+02  0.00000000000E+00 0.  1.
</event>
<event>
12    1  0.1030140E-001  0.2805704E+03  0.7818608E-02  0.1095843E+00
         21   -1    0    0  501  502  0.00000000000E+00  0.00000000000E+00  0.12080872695E+03  0.12080872695E+03  0.00000000000E+00 0.  1.
         21   -1    0    0  502  503 -0.00000000000E+00 -0.00000000000E+00 -0.65357224570E+03  0.65357224570E+03  0.00000000000E+00 0. -1.
         -6    2    1    2    0  503  0.20100253895E+03 -0.81747731804E+02 -0.31224115344E+03  0.41751986382E+03  0.17246329019E+03 0.  0.
        -24    2    3    3    0    0  0.21084785811E+03 -0.10568851330E+03 -0.25803817296E+03  0.35726918398E+03  0.73693215468E+02 0.  0.
          6    2    1    2  501    0 -0.20100253895E+03  0.81747731804E+02 -0.22052236531E+03  0.35686110882E+03  0.17786237678E+03 0.  0.
         24    2    5    5    0    0 -0.13213314820E+03 -0.20226339480E+02 -0.14472429023E+03  0.21226116975E+03  0.79002597031E+02 0.  0.
          5    1    5    5  501    0 -0.68869390743E+02  0.10197407128E+03 -0.75798075071E+02  0.14459993907E+03  0.47000000000E+01 0. -1.
        -13    1    6    6    0    0  0.46914286736E+01  0.10374477703E+02 -0.92427817751E+00  0.11423378693E+02  0.00000000000E+00 0.  1.
         14    1    6    6    0    0 -0.13682457688E+03 -0.30600817182E+02 -0.14380001206E+03  0.20083779106E+03  0.00000000000E+00 0. -1.
         -5    1    3    3    0  503 -0.98453191631E+01  0.23940781494E+02 -0.54202980483E+02  0.60250679840E+02  0.47000000000E+01 0.  1.
         13    1    4    4    0    0  0.28271289852E+02 -0.47666590329E+02 -0.53633765770E+02  0.77122956985E+02  0.00000000000E+00 0. -1.
        -14    1    4    4    0    0  0.18257656826E+03 -0.58021922970E+02 -0.20440440719E+03  0.28014622700E+03  0.00000000000E+00 0.  1.
</event>
<event>
12    1  0.1030140E-001  0.2386912E+03  0.7818608E-02  0.1120727E+00
         21   -1    0    0  503  502  0.00000000000E+00  0.00000000000E+00  0.43205013330E+02  0.43205013330E+02  0.00000000000E+00 0.  1.
         21   -1    0    0  501  503 -0.00000000000E+00 -0.00000000000E+00 -0.21280111446E+04  0.21280111446E+04  0.00000000000E+00 0. -1.
          6    2    1    2  501    0  0.14904528662E+03 -0.69967051663E+02 -0.17122326290E+04  0.17287407325E+04  0.17231964047E+03 0.  0.
         24    2    3    3    0    0  0.16665351626E+03 -0.55020752977E+02 -0.11506314508E+04  0.11666451757E+04  0.79420102248E+02 0.  0.
         -6    2    1    2    0  502 -0.14904528662E+03  0.69967051663E+02 -0.37257350230E+03  0.44247542550E+03  0.17281088441E+03 0.  0.
        -24    2    5    5    0    0 -0.83583056563E+02  0.10708662688E+03 -0.29660380923E+03  0.33543968056E+03  0.78053101436E+02 0.  0.
          5    1    3    3  501    0 -0.17608229640E+02 -0.14946298686E+02 -0.56160117822E+03  0.56209555680E+03  0.47000000000E+01 0. -1.
        -11    1    4    4    0    0  0.46364079725E+02 -0.53162574215E+01 -0.13785987253E+03  0.14554461493E+03  0.00000000000E+00 0.  1.
         12    1    4    4    0    0  0.12028943653E+03 -0.49704495556E+02 -0.10127715782E+04  0.10211005607E+04  0.00000000000E+00 0. -1.
         -5    1    5    5    0  502 -0.65462230054E+02 -0.37119575222E+02 -0.75969693071E+02  0.10703574493E+03  0.47000000000E+01 0.  1.
         11    1    6    6    0    0 -0.40914357531E+02  0.49245273687E+02 -0.22520174673E+03  0.23412583873E+03  0.00000000000E+00 0. -1.
        -12    1    6    6    0    0 -0.42668699032E+02  0.57841353198E+02 -0.71402062504E+02  0.10131384183E+03  0.00000000000E+00 0.  1.
</event>
<event>
12    1  0.1030140E-001  0.1931304E+03  0.7818608E-02  0.1155883E+00
         21   -1    0    0  501  502  0.00000000000E+00  0.00000000000E+00  0.36676146949E+02  0.36676146949E+02  0.00000000000E+00 0.  1.
         21   -1    0    0  502  503 -0.00000000000E+00 -0.00000000000E+00 -0.13794367627E+04  0.13794367627E+04  0.00000000000E+00 0.  1.
         -6    2    1    2    0  503  0.23603061968E+01 -0.86146868321E+02 -0.10356321364E+04  0.10533082154E+04  0.17174813128E+03 0.  0.
        -24    2    3    3    0    0 -0.20805378504E+02 -0.89059690208E+01 -0.24877471032E+03  0.26231548184E+03  0.80052329516E+02 0.  0.
          6    2    1    2  501    0 -0.23603061968E+01  0.86146868321E+02 -0.30712847933E+03  0.36280469428E+03  0.17283659743E+03 0.  0.
         24    2    5    5    0    0 -0.40751615913E+02  0.98769573027E+01 -0.77785727521E+02  0.11803709064E+03  0.78255267392E+02 0.  0.
          5    1    5    5  501    0  0.38391309717E+02  0.76269911019E+02 -0.22934275180E+03  0.24476760364E+03  0.47000000000E+01 0. -1.
        -11    1    6    6    0    0 -0.18447270866E+02  0.41652371679E+02 -0.60001702048E+02  0.75335424055E+02  0.00000000000E+00 0.  1.
         12    1    6    6    0    0 -0.22304345047E+02 -0.31775414376E+02 -0.17784025473E+02  0.42701666581E+02  0.00000000000E+00 0. -1.
         -5    1    3    3    0  503  0.23165684701E+02 -0.77240899301E+02 -0.78685742610E+03  0.79099273352E+03  0.47000000000E+01 0.  1.
         13    1    4    4    0    0 -0.14608672251E+02 -0.42748160929E+02 -0.10189899010E+03  0.11146399756E+03  0.00000000000E+00 0. -1.
        -14    1    4    4    0    0 -0.61967062533E+01  0.33842191908E+02 -0.14687572021E+03  0.15085148428E+03  0.00000000000E+00 0.  1.
</event>
<event>
12    1  0.1030140E-001  0.2205855E+03  0.7818608E-02  0.1133881E+00
         21   -1    0    0  501  502  0.00000000000E+00  0.00000000000E+00  0.12069038423E+03  0.12069038423E+03  0.00000000000E+00 0. -1.
         21   -1    0    0  502  503 -0.00000000000E+00 -0.00000000000E+00 -0.40066286461E+03  0.40066286461E+03  0.00000000000E+00 0.  1.
         -6    2    1    2    0  503  0.73855810717E+02 -0.11592673872E+03 -0.15638034450E+03  0.26850354246E+03  0.16954542352E+03 0.  0.
        -24    2    3    3    0    0  0.80128047467E+02 -0.64263827112E+02 -0.33174907065E+02  0.13467504324E+03  0.80538496049E+02 0.  0.
          6    2    1    2  501    0 -0.73855810717E+02  0.11592673872E+03 -0.12359213588E+03  0.25284970638E+03  0.17252324028E+03 0.  0.
         24    2    5    5    0    0 -0.11739300910E+03  0.90719908172E+02 -0.80031105468E+02  0.18613744874E+03  0.78936377261E+02 0.  0.
          5    1    5    5  501    0  0.43537198384E+02  0.25206830551E+02 -0.43561030411E+02  0.66712257645E+02  0.47000000000E+01 0. -1.
        -13    1    6    6    0    0 -0.93588399849E+02  0.30046430609E+02 -0.68853141522E+02  0.12000971492E+03  0.00000000000E+00 0.  1.
         14    1    6    6    0    0 -0.23804609253E+02  0.60673477563E+02 -0.11177963945E+02  0.66127733813E+02  0.00000000000E+00 0. -1.
         -5    1    3    3    0  503 -0.62722367492E+01 -0.51662911611E+02 -0.12320543744E+03  0.13382849922E+03  0.47000000000E+01 0.  1.
         13    1    4    4    0    0 -0.15851244251E+02 -0.12671358513E+02 -0.12289381548E+02  0.23724547829E+02  0.00000000000E+00 0. -1.
        -14    1    4    4    0    0  0.95979291718E+02 -0.51592468599E+02 -0.20885525517E+02  0.11095049541E+03  0.00000000000E+00 0.  1.
</event>
<event>
12    1  0.1030140E-001  0.1987424E+03  0.7818608E-02  0.1151156E+00
         21   -1    0    0  503  502  0.00000000000E+00  0.00000000000E+00  0.47292451236E+03  0.47292451236E+03  0.00000000000E+00 0. -1.
         21   -1    0    0  501  503 -0.00000000000E+00 -0.00000000000E+00 -0.91189996751E+02  0.91189996751E+02  0.00000000000E+00 0.  1.
          6    2    1    2  501    0 -0.46418856000E+02  0.85373366185E+02  0.10473876595E+03  0.22319637512E+03  0.17147329508E+03 0.  0.
         24    2    3    3    0    0 -0.72636657175E+02  0.84948593098E+02  0.12805170366E+03  0.18779670569E+03  0.79862484452E+02 0.  0.
         -6    2    1    2    0  502  0.46418856000E+02 -0.85373366185E+02  0.27699574965E+03  0.34091813399E+03  0.17336437613E+03 0.  0.
        -24    2    5    5    0    0  0.99964929748E+01 -0.12012519389E+03  0.17254567427E+03  0.22487423581E+03  0.79160723486E+02 0.  0.
          5    1    3    3  501    0  0.26217801174E+02  0.42477308680E+00 -0.23312937711E+02  0.35399669424E+02  0.47000000000E+01 0. -1.
        -13    1    4    4    0    0 -0.62702265675E+02  0.14472142972E+02  0.45567702088E+02  0.78850697629E+02  0.00000000000E+00 0.  1.
         14    1    4    4    0    0 -0.99343914993E+01  0.70476450127E+02  0.82484001577E+02  0.10894600806E+03  0.00000000000E+00 0. -1.
         -5    1    5    5    0  502  0.36422363025E+02  0.34751827708E+02  0.10445007538E+03  0.11604389818E+03  0.47000000000E+01 0.  1.
         13    1    6    6    0    0  0.23094857179E+02 -0.28351577615E+01  0.47714220602E+02  0.53085378357E+02  0.00000000000E+00 0. -1.
        -14    1    6    6    0    0 -0.13098364205E+02 -0.11729003613E+03  0.12483145367E+03  0.17178885745E+03  0.00000000000E+00 0.  1.
</event>
<event>
12    1  0.1030140E-001  0.1840416E+03  0.7818608E-02  0.1165584E+00
         21   -1    0    0  501  502  0.00000000000E+00  0.00000000000E+00  0.34572210981E+03  0.34572210981E+03  0.00000000000E+00 0.  1.
         21   -1    0    0  502  503 -0.00000000000E+00 -0.00000000000E+00 -0.23031299211E+03  0.23031299211E+03  0.00000000000E+00 0.  1.
         -6    2    1    2    0  503 -0.14142623014E+01  0.45899364955E+02 -0.16310592904E+03  0.24591637302E+03  0.17822055603E+03 0.  0.
        -24    2    3    3    0    0  0.45510827185E+02 -0.32677837765E+02 -0.70910361890E+02  0.11592232157E+03  0.72599096019E+02 0.  0.
          6    2    1    2  501    0  0.14142623014E+01 -0.45899364955E+02  0.27851504674E+03  0.33011872890E+03  0.17116948346E+03 0.  0.
         24    2    5    5    0    0  0.27403609671E+01 -0.75868190562E+02  0.10101896936E+03  0.15004419841E+03  0.80900787318E+02 0.  0.
          5    1    5    5  501    0 -0.13260986658E+01  0.29968825607E+02  0.17749607738E+03  0.18007453049E+03  0.47000000000E+01 0. -1.
        -13    1    6    6    0    0 -0.18144318371E+02 -0.75204037645E+02  0.10326437872E+03  0.12902866146E+03  0.00000000000E+00 0.  1.
         14    1    6    6    0    0  0.20884679339E+02 -0.66415291677E+00 -0.22454093515E+01  0.21015536951E+02  0.00000000000E+00 0. -1.
         -5    1    3    3    0  503 -0.46925089486E+02  0.78577202719E+02 -0.92195567155E+02  0.12999405145E+03  0.47000000000E+01 0.  1.
         13    1    4    4    0    0  0.26613009195E+02 -0.49502590310E+02 -0.71085464725E+02  0.90619545359E+02  0.00000000000E+00 0. -1.
        -14    1    4    4    0    0  0.18897817990E+02  0.16824752545E+02  0.17510283498E+00  0.25302776212E+02  0.00000000000E+00 0.  1.
</event>
<event>
12    1  0.1030140E-001  0.1756495E+03  0.7818608E-02  0.1175865E+00
         21   -1    0    0  503  502  0.00000000000E+00  0.00000000000E+00  0.27087263724E+04  0.27087263724E+04  0.00000000000E+00 0. -1.
         21   -1    0    0  501  503 -0.00000000000E+00 -0.00000000000E+00 -0.12224739742E+02  0.12224739742E+02  0.00000000000E+00 0. -1.
          6    2    1    2  501    0 -0.26652893099E+02  0.26143152696E+01  0.78380721568E+03  0.80020836718E+03  0.15894171320E+03 0.  0.
         24    2    3    3    0    0 -0.15773042368E+02 -0.43802563313E+02  0.67403117267E+03  0.68043454956E+03  0.80657926321E+02 0.  0.
         -6    2    1    2    0  502  0.26652893099E+02 -0.26143152696E+01  0.19126944170E+04  0.19207427449E+04  0.17359593381E+03 0.  0.
        -24    2    5    5    0    0 -0.97722643937E+01 -0.42723238489E+02  0.16568807155E+04  0.16592121393E+04  0.76226279184E+02 0.  0.
          5    1    3    3  501    0 -0.10879850731E+02  0.46416878583E+02  0.10977604301E+03  0.11977381762E+03  0.47000000000E+01 0. -1.
        -11    1    4    4    0    0  0.30302627314E+02 -0.97820707320E+01  0.15390990451E+03  0.15716932536E+03  0.00000000000E+00 0.  1.
         12    1    4    4    0    0 -0.46075669682E+02 -0.34020492581E+02  0.52012126817E+03  0.52326522419E+03  0.00000000000E+00 0. -1.
         -5    1    5    5    0  502  0.36425157492E+02  0.40108923219E+02  0.25581370145E+03  0.26153060561E+03  0.47000000000E+01 0.  1.
         13    1    6    6    0    0  0.24755269900E+02 -0.46405418554E+02  0.90026403511E+03  0.90179910133E+03  0.00000000000E+00 0. -1.
        -14    1    6    6    0    0 -0.34527534294E+02  0.36821800655E+01  0.75661668040E+03  0.75741303800E+03  0.00000000000E+00 0.  1.
</event>
<event>
12    1  0.1030140E-001  0.1826162E+03  0.7818608E-02  0.1166070E+00
         21   -1    0    0  503  502  0.00000000000E+00  0.00000000000E+00  0.64870201923E+02  0.64870201923E+02  0.00000000000E+00 0.  1.
         21   -1    0    0  501  503 -0.00000000000E+00 -0.00000000000E+00 -0.54201687816E+03  0.54201687816E+03  0.00000000000E+00 0.  1.
          6    2    1    2  501    0 -0.32386188235E+02 -0.40804678887E+02 -0.31982997469E+03  0.36829319843E+03  0.17502794148E+03 0.  0.
         24    2    3    3    0    0  0.31104309764E+02  0.26843537296E+02 -0.14538514014E+03  0.17065611996E+03  0.79363837640E+02 0.  0.
         -6    2    1    2    0  502  0.32386188235E+02  0.40804678887E+02 -0.15731670156E+03  0.23859388165E+03  0.17165258159E+03 0.  0.
        -24    2    5    5    0    0  0.58608140181E+01  0.18276497760E+02 -0.18131505437E+03  0.19606006734E+03  0.72083434651E+02 0.  0.
          5    1    3    3  501    0 -0.63490497999E+02 -0.67648216183E+02 -0.17444483455E+03  0.19763707848E+03  0.47000000000E+01 0. -1.
        -13    1    4    4    0    0  0.34378962285E+02 -0.20313265142E+02 -0.48258302259E+02  0.62637093846E+02  0.00000000000E+00 0.  1.
         14    1    4    4    0    0 -0.32746525208E+01  0.47156802438E+02 -0.97126837881E+02  0.10801902611E+03  0.00000000000E+00 0. -1.
         -5    1    5    5    0  502  0.26525374217E+02  0.22528181127E+02  0.23998352817E+02  0.42533814315E+02  0.47000000000E+01 0.  1.
         11    1    6    6    0    0  0.15233631112E+02  0.43298994952E+02 -0.13500050829E+03  0.14259033529E+03  0.00000000000E+00 0. -1.
        -12    1    6    6    0    0 -0.93728170941E+01 -0.25022497192E+02 -0.46314546084E+02  0.53469732045E+02  0.00000000000E+00 0.  1.
</event>
<event>
12    1  0.1030140E-001  0.1842215E+03  0.7818608E-02  0.1164110E+00
         21   -1    0    0  501  502  0.00000000000E+00  0.00000000000E+00  0.32658429250E+03  0.32658429250E+03  0.00000000000E+00 0. -1.
         21   -1    0    0  502  503 -0.00000000000E+00 -0.00000000000E+00 -0.29376203104E+03  0.29376203104E+03  0.00000000000E+00 0. -1.
         -6    2    1    2    0  503 -0.17679041290E+02  0.58777765766E+02 -0.23347710225E+03  0.29653633244E+03  0.17220587949E+03 0.  0.
        -24    2    3    3    0    0 -0.41041807385E+02 -0.68965555723E+01 -0.19982138902E+03  0.21898807420E+03  0.79342275605E+02 0.  0.
          6    2    1    2  501    0  0.17679041290E+02 -0.58777765766E+02  0.26629936370E+03  0.32380999111E+03  0.17369566772E+03 0.  0.
         24    2    5    5    0    0  0.76642918991E+02 -0.59357905871E+02  0.17768343377E+03  0.21726446810E+03  0.78961689704E+02 0.  0.
          5    1    5    5  501    0 -0.58963877701E+02  0.58014010509E+00  0.88615929928E+02  0.10654552301E+03  0.47000000000E+01 0. -1.
        -11    1    6    6    0    0 -0.32766152571E+01 -0.37403267346E+02  0.30597687155E+02  0.48435101682E+02  0.00000000000E+00 0.  1.
         12    1    6    6    0    0  0.79919534248E+02 -0.21954638525E+02  0.14708574662E+03  0.16882936642E+03  0.00000000000E+00 0. -1.
         -5    1    3    3    0  503  0.23362766096E+02  0.65674321338E+02 -0.33655713224E+02  0.77548258236E+02  0.47000000000E+01 0.  1.
         13    1    4    4    0    0  0.12646074314E+02 -0.26112483260E+02 -0.40897965828E+02  0.50144078279E+02  0.00000000000E+00 0. -1.
        -14    1    4    4    0    0 -0.53687881699E+02  0.19215927688E+02 -0.15892342319E+03  0.16884399592E+03  0.00000000000E+00 0.  1.
</event>
<event>
12    1  0.1030140E-001  0.2091067E+03  0.7818608E-02  0.1142378E+00
         21   -1    0    0  503  502  0.00000000000E+00  0.00000000000E+00  0.42227235209E+03  0.42227235209E+03  0.00000000000E+00 0.  1.
         21   -1    0    0  501  503 -0.00000000000E+00 -0.00000000000E+00 -0.21403539767E+03  0.21403539767E+03  0.00000000000E+00 0.  1.
          6    2    1    2  501    0 -0.58465544783E+02  0.10304832923E+03 -0.12479220917E+03  0.24307241396E+03  0.17167971597E+03 0.  0.
         24    2    3    3    0    0 -0.89284979299E+02  0.11342956889E+03 -0.13004010174E+03  0.20979722715E+03  0.79160430978E+02 0.  0.
         -6    2    1    2    0  502  0.58465544783E+02 -0.10304832923E+03  0.33302916359E+03  0.39323533580E+03  0.17230330073E+03 0.  0.
        -24    2    5    5    0    0  0.19573178311E+02 -0.72457135814E+02  0.32442259841E+03  0.34279130495E+03  0.81380037815E+02 0.  0.
          5    1    3    3  501    0  0.30819434516E+02 -0.10381239662E+02  0.52478925703E+01  0.33275186810E+02  0.47000000000E+01 0. -1.
        -13    1    4    4    0    0 -0.18919755797E+02  0.85056077954E+02 -0.54739467588E+02  0.10290239486E+03  0.00000000000E+00 0.  1.
         14    1    4    4    0    0 -0.70365223502E+02  0.28373490933E+02 -0.75300634152E+02  0.10689483229E+03  0.00000000000E+00 0. -1.
         -5    1    5    5    0  502  0.38892366472E+02 -0.30591193411E+02  0.86065651795E+01  0.50444030849E+02  0.47000000000E+01 0.  1.
         11    1    6    6    0    0 -0.26999160315E+02 -0.18379771808E+02  0.16384161258E+03  0.16706539044E+03  0.00000000000E+00 0. -1.
        -12    1    6    6    0    0  0.46572338626E+02 -0.54077364006E+02  0.16058098582E+03  0.17572591451E+03  0.00000000000E+00 0.  1.
</event>
<event>
12    1  0.1030140E-001  0.1902221E+03  0.7818608E-02  0.1158574E+00
         21   -1    0    0  503  502  0.00000000000E+00  0.00000000000E+00  0.75766668724E+03  0.75766668724E+03  0.00000000000E+00 0. -1.
         21   -1    0    0  501  503 -0.00000000000E+00 -0.00000000000E+00 -0.61929140260E+02  0.61929140260E+02  0.00000000000E+00 0.  1.
          6    2    1    2  501    0 -0.75235741904E+02 -0.24813228833E+02  0.15042338420E+03  0.24251110997E+03  0.17294025199E+03 0.  0.
         24    2    3    3    0    0  0.12601808544E+02 -0.10514232430E+02  0.16076961293E+02  0.81294026772E+02  0.77980096449E+02 0.  0.
         -6    2    1    2    0  502  0.75235741904E+02  0.24813228833E+02  0.54531416278E+03  0.57708471753E+03  0.17141505737E+03 0.  0.
        -24    2    5    5    0    0  0.37443712690E+01 -0.22490637921E+02  0.37700252278E+03  0.38814141904E+03  0.89459543259E+02 0.  0.
          5    1    3    3  501    0 -0.87837550448E+02 -0.14298996403E+02  0.13434642290E+03  0.16121708320E+03  0.47000000000E+01 0. -1.
        -11    1    4    4    0    0  0.15289020731E+02 -0.38059804891E+02  0.29511323201E+02  0.50529408272E+02  0.00000000000E+00 0.  1.
         12    1    4    4    0    0 -0.26872121872E+01  0.27545572461E+02 -0.13434361908E+02  0.30764618500E+02  0.00000000000E+00 0. -1.
         -5    1    5    5    0  502  0.71491370635E+02  0.47303866754E+02  0.16831164000E+03  0.18894329849E+03  0.47000000000E+01 0.  1.
         13    1    6    6    0    0 -0.35012069067E+02  0.12606904540E+02  0.11170086034E+03  0.11773640569E+03  0.00000000000E+00 0. -1.
        -14    1    6    6    0    0  0.38756440336E+02 -0.35097542461E+02  0.26530166243E+03  0.27040501335E+03  0.00000000000E+00 0.  1.
</event>
<event>
12    1  0.1030140E-001  0.2342294E+03  0.7818608E-02  0.1123848E+00
         21   -1    0    0  501  502  0.00000000000E+00  0.00000000000E+00  0.25565950624E+03  0.25565950624E+03  0.00000000000E+00 0.  1.
         21   -1    0    0  502  503 -0.00000000000E+00 -0.00000000000E+00 -0.37376643410E+03  0.37376643410E+03  0.00000000000E+00 0. -1.
         -6    2    1    2    0  503 -0.29550311149E+02 -0.15516940055E+03 -0.26487905973E+03  0.35301050610E+03  0.17176943085E+03 0.  0.
        -24    2    3    3    0    0  0.45393732539E+02 -0.10282419167E+03 -0.18904455940E+03  0.23414254567E+03  0.80321111200E+02 0.  0.
          6    2    1    2  501    0  0.29550311149E+02  0.15516940055E+03  0.14677213188E+03  0.27641543424E+03  0.17295279656E+03 0.  0.
         24    2    5    5    0    0  0.36056879297E+02  0.47083858658E+02  0.63353731364E+01  0.99019287161E+02  0.79042355647E+02 0.  0.
          5    1    5    5  501    0 -0.65065681477E+01  0.10808554189E+03  0.14043675874E+03  0.17739614708E+03  0.47000000000E+01 0. -1.
        -11    1    6    6    0    0  0.47624025631E+02  0.12756917620E+02  0.28111466904E+02  0.56754218663E+02  0.00000000000E+00 0.  1.
         12    1    6    6    0    0 -0.11567146334E+02  0.34326941038E+02 -0.21776093768E+02  0.42265068498E+02  0.00000000000E+00 0. -1.
         -5    1    3    3    0  503 -0.74944043688E+02 -0.52345208877E+02 -0.75834500328E+02  0.11886796043E+03  0.47000000000E+01 0.  1.
         11    1    4    4    0    0  0.39354948938E+02 -0.40695942880E+02 -0.15046190758E+03  0.16075993719E+03  0.00000000000E+00 0. -1.
        -12    1    4    4    0    0  0.60387836001E+01 -0.62128248790E+02 -0.38582651827E+02  0.73382608478E+02  0.00000000000E+00 0.  1.
</event>
<event>
12    1  0.1030140E-001  0.1942469E+03  0.7818608E-02  0.1154998E+00
         21   -1    0    0  501  502  0.00000000000E+00  0.00000000000E+00  0.55018338023E+03  0.55018338023E+03  0.00000000000E+00 0. -1.
         21   -1    0    0  502  503 -0.00000000000E+00 -0.00000000000E+00 -0.26076956327E+03  0.26076956327E+03  0.00000000000E+00 0. -1.
         -6    2    1    2    0  503  0.87997945905E+02 -0.99641764845E+01 -0.20370438642E+03  0.28147349803E+03  0.17288415125E+03 0.  0.
        -24    2    3    3    0    0  0.69745455488E+02 -0.59671766477E+02 -0.10416681158E+03  0.16862928367E+03  0.95707692493E+02 0.  0.
          6    2    1    2  501    0 -0.87997945905E+02  0.99641764845E+01  0.49311820337E+03  0.52947944546E+03  0.17128922143E+03 0.  0.
         24    2    5    5    0    0 -0.39441063899E+02  0.39293231966E+02  0.14120960688E+03  0.17299702715E+03  0.82995558477E+02 0.  0.
          5    1    5    5  501    0 -0.48556882006E+02 -0.29329055482E+02  0.35190859649E+03  0.35648241832E+03  0.47000000000E+01 0. -1.
        -11    1    6    6    0    0 -0.73638844296E+01 -0.22442487600E+02  0.68077990471E+02  0.72059037116E+02  0.00000000000E+00 0.  1.
         12    1    6    6    0    0 -0.32077179469E+02  0.61735719566E+02  0.73131616410E+02  0.10093799003E+03  0.00000000000E+00 0. -1.
         -5    1    3    3    0  503  0.18252490417E+02  0.49707589993E+02 -0.99537574844E+02  0.11284421436E+03  0.47000000000E+01 0.  1.
         11    1    4    4    0    0  0.84559588220E+02 -0.28311014097E+02 -0.99534929940E+02  0.13363771832E+03  0.00000000000E+00 0. -1.
        -12    1    4    4    0    0 -0.14814132732E+02 -0.31360752380E+02 -0.46318816349E+01  0.34991565354E+02  0.00000000000E+00 0.  1.
</event>
<event>
12    1  0.1030140E-001  0.2473135E+03  0.7818608E-02  0.1115640E+00
         21   -1    0    0  501  502  0.00000000000E+00  0.00000000000E+00  0.26118942432E+03  0.26118942432E+03  0.00000000000E+00 0. -1.
         21   -1    0    0  502  503 -0.00000000000E+00 -0.00000000000E+00 -0.23082362531E+03  0.23082362531E+03  0.00000000000E+00 0.  1.
         -6    2    1    2    0  503 -0.10612426498E+03  0.14226992419E+03  0.64244411310E+01  0.24739688133E+03  0.17222326353E+03 0.  0.
        -24    2    3    3    0    0 -0.11396375079E+03  0.99528238397E+02  0.57385190312E+02  0.18025972918E+03  0.79416013283E+02 0.  0.
          6    2    1    2  501    0  0.10612426498E+03 -0.14226992419E+03  0.23941357885E+02  0.24461616830E+03  0.16661569623E+03 0.  0.
         24    2    5    5    0    0  0.12040969901E+03 -0.16279626939E+03  0.17670026292E+02  0.21840883970E+03  0.79931661363E+02 0.  0.
          5    1    5    5  501    0 -0.14285434024E+02  0.20526345200E+02  0.62713315936E+01  0.26207328602E+02  0.47000000000E+01 0. -1.
        -11    1    6    6    0    0  0.30363333210E+02 -0.10409587130E+03  0.22767140965E+02  0.11079812784E+03  0.00000000000E+00 0.  1.
         12    1    6    6    0    0  0.90046365797E+02 -0.58700398089E+02 -0.50971146730E+01  0.10761071186E+03  0.00000000000E+00 0. -1.
         -5    1    3    3    0  503  0.78394858030E+01  0.42741685789E+02 -0.50960749181E+02  0.67137152150E+02  0.47000000000E+01 0.  1.
         13    1    4    4    0    0 -0.35263724194E+02  0.28219793879E+02 -0.19453681857E+02  0.49176546732E+02  0.00000000000E+00 0. -1.
        -14    1    4    4    0    0 -0.78700026591E+02  0.71308444518E+02  0.76838872168E+02  0.13108318245E+03  0.00000000000E+00 0.  1.
</event>
<event>
12    1  0.1030140E-001  0.2133204E+03  0.7818608E-02  0.1139607E+00
         21   -1    0    0  501  502  0.00000000000E+00  0.00000000000E+00  0.92399774992E+03  0.92399774992E+03  0.00000000000E+00 0. -1.
         21   -1    0    0  502  503 -0.00000000000E+00 -0.00000000000E+00 -0.22793288348E+03  0.22793288348E+03  0.00000000000E+00 0. -1.
         -6    2    1    2    0  503 -0.74464338317E+02  0.10103051397E+03 -0.16357934191E+03  0.26621411454E+03  0.16840324000E+03 0.  0.
        -24    2    3    3    0    0 -0.16512837781E+02 -0.11093036186E+02 -0.50674273333E+02  0.96804222780E+02  0.80046525888E+02 0.  0.
          6    2    1    2  501    0  0.74464338317E+02 -0.10103051397E+03  0.85964420835E+03  0.88571651886E+03  0.17249198360E+03 0.  0.
         24    2    5    5    0    0 -0.13839724933E+01 -0.24177108732E+02  0.58064803816E+03  0.58651697821E+03  0.79142741544E+02 0.  0.
          5    1    5    5  501    0  0.75848310811E+02 -0.76853405235E+02  0.27899617019E+03  0.29919954066E+03  0.47000000000E+01 0. -1.
        -11    1    6    6    0    0 -0.77891204968E+01  0.28166493616E+02  0.16948451278E+03  0.17198552798E+03  0.00000000000E+00 0.  1.
         12    1    6    6    0    0  0.64051480035E+01 -0.52343602349E+02  0.41116352538E+03  0.41453145023E+03  0.00000000000E+00 0. -1.
         -5    1    3    3    0  503 -0.57951500536E+02  0.11212355015E+03 -0.11290506858E+03  0.16940989176E+03  0.47000000000E+01 0.  1.
         11    1    4    4    0    0 -0.41533248563E+02  0.16971859315E+02 -0.28507901102E+02  0.53157832631E+02  0.00000000000E+00 0. -1.
        -12    1    4    4    0    0  0.25020410782E+02 -0.28064895501E+02 -0.22166372231E+02  0.43646390149E+02  0.00000000000E+00 0.  1.
</event>
<event>
12    1  0.1030140E-001  0.5319917E+03  0.7818608E-02  0.1005767E+00
         21   -1    0    0  501  502  0.00000000000E+00  0.00000000000E+00  0.14498082692E+04  0.14498082692E+04  0.00000000000E+00 0.  1.
         21   -1    0    0  502  503 -0.00000000000E+00 -0.00000000000E+00 -0.22696030561E+03  0.22696030561E+03  0.00000000000E+00 0. -1.
         -6    2    1    2    0  503  0.47043079848E+03  0.18010061916E+03  0.29748638727E+03  0.60951892388E+03  0.17109587599E+03 0.  0.
        -24    2    3    3    0    0  0.45680936456E+03  0.19732351603E+03  0.30098520486E+03  0.58679221353E+03  0.78240927883E+02 0.  0.
          6    2    1    2  501    0 -0.47043079848E+03 -0.18010061916E+03  0.92536157635E+03  0.10672496510E+04  0.17025393182E+03 0.  0.
         24    2    5    5    0    0 -0.13593283864E+03 -0.70404617469E+02  0.39029662829E+03  0.42675087144E+03  0.79688778611E+02 0.  0.
          5    1    5    5  501    0 -0.33449795983E+03 -0.10969600169E+03  0.53506494807E+03  0.64049877952E+03  0.47000000000E+01 0. -1.
        -11    1    6    6    0    0 -0.92768271473E+02 -0.46906883671E+01  0.18749572042E+03  0.20924292085E+03  0.00000000000E+00 0.  1.
         12    1    6    6    0    0 -0.43164567169E+02 -0.65713929102E+02  0.20280090786E+03  0.21750795058E+03  0.00000000000E+00 0. -1.
         -5    1    3    3    0  503  0.13621433919E+02 -0.17222896870E+02 -0.34988175869E+01  0.22726710345E+02  0.47000000000E+01 0.  1.
         11    1    4    4    0    0  0.72388057677E+02  0.61281670142E+02  0.42073678132E+02  0.10375773890E+03  0.00000000000E+00 0. -1.
        -12    1    4    4    0    0  0.38442130688E+03  0.13604184589E+03  0.25891152673E+03  0.48303447464E+03  0.00000000000E+00 0.  1.
</event>
<event>
12    1  0.1030140E-001  0.2105177E+03  0.7818608E-02  0.1141238E+00
         21   -1    0    0  503  502  0.00000000000E+00  0.00000000000E+00  0.17858279740E+03  0.17858279740E+03  0.00000000000E+00 0.  1.
         21   -1    0    0  501  503 -0.00000000000E+00 -0.00000000000E+00 -0.43592221808E+03  0.43592221808E+03  0.00000000000E+00 0. -1.
          6    2    1    2  501    0 -0.81531232221E+02  0.89792062982E+02 -0.33064879344E+03  0.39197746092E+03  0.17206902356E+03 0.  0.
         24    2    3    3    0    0 -0.67047381593E+02  0.11371262443E+03 -0.32902663128E+03  0.36357505611E+03  0.80637367265E+02 0.  0.
         -6    2    1    2    0  502  0.81531232221E+02 -0.89792062982E+02  0.73309372759E+02  0.22252755455E+03  0.17156425035E+03 0.  0.
        -24    2    5    5    0    0 -0.13742739674E+02 -0.67543193260E+02  0.59912364285E+02  0.12366547001E+03  0.83382919286E+02 0.  0.
          5    1    3    3  501    0 -0.14483850628E+02 -0.23920561453E+02 -0.16221621591E+01  0.28402404815E+02  0.47000000000E+01 0. -1.
        -13    1    4    4    0    0 -0.16075308446E+02  0.30044528461E+02 -0.20271424183E+02  0.39648705786E+02  0.00000000000E+00 0.  1.
         14    1    4    4    0    0 -0.50972073147E+02  0.83668095974E+02 -0.30875520710E+03  0.32392635032E+03  0.00000000000E+00 0. -1.
         -5    1    5    5    0  502  0.95273971895E+02 -0.22248869722E+02  0.13397008473E+02  0.98862084545E+02  0.47000000000E+01 0.  1.
         13    1    6    6    0    0 -0.78156171893E+01  0.19212226759E+02  0.70794727343E+01  0.21916032106E+02  0.00000000000E+00 0. -1.
        -14    1    6    6    0    0 -0.59271224843E+01 -0.86755420019E+02  0.52832891551E+02  0.10174943790E+03  0.00000000000E+00 0.  1.
</event>
<event>
12    1  0.1030140E-001  0.1873316E+03  0.7818608E-02  0.1160978E+00
         21   -1    0    0  503  502  0.00000000000E+00  0.00000000000E+00  0.21748997377E+03  0.21748997377E+03  0.00000000000E+00 0.  1.
         21   -1    0    0  501  503 -0.00000000000E+00 -0.00000000000E+00 -0.14567977332E+04  0.14567977332E+04  0.00000000000E+00 0. -1.
          6    2    1    2  501    0  0.37233293196E+02  0.63576661648E+02 -0.14092471896E+04  0.14216436858E+04  0.17223477593E+03 0.  0.
         24    2    3    3    0    0  0.84005943490E+01  0.95958552618E+02 -0.67495305912E+03  0.68605557320E+03  0.76367556579E+02 0.  0.
         -6    2    1    2    0  502 -0.37233293196E+02 -0.63576661648E+02  0.16993943021E+03  0.25264402110E+03  0.17181758184E+03 0.  0.
        -24    2    5    5    0    0  0.24917161374E+02 -0.13154942628E+02  0.29089793272E+02  0.90576939380E+02  0.81018815274E+02 0.  0.
          5    1    3    3  501    0  0.28832698847E+02 -0.32381890970E+02 -0.73429413049E+03  0.73558811264E+03  0.47000000000E+01 0. -1.
        -11    1    4    4    0    0 -0.17047264217E+02  0.41337594420E+02 -0.47809575616E+03  0.48018221332E+03  0.00000000000E+00 0.  1.
         12    1    4    4    0    0  0.25447858566E+02  0.54620958198E+02 -0.19685730295E+03  0.20587335988E+03  0.00000000000E+00 0. -1.
         -5    1    5    5    0  502 -0.62150454570E+02 -0.50421719020E+02  0.14084963693E+03  0.16206708172E+03  0.47000000000E+01 0.  1.
         11    1    6    6    0    0 -0.21705175198E+02  0.10760519609E+02  0.29505458771E+02  0.38176897594E+02  0.00000000000E+00 0. -1.
        -12    1    6    6    0    0  0.46622336572E+02 -0.23915462237E+02 -0.41566549905E+00  0.52400041786E+02  0.00000000000E+00 0.  1.
</event>
<event>
12    1  0.1030140E-001  0.3732084E+03  0.7818608E-02  0.1053581E+00
         21   -1    0    0  503  502  0.00000000000E+00  0.00000000000E+00  0.66564838084E+03  0.66564838084E+03  0.00000000000E+00 0. -1.
         21   -1    0    0  501  503 -0.00000000000E+00 -0.00000000000E+00 -0.56340296541E+03  0.56340296541E+03  0.00000000000E+00 0. -1.
          6    2    1    2  501    0  0.18823633885E+03 -0.27054739261E+03 -0.43651230573E+03  0.57430609422E+03  0.17508765203E+03 0.  0.
         24    2    3    3    0    0  0.12525511723E+03 -0.18760621655E+03 -0.18587413493E+03  0.30285175989E+03  0.79278354897E+02 0.  0.
         -6    2    1    2    0  502 -0.18823633885E+03  0.27054739261E+03  0.53875772115E+03  0.65474525204E+03  0.17263444631E+03 0.  0.
        -24    2    5    5    0    0 -0.15084972784E+03  0.17738883816E+03  0.47832538118E+03  0.53748301317E+03  0.76618397744E+02 0.  0.
          5    1    3    3  501    0  0.62981221624E+02 -0.82941176058E+02 -0.25063817080E+03  0.27145433433E+03  0.47000000000E+01 0. -1.
        -13    1    4    4    0    0 -0.45418017987E+01 -0.30384525903E+01  0.49259415087E+01  0.73569733906E+01  0.00000000000E+00 0.  1.
         14    1    4    4    0    0  0.12979691903E+03 -0.18456776396E+03 -0.19080007644E+03  0.29549478650E+03  0.00000000000E+00 0. -1.
         -5    1    5    5    0  502 -0.37386611011E+02  0.93158554444E+02  0.60432339974E+02  0.11726223887E+03  0.47000000000E+01 0.  1.
         13    1    6    6    0    0 -0.57942432359E+02  0.12444160667E+03  0.24540013535E+03  0.28118368617E+03  0.00000000000E+00 0. -1.
        -14    1    6    6    0    0 -0.92907295482E+02  0.52947231490E+02  0.23292524583E+03  0.25629932700E+03  0.00000000000E+00 0.  1.
</event>
<event>
12    1  0.1030140E-001  0.2202295E+03  0.7818608E-02  0.1133891E+00
         21   -1    0    0  501  502  0.00000000000E+00  0.00000000000E+00  0.34096736519E+03  0.34096736519E+03  0.00000000000E+00 0.  1.
         21   -1    0    0  502  503 -0.00000000000E+00 -0.00000000000E+00 -0.55105538110E+03  0.55105538110E+03  0.00000000000E+00 0.  1.
         -6    2    1    2    0  503 -0.45553862032E+02 -0.12909859961E+03 -0.48943215432E+03  0.53630628633E+03  0.17128629923E+03 0.  0.
        -24    2    3    3    0    0  0.36491575564E+02 -0.64282363824E+02 -0.19235521432E+03  0.22133105471E+03  0.80765400498E+02 0.  0.
          6    2    1    2  501    0  0.45553862032E+02  0.12909859961E+03  0.27934413841E+03  0.35571645995E+03  0.17250927353E+03 0.  0.
         24    2    5    5    0    0  0.91445194603E+02  0.55150611514E+02  0.17228274773E+03  0.21766375001E+03  0.79324330045E+02 0.  0.
          5    1    5    5  501    0 -0.45891332571E+02  0.73947988099E+02  0.10706139068E+03  0.13805270994E+03  0.47000000000E+01 0. -1.
        -11    1    6    6    0    0  0.13070616236E+02  0.51567660886E+02  0.85261759719E+02  0.10049692696E+03  0.00000000000E+00 0.  1.
         12    1    6    6    0    0  0.78374578367E+02  0.35829506273E+01  0.87020988012E+02  0.11716682305E+03  0.00000000000E+00 0. -1.
         -5    1    3    3    0  503 -0.82045437596E+02 -0.64816235789E+02 -0.29707694000E+03  0.31497523162E+03  0.47000000000E+01 0.  1.
         13    1    4    4    0    0 -0.17403802883E+02  0.76161101895E+01 -0.25242949206E+02  0.31592783572E+02  0.00000000000E+00 0. -1.
        -14    1    4    4    0    0  0.53895378448E+02 -0.71898474014E+02 -0.16711226511E+03  0.18973827114E+03  0.00000000000E+00 0.  1.
</event>
<event>
12    1  0.1030140E-001  0.2949644E+03  0.7818608E-02  0.1087799E+00
         21   -1    0    0  501  502  0.00000000000E+00  0.00000000000E+00  0.22979451563E+03  0.22979451563E+03  0.00000000000E+00 0. -1.
         21   -1    0    0  502  503 -0.00000000000E+00 -0.00000000000E+00 -0.45081279589E+03  0.45081279589E+03  0.00000000000E+00 0.  1.
         -6    2    1    2    0  503 -0.23360046641E+03  0.52974204621E+02 -0.24683859533E+03  0.38462099638E+03  0.17212952812E+03 0.  0.
        -24    2    3    3    0    0 -0.15672801909E+03 -0.13008067518E+01 -0.22651902861E+03  0.28823570285E+03  0.84873941881E+02 0.  0.
          6    2    1    2  501    0  0.23360046641E+03 -0.52974204621E+02  0.25820315070E+02  0.29598631514E+03  0.17194698548E+03 0.  0.
         24    2    5    5    0    0  0.15866212974E+03 -0.76702655700E+02 -0.35691253666E+02  0.19606356106E+03  0.78167036422E+02 0.  0.
          5    1    5    5  501    0  0.74938336674E+02  0.23728451079E+02  0.61511568736E+02  0.99922754078E+02  0.47000000000E+01 0. -1.
        -13    1    6    6    0    0  0.98609296198E+02 -0.78012878148E+02  0.87825678403E+00  0.12574010414E+03  0.00000000000E+00 0.  1.
         14    1    6    6    0    0  0.60052833538E+02  0.13102224476E+01 -0.36569510450E+02  0.70323456922E+02  0.00000000000E+00 0. -1.
         -5    1    3    3    0  503 -0.76872447324E+02  0.54275011373E+02 -0.20319566719E+02  0.96385293530E+02  0.47000000000E+01 0.  1.
         13    1    4    4    0    0 -0.16705465712E+03 -0.53619949073E+01 -0.21267698733E+03  0.27049493598E+03  0.00000000000E+00 0. -1.
        -14    1    4    4    0    0  0.10326638029E+02  0.40611881554E+01 -0.13842041285E+02  0.17740766871E+02  0.00000000000E+00 0.  1.
</event>
<event>
12    1  0.1030140E-001  0.2470877E+03  0.7818608E-02  0.1115503E+00
         21   -1    0    0  503  502  0.00000000000E+00  0.00000000000E+00  0.53411333636E+03  0.53411333636E+03  0.00000000000E+00 0. -1.
         21   -1    0    0  501  503 -0.00000000000E+00 -0.00000000000E+00 -0.11347374925E+03  0.11347374925E+03  0.00000000000E+00 0. -1.
          6    2    1    2  501    0  0.10118458202E+03 -0.14820920329E+03  0.22308873249E+03  0.33289778735E+03  0.16984718627E+03 0.  0.
         24    2    3    3    0    0  0.61713829005E+02 -0.86660926610E+02  0.22248075197E+03  0.25962712238E+03  0.81177858954E+02 0.  0.
         -6    2    1    2    0  502 -0.10118458202E+03  0.14820920329E+03  0.19755085462E+03  0.31468929825E+03  0.16672950157E+03 0.  0.
        -24    2    5    5    0    0 -0.12097693449E+03  0.10840654676E+03  0.20218768793E+03  0.26974957299E+03  0.74145619697E+02 0.  0.
          5    1    3    3  501    0  0.39470753015E+02 -0.61548276681E+02  0.60798051650E+00  0.73270664978E+02  0.47000000000E+01 0. -1.
        -11    1    4    4    0    0  0.23059466839E+02  0.12174916051E+02  0.61646998949E+02  0.66935193069E+02  0.00000000000E+00 0.  1.
         12    1    4    4    0    0  0.38654362166E+02 -0.98835842661E+02  0.16083375302E+03  0.19269192931E+03  0.00000000000E+00 0. -1.
         -5    1    5    5    0  502  0.19792352468E+02  0.39802656533E+02 -0.46368333064E+01  0.44939725260E+02  0.47000000000E+01 0.  1.
         11    1    6    6    0    0 -0.95105779617E+02  0.43288590743E+02  0.92289675544E+02  0.13941447420E+03  0.00000000000E+00 0. -1.
        -12    1    6    6    0    0 -0.25871154872E+02  0.65117956015E+02  0.10989801239E+03  0.13033509879E+03  0.00000000000E+00 0.  1.
</event>
<event>
12    1  0.1030140E-001  0.1793090E+03  0.7818608E-02  0.1168563E+00
         21   -1    0    0  503  502  0.00000000000E+00  0.00000000000E+00  0.19587243785E+03  0.19587243785E+03  0.00000000000E+00 0.  1.
         21   -1    0    0  501  503 -0.00000000000E+00 -0.00000000000E+00 -0.24106260081E+03  0.24106260081E+03  0.00000000000E+00 0.  1.
          6    2    1    2  501    0  0.24829924588E+02  0.44699923095E+02 -0.14628447240E+03  0.23141058060E+03  0.17186361358E+03 0.  0.
         24    2    3    3    0    0  0.17384357159E+02  0.44420678236E+02 -0.90531682367E+01  0.93896816591E+02  0.80369395805E+02 0.  0.
         -6    2    1    2    0  502 -0.24829924588E+02 -0.44699923095E+02  0.10109430943E+03  0.20552445806E+03  0.17148071373E+03 0.  0.
        -24    2    5    5    0    0  0.26290999458E+02 -0.12522580351E+02  0.11612011030E+03  0.14310174622E+03  0.78397691816E+02 0.  0.
          5    1    3    3  501    0  0.74455674285E+01  0.27924485884E+00 -0.13723130416E+03  0.13751376401E+03  0.47000000000E+01 0. -1.
        -11    1    4    4    0    0  0.51853242311E+01 -0.94492148437E+01 -0.32239594067E+02  0.33993626964E+02  0.00000000000E+00 0.  1.
         12    1    4    4    0    0  0.12199032928E+02  0.53869893080E+02  0.23186425830E+02  0.59903189628E+02  0.00000000000E+00 0. -1.
         -5    1    5    5    0  502 -0.51120924045E+02 -0.32177342743E+02 -0.15025800877E+02  0.62422711838E+02  0.47000000000E+01 0.  1.
         11    1    6    6    0    0  0.12956247377E+02 -0.40937777174E+02  0.32702938584E+02  0.53974513783E+02  0.00000000000E+00 0. -1.
        -12    1    6    6    0    0  0.13334752081E+02  0.28415196823E+02  0.83417171721E+02  0.89127232435E+02  0.00000000000E+00 0.  1.
</event>
<event>
12    1  0.1030140E-001  0.2267688E+03  0.7818608E-02  0.1129397E+00
         21   -1    0    0  501  502  0.00000000000E+00  0.00000000000E+00  0.18026273943E+03  0.18026273943E+03  0.00000000000E+00 0.  1.
         21   -1    0    0  502  503 -0.00000000000E+00 -0.00000000000E+00 -0.28541993532E+03  0.28541993532E+03  0.00000000000E+00 0. -1.
         -6    2    1    2    0  503 -0.63844305649E+02 -0.13196583294E+03 -0.77563822227E+02  0.23724126522E+03  0.16963547676E+03 0.  0.
        -24    2    3    3    0    0 -0.34798142680E+01 -0.85795472967E+02 -0.10624444780E+03  0.15587639416E+03  0.75077262064E+02 0.  0.
          6    2    1    2  501    0  0.63844305649E+02  0.13196583294E+03 -0.27593373656E+02  0.22844140953E+03  0.17301158022E+03 0.  0.
         24    2    5    5    0    0  0.12752584919E+02  0.59146426547E+02  0.48025151408E+02  0.11159415364E+03  0.80535158562E+02 0.  0.
          5    1    5    5  501    0  0.51091720730E+02  0.72819406395E+02 -0.75618525064E+02  0.11684725588E+03  0.47000000000E+01 0. -1.
        -13    1    6    6    0    0  0.34539055399E+02  0.36968670377E+02  0.59817750067E+02  0.78344062700E+02  0.00000000000E+00 0.  1.
         14    1    6    6    0    0 -0.21786470480E+02  0.22177756170E+02 -0.11792598659E+02  0.33250090945E+02  0.00000000000E+00 0. -1.
         -5    1    3    3    0  503 -0.60364491381E+02 -0.46170359975E+02  0.28680625569E+02  0.81364871062E+02  0.47000000000E+01 0.  1.
         13    1    4    4    0    0  0.69864791514E+01 -0.13458895181E+02 -0.74779384655E+02  0.76301435896E+02  0.00000000000E+00 0. -1.
        -14    1    4    4    0    0 -0.10466293419E+02 -0.72336577786E+02 -0.31465063141E+02  0.79574958261E+02  0.00000000000E+00 0.  1.
</event>
<event>
12    1  0.1030140E-001  0.2120799E+03  0.7818608E-02  0.1141838E+00
         21   -1    0    0  501  502  0.00000000000E+00  0.00000000000E+00  0.16266491595E+03  0.16266491595E+03  0.00000000000E+00 0.  1.
         21   -1    0    0  502  503 -0.00000000000E+00 -0.00000000000E+00 -0.27115271225E+03  0.27115271225E+03  0.00000000000E+00 0.  1.
         -6    2    1    2    0  503  0.99984393916E+02  0.46490176666E+02 -0.87695424762E+02  0.22072095485E+03  0.16990890745E+03 0.  0.
        -24    2    3    3    0    0  0.62854925485E+02  0.46285456757E+02  0.14131913321E+02  0.11223346194E+03  0.79394923263E+02 0.  0.
          6    2    1    2  501    0 -0.99984393916E+02 -0.46490176666E+02 -0.20792371544E+02  0.21309667335E+03  0.18116195496E+03 0.  0.
         24    2    5    5    0    0 -0.44329223083E+02 -0.91456323662E+02 -0.46355255370E+02  0.13697175335E+03  0.79266085798E+02 0.  0.
          5    1    5    5  501    0 -0.55655170834E+02  0.44966146996E+02  0.25562883826E+02  0.76124920004E+02  0.47000000000E+01 0. -1.
        -13    1    6    6    0    0 -0.61588873962E+02 -0.66673271203E+02 -0.12531820401E+02  0.91627294030E+02  0.00000000000E+00 0.  1.
         14    1    6    6    0    0  0.17259650879E+02 -0.24783052459E+02 -0.33823434969E+02  0.45344459317E+02  0.00000000000E+00 0. -1.
         -5    1    3    3    0  503  0.37129468431E+02  0.20471990885E+00 -0.10182733808E+03  0.10848749291E+03  0.47000000000E+01 0.  1.
         11    1    4    4    0    0  0.26584854192E+02  0.59995598653E+02 -0.10268042285E+02  0.66420320856E+02  0.00000000000E+00 0. -1.
        -12    1    4    4    0    0  0.36270071293E+02 -0.13710141896E+02  0.24399955607E+02  0.45813141085E+02  0.00000000000E+00 0.  1.
</event>
<event>
12    1  0.1030140E-001  0.1750847E+03  0.7818608E-02  0.1173038E+00
         21   -1    0    0  503  502  0.00000000000E+00  0.00000000000E+00  0.11267579928E+03  0.11267579928E+03  0.00000000000E+00 0.  1.
         21   -1    0    0  501  503 -0.00000000000E+00 -0.00000000000E+00 -0.41480102421E+03  0.41480102421E+03  0.00000000000E+00 0.  1.
          6    2    1    2  501    0 -0.25153646254E+02 -0.17690182624E+00 -0.30663701534E+03  0.35233404081E+03  0.17169822342E+03 0.  0.
         24    2    3    3    0    0  0.52215732524E+02  0.81065687083E+01 -0.15569849247E+03  0.18245418814E+03  0.79090524306E+02 0.  0.
         -6    2    1    2    0  502  0.25153646254E+02  0.17690182624E+00  0.45117904101E+01  0.17514278268E+03  0.17326829156E+03 0.  0.
        -24    2    5    5    0    0 -0.22047606140E+02  0.46595844637E+02  0.34849808700E+02  0.10216907624E+03  0.81035432365E+02 0.  0.
          5    1    3    3  501    0 -0.77369378778E+02 -0.82834705346E+01 -0.15093852287E+03  0.16987985267E+03  0.47000000000E+01 0. -1.
        -11    1    4    4    0    0 -0.96017879692E+01  0.25856601134E+02 -0.70516648121E+02  0.75718926410E+02  0.00000000000E+00 0.  1.
         12    1    4    4    0    0  0.61817520493E+02 -0.17750032426E+02 -0.85181844344E+02  0.10673526173E+03  0.00000000000E+00 0. -1.
         -5    1    5    5    0  502  0.47201252394E+02 -0.46418942810E+02 -0.30338018290E+02  0.72973706449E+02  0.47000000000E+01 0.  1.
         13    1    6    6    0    0 -0.25875914181E+02 -0.17542232533E+02  0.16495135486E+02  0.35346603113E+02  0.00000000000E+00 0. -1.
        -14    1    6    6    0    0  0.38283080410E+01  0.64138077169E+02  0.18354673214E+02  0.66822473123E+02  0.00000000000E+00 0.  1.
</event>
<event>
12    1  0.1030140E-001  0.2553501E+03  0.7818608E-02  0.1110031E+00
         21   -1    0    0  501  502  0.00000000000E+00  0.00000000000E+00  0.57970885464E+02  0.57970885464E+02  0.00000000000E+00 0.  1.
         21   -1    0    0  502  503 -0.00000000000E+00 -0.00000000000E+00 -0.11997927154E+04  0.11997927154E+04  0.00000000000E+00 0. -1.
         -6    2    1    2    0  503  0.86905123176E+02  0.16385673177E+03 -0.72958654683E+03  0.77284958742E+03  0.17492405921E+03 0.  0.
        -24    2    3    3    0    0  0.99084984683E+02  0.18500999158E+03 -0.59945777488E+03  0.64036790297E+03  0.81700037463E+02 0.  0.
          6    2    1    2  501    0 -0.86905123176E+02 -0.16385673177E+03 -0.41223528311E+03  0.48491401344E+03  0.17550539253E+03 0.  0.
         24    2    5    5    0    0 -0.12762611661E+03 -0.12878668830E+03 -0.35078720659E+03  0.40314566159E+03  0.81242374596E+02 0.  0.
          5    1    5    5  501    0  0.40720993433E+02 -0.35070043479E+02 -0.61448076520E+02  0.81768351847E+02  0.47000000000E+01 0. -1.
        -11    1    6    6    0    0 -0.12762475251E+03 -0.10677925108E+03 -0.25232885841E+03  0.30225773555E+03  0.00000000000E+00 0.  1.
         12    1    6    6    0    0 -0.13641027859E-02 -0.22007437217E+02 -0.98458348178E+02  0.10088792604E+03  0.00000000000E+00 0. -1.
         -5    1    3    3    0  503 -0.12179861507E+02 -0.21153259804E+02 -0.13012877195E+03  0.13248168445E+03  0.47000000000E+01 0.  1.
         11    1    4    4    0    0  0.71487274826E+02  0.52981805883E+02 -0.27330454507E+03  0.28742455806E+03  0.00000000000E+00 0. -1.
        -12    1    4    4    0    0  0.27597709857E+02  0.13202818570E+03 -0.32615322980E+03  0.35294334491E+03  0.00000000000E+00 0.  1.
</event>
<event>
12    1  0.1030140E-001  0.2252883E+03  0.7818608E-02  0.1130117E+00
         21   -1    0    0  503  502  0.00000000000E+00  0.00000000000E+00  0.32278871905E+03  0.32278871905E+03  0.00000000000E+00 0.  1.
         21   -1    0    0  501  503 -0.00000000000E+00 -0.00000000000E+00 -0.15815028466E+03  0.15815028466E+03  0.00000000000E+00 0.  1.
          6    2    1    2  501    0  0.14020152374E+03  0.36816098114E+02  0.10474645352E+03  0.24844848054E+03  0.17246140328E+03 0.  0.
         24    2    3    3    0    0  0.81280797131E+02 -0.39769075471E+02  0.40886750965E+02  0.13253000727E+03  0.87774307603E+02 0.  0.
         -6    2    1    2    0  502 -0.14020152374E+03 -0.36816098114E+02  0.59891980869E+02  0.23249052317E+03  0.17161847701E+03 0.  0.
        -24    2    5    5    0    0 -0.12765403940E+03  0.30539654679E+02  0.55493624702E+02  0.16367430172E+03  0.80507828056E+02 0.  0.
          5    1    3    3  501    0  0.58920726607E+02  0.76585173585E+02  0.63859702553E+02  0.11591847328E+03  0.47000000000E+01 0. -1.
        -13    1    4    4    0    0  0.53798353080E+02  0.22150057311E+02  0.15764718988E+02  0.60277808501E+02  0.00000000000E+00 0.  1.
         14    1    4    4    0    0  0.27482444051E+02 -0.61919132782E+02  0.25122031977E+02  0.72252198764E+02  0.00000000000E+00 0. -1.
         -5    1    5    5    0  502 -0.12547484339E+02 -0.67355752793E+02  0.43983561667E+01  0.68816221449E+02  0.47000000000E+01 0.  1.
         11    1    6    6    0    0 -0.42746274972E+02  0.28151371929E+01 -0.19479529347E+02  0.47059760784E+02  0.00000000000E+00 0. -1.
        -12    1    6    6    0    0 -0.84907764427E+02  0.27724517486E+02  0.74973154050E+02  0.11661454094E+03  0.00000000000E+00 0.  1.
</event>
<event>
12    1  0.1030140E-001  0.2882182E+03  0.7818608E-02  0.1091365E+00
         21   -1    0    0  503  502  0.00000000000E+00  0.00000000000E+00  0.54178324091E+03  0.54178324091E+03  0.00000000000E+00 0.  1.
         21   -1    0    0  501  503 -0.00000000000E+00 -0.00000000000E+00 -0.45601009531E+03  0.45601009531E+03  0.00000000000E+00 0. -1.
          6    2    1    2  501    0 -0.22886758612E+03 -0.23599194932E+02 -0.36377851392E+03  0.46411693944E+03  0.17358695891E+03 0.  0.
         24    2    3    3    0    0 -0.13257787066E+03 -0.70786463519E+02 -0.15998729398E+03  0.23378826353E+03  0.80457459086E+02 0.  0.
         -6    2    1    2    0  502  0.22886758612E+03  0.23599194932E+02  0.44955165951E+03  0.53367639678E+03  0.17255870867E+03 0.  0.
        -24    2    5    5    0    0  0.81724535140E+02 -0.50146737057E+02  0.16678917769E+03  0.20646660008E+03  0.74941525675E+02 0.  0.
          5    1    3    3  501    0 -0.96289715459E+02  0.47187268587E+02 -0.20379121994E+03  0.23032867591E+03  0.47000000000E+01 0. -1.
        -11    1    4    4    0    0 -0.12273440970E+03 -0.51730726897E+02 -0.90403283245E+02  0.16097377753E+03  0.00000000000E+00 0.  1.
         12    1    4    4    0    0 -0.98434609612E+01 -0.19055736623E+02 -0.69584010736E+02  0.72814486004E+02  0.00000000000E+00 0. -1.
         -5    1    5    5    0  502  0.14714305098E+03  0.73745931989E+02  0.28276248182E+03  0.32720979671E+03  0.47000000000E+01 0.  1.
         11    1    6    6    0    0  0.22142953118E+02 -0.51365844480E+02  0.11344384893E+03  0.12648425678E+03  0.00000000000E+00 0. -1.
        -12    1    6    6    0    0  0.59581582021E+02  0.12191074231E+01  0.53345328761E+02  0.79982343299E+02  0.00000000000E+00 0.  1.
</event>
<event>
12    1  0.1030140E-001  0.2634380E+03  0.7818608E-02  0.1105470E+00
         21   -1    0    0  501  502  0.00000000000E+00  0.00000000000E+00  0.16796070638E+03  0.16796070638E+03  0.00000000000E+00 0. -1.
         21   -1    0    0  502  503 -0.00000000000E+00 -0.00000000000E+00 -0.41197225498E+03  0.41197225498E+03  0.00000000000E+00 0.  1.
         -6    2    1    2    0  503 -0.17219598627E+03  0.99499834203E+02 -0.14504093311E+03  0.29851732968E+03  0.16889064257E+03 0.  0.
        -24    2    3    3    0    0 -0.17535582390E+03  0.12319331854E+03 -0.14971058299E+03  0.27371286630E+03  0.81112365323E+02 0.  0.
          6    2    1    2  501    0  0.17219598627E+03 -0.99499834203E+02 -0.98970615486E+02  0.28141563168E+03  0.17276544890E+03 0.  0.
         24    2    5    5    0    0  0.35448262848E+02 -0.10768635209E+02  0.46783142885E+01  0.88184277655E+02  0.79887654602E+02 0.  0.
          5    1    5    5  501    0  0.13674772342E+03 -0.88731198994E+02 -0.10364892977E+03  0.19323135403E+03  0.47000000000E+01 0. -1.
        -11    1    6    6    0    0 -0.83979398870E+01 -0.77700156403E+01 -0.30060436139E+02  0.32164084913E+02  0.00000000000E+00 0.  1.
         12    1    6    6    0    0  0.43846202735E+02 -0.29986195686E+01  0.34738750428E+02  0.56020192743E+02  0.00000000000E+00 0. -1.
         -5    1    3    3    0  503  0.31598376340E+01 -0.23693484336E+02  0.46696498736E+01  0.24804463385E+02  0.47000000000E+01 0.  1.
         11    1    4    4    0    0 -0.14753128833E+03  0.84518393128E+02 -0.76684501625E+02  0.18651904086E+03  0.00000000000E+00 0. -1.
        -12    1    4    4    0    0 -0.27824535574E+02  0.38674925410E+02 -0.73026081363E+02  0.87193825439E+02  0.00000000000E+00 0.  1.
</event>
<event>
12    1  0.1030140E-001  0.2077905E+03  0.7818608E-02  0.1143999E+00
         21   -1    0    0  503  502  0.00000000000E+00  0.00000000000E+00  0.13537237688E+03  0.13537237688E+03  0.00000000000E+00 0.  1.
         21   -1    0    0  501  503 -0.00000000000E+00 -0.00000000000E+00 -0.37562522617E+03  0.37562522617E+03  0.00000000000E+00 0. -1.
          6    2    1    2  501    0  0.71238550396E+02  0.84748085891E+02 -0.22451989650E+03  0.30591844519E+03  0.17584010367E+03 0.  0.
         24    2    3    3    0    0  0.10627471860E+03  0.19990841327E+02 -0.15611796116E+03  0.20531055005E+03  0.78010605784E+02 0.  0.
         -6    2    1    2    0  502 -0.71238550396E+02 -0.84748085891E+02 -0.15732952795E+02  0.20507915787E+03  0.17190917970E+03 0.  0.
        -24    2    5    5    0    0 -0.34229948285E+02 -0.16216595333E+02 -0.72898619585E+02  0.10835167838E+03  0.70648497133E+02 0.  0.
          5    1    3    3  501    0 -0.35036168208E+02  0.64757244564E+02 -0.68401935333E+02  0.10060789513E+03  0.47000000000E+01 0. -1.
        -11    1    4    4    0    0  0.23376401438E+02 -0.12145520130E+02 -0.81207409671E+00  0.26355820377E+02  0.00000000000E+00 0.  1.
         12    1    4    4    0    0  0.82898317166E+02  0.32136361457E+02 -0.15530588707E+03  0.17895472968E+03  0.00000000000E+00 0. -1.
         -5    1    5    5    0  502 -0.37008602112E+02 -0.68531490558E+02  0.57165666790E+02  0.96727479487E+02  0.47000000000E+01 0.  1.
         11    1    6    6    0    0 -0.37681817991E+02 -0.25081905265E+02 -0.12157883660E+02  0.46870411924E+02  0.00000000000E+00 0. -1.
        -12    1    6    6    0    0  0.34518697065E+01  0.88653099323E+01 -0.60740735925E+02  0.61481266458E+02  0.00000000000E+00 0.  1.
</event>
<event>
12    1  0.1030140E-001  0.2067546E+03  0.7818608E-02  0.1144335E+00
         21   -1    0    0  503  502  0.00000000000E+00  0.00000000000E+00  0.22139568243E+03  0.22139568243E+03  0.00000000000E+00 0. -1.
         21   -1    0    0  501  503 -0.00000000000E+00 -0.00000000000E+00 -0.23926741581E+03  0.23926741581E+03  0.00000000000E+00 0. -1.
          6    2    1    2  501    0  0.14324099193E+01 -0.11399214218E+03  0.93113208700E+02  0.22675438400E+03  0.17248542186E+03 0.  0.
         24    2    3    3    0    0  0.47839902672E+02 -0.17222104281E+02  0.27075815086E+02  0.10065472907E+03  0.82541005318E+02 0.  0.
         -6    2    1    2    0  502 -0.14324099193E+01  0.11399214218E+03 -0.11098494207E+03  0.23390871424E+03  0.17146244181E+03 0.  0.
        -24    2    5    5    0    0  0.50446226277E+02  0.38394304232E+02 -0.97245678204E+02  0.14107939038E+03  0.80173113439E+02 0.  0.
          5    1    3    3  501    0 -0.46407492753E+02 -0.96770037895E+02  0.66037393613E+02  0.12609965493E+03  0.47000000000E+01 0. -1.
        -11    1    4    4    0    0  0.58851871750E+02 -0.15586701628E+01 -0.92470728408E+01  0.59594300208E+02  0.00000000000E+00 0.  1.
         12    1    4    4    0    0 -0.11011969077E+02 -0.15663434118E+02  0.36322887927E+02  0.41060428867E+02  0.00000000000E+00 0. -1.
         -5    1    5    5    0  502 -0.51878636196E+02  0.75597837944E+02 -0.13739263870E+02  0.92829323853E+02  0.47000000000E+01 0.  1.
         13    1    6    6    0    0  0.22775178816E+02 -0.22449049187E+02 -0.15653378902E+02  0.35604730733E+02  0.00000000000E+00 0. -1.
        -14    1    6    6    0    0  0.27671047461E+02  0.60843353420E+02 -0.81592299302E+02  0.10547465965E+03  0.00000000000E+00 0.  1.
</event>
<event>
12    1  0.1030140E-001  0.1979403E+03  0.7818608E-02  0.1151536E+00
         21   -1    0    0  501  502  0.00000000000E+00  0.00000000000E+00  0.92619624937E+02  0.92619624937E+02  0.00000000000E+00 0. -1.
         21   -1    0    0  502  503 -0.00000000000E+00 -0.00000000000E+00 -0.48200403953E+03  0.48200403953E+03  0.00000000000E+00 0. -1.
         -6    2    1    2    0  503  0.95711270876E+02 -0.14549741141E+02 -0.29569249420E+03  0.35582918365E+03  0.17264997675E+03 0.  0.
        -24    2    3    3    0    0  0.96842756916E+02 -0.52288917916E+02 -0.13666140265E+03  0.19231005998E+03  0.78703047547E+02 0.  0.
          6    2    1    2  501    0 -0.95711270876E+02  0.14549741141E+02 -0.93691920392E+02  0.21879448082E+03  0.17239636466E+03 0.  0.
         24    2    5    5    0    0 -0.67783272663E+02 -0.40253692285E+02 -0.63697108723E+01  0.11188027374E+03  0.79130845059E+02 0.  0.
          5    1    5    5  501    0 -0.27927998212E+02  0.54803433425E+02 -0.87322209520E+02  0.10691420708E+03  0.47000000000E+01 0. -1.
        -11    1    6    6    0    0 -0.22345333843E+02 -0.53934115968E+02 -0.21284518306E+02  0.62138824653E+02  0.00000000000E+00 0.  1.
         12    1    6    6    0    0 -0.45437938820E+02  0.13680423683E+02  0.14914807433E+02  0.49741449086E+02  0.00000000000E+00 0. -1.
         -5    1    3    3    0  503 -0.11314860408E+01  0.37739176775E+02 -0.15903109156E+03  0.16351912367E+03  0.47000000000E+01 0.  1.
         13    1    4    4    0    0  0.84761334800E+02 -0.23983865714E+02 -0.13536957433E+03  0.16150737242E+03  0.00000000000E+00 0. -1.
        -14    1    4    4    0    0  0.12081422116E+02 -0.28305052202E+02 -0.12918283124E+01  0.30802687559E+02  0.00000000000E+00 0.  1.
</event>
<event>
12    1  0.1030140E-001  0.1719995E+03  0.7818608E-02  0.1176638E+00
         21   -1    0    0  503  502  0.00000000000E+00  0.00000000000E+00  0.16529859278E+04  0.16529859278E+04  0.00000000000E+00 0.  1.
         21   -1    0    0  501  503 -0.00000000000E+00 -0.00000000000E+00 -0.63678036914E+02  0.63678036914E+02  0.00000000000E+00 0.  1.
          6    2    1    2  501    0  0.59094266234E+01 -0.14825269738E+02  0.66288201316E+02  0.18433105468E+03  0.17125741484E+03 0.  0.
         24    2    3    3    0    0 -0.57825333295E+02 -0.14578044452E+02  0.64220646917E+02  0.12038931930E+03  0.82540948378E+02 0.  0.
         -6    2    1    2    0  502 -0.59094266234E+01  0.14825269738E+02  0.15230196896E+04  0.15323329101E+04  0.16792993309E+03 0.  0.
        -24    2    5    5    0    0 -0.39968444780E+02 -0.46555092910E+02  0.86140703683E+03  0.86699017288E+03  0.76713906833E+02 0.  0.
          5    1    3    3  501    0  0.63734759919E+02 -0.24722528558E+00  0.20675543985E+01  0.63941735380E+02  0.47000000000E+01 0. -1.
        -11    1    4    4    0    0 -0.59876176757E+02 -0.39460674039E+02  0.29307662700E+02  0.77467673462E+02  0.00000000000E+00 0.  1.
         12    1    4    4    0    0  0.20508434614E+01  0.24882629587E+02  0.34912984217E+02  0.42921645833E+02  0.00000000000E+00 0. -1.
         -5    1    5    5    0  502  0.34059018157E+02  0.61380362647E+02  0.66161265278E+03  0.66534273721E+03  0.47000000000E+01 0.  1.
         11    1    6    6    0    0 -0.62938973172E+02 -0.31191111127E+02  0.58367593853E+03  0.58788757512E+03  0.00000000000E+00 0. -1.
        -12    1    6    6    0    0  0.22970528392E+02 -0.15363981783E+02  0.27773109830E+03  0.27910259776E+03  0.00000000000E+00 0.  1.
</event>
<event>
12    1  0.1030140E-001  0.1891474E+03  0.7818608E-02  0.1159606E+00
         21   -1    0    0  503  502  0.00000000000E+00  0.00000000000E+00  0.43928062907E+03  0.43928062907E+03  0.00000000000E+00 0.  1.
         21   -1    0    0  501  503 -0.00000000000E+00 -0.00000000000E+00 -0.80941041201E+02  0.80941041201E+02  0.00000000000E+00 0. -1.
          6    2    1    2  501    0  0.22415485103E+01 -0.75245976187E+02  0.19134379952E+03  0.26790377725E+03  0.17173526947E+03 0.  0.
         24    2    3    3    0    0  0.62718384006E+02 -0.25681992649E+02  0.10530807128E+03  0.15154969426E+03  0.85348459356E+02 0.  0.
         -6    2    1    2    0  502 -0.22415485103E+01  0.75245976187E+02  0.16699578836E+03  0.25231789302E+03  0.17352159618E+03 0.  0.
        -24    2    5    5    0    0  0.25344501543E+02  0.37889905699E+02  0.15134197016E+01  0.80379036172E+02  0.66185423656E+02 0.  0.
          5    1    3    3  501    0 -0.60476835496E+02 -0.49563983538E+02  0.86035728231E+02  0.11635408299E+03  0.47000000000E+01 0. -1.
        -13    1    4    4    0    0  0.50705314780E+02 -0.54864183997E+02  0.57534274607E+02  0.94293692192E+02  0.00000000000E+00 0.  1.
         14    1    4    4    0    0  0.12013069226E+02  0.29182191347E+02  0.47773796677E+02  0.57256002070E+02  0.00000000000E+00 0. -1.
         -5    1    5    5    0  502 -0.27586050053E+02  0.37356070489E+02  0.16548236866E+03  0.17193885685E+03  0.47000000000E+01 0.  1.
         11    1    6    6    0    0  0.45705246267E+02  0.38092512424E+02  0.50520768777E+01  0.59712080184E+02  0.00000000000E+00 0. -1.
        -12    1    6    6    0    0 -0.20360744724E+02 -0.20260672511E+00 -0.35386571761E+01  0.20666955988E+02  0.00000000000E+00 0.  1.
</event>
<event>
12    1  0.1030140E-001  0.2947448E+03  0.7818608E-02  0.1087976E+00
         21   -1    0    0  501  502  0.00000000000E+00  0.00000000000E+00  0.16981996026E+03  0.16981996026E+03  0.00000000000E+00 0.  1.
         21   -1    0    0  502  503 -0.00000000000E+00 -0.00000000000E+00 -0.65442698967E+03  0.65442698967E+03  0.00000000000E+00 0. -1.
         -6    2    1    2    0  503  0.18202024398E+03 -0.15509577991E+03 -0.48842267148E+02  0.29816195557E+03  0.17125686710E+03 0.  0.
        -24    2    3    3    0    0  0.62605573206E+02 -0.40755308003E+01 -0.13595371980E+02  0.10237785802E+03  0.79751639013E+02 0.  0.
          6    2    1    2  501    0 -0.18202024398E+03  0.15509577991E+03 -0.43576476227E+03  0.52608499435E+03  0.17230328809E+03 0.  0.
         24    2    5    5    0    0 -0.12548822620E+03  0.13612405071E+03 -0.20673386012E+03  0.28937200425E+03  0.81976922548E+02 0.  0.
          5    1    5    5  501    0 -0.56532017785E+02  0.18971729202E+02 -0.22903090215E+03  0.23671299010E+03  0.47000000000E+01 0. -1.
        -13    1    6    6    0    0 -0.36571056638E+02  0.16580919315E+02 -0.79177323944E+01  0.40927491435E+02  0.00000000000E+00 0.  1.
         14    1    6    6    0    0 -0.88917169558E+02  0.11954313139E+03 -0.19881612772E+03  0.24844451282E+03  0.00000000000E+00 0. -1.
         -5    1    3    3    0  503  0.11941467077E+03 -0.15102024911E+03 -0.35246895168E+02  0.19578409756E+03  0.47000000000E+01 0.  1.
         11    1    4    4    0    0  0.33365697112E+02  0.31027867616E+01 -0.46797181233E+02  0.57557564236E+02  0.00000000000E+00 0. -1.
        -12    1    4    4    0    0  0.29239876094E+02 -0.71783175619E+01  0.33201809253E+02  0.44820293782E+02  0.00000000000E+00 0.  1.
</event>
<event>
12    1  0.1030140E-001  0.2663299E+03  0.7818608E-02  0.1103615E+00
         21   -1    0    0  501  502  0.00000000000E+00  0.00000000000E+00  0.21512918615E+03  0.21512918615E+03  0.00000000000E+00 0. -1.
         21   -1    0    0  502  503 -0.00000000000E+00 -0.00000000000E+00 -0.46386563810E+03  0.46386563810E+03  0.00000000000E+00 0. -1.
         -6    2    1    2    0  503 -0.18331163959E+03  0.76685203188E+02 -0.30842740975E+03  0.40750346130E+03  0.17733534980E+03 0.  0.
        -24    2    3    3    0    0 -0.24592923430E+02  0.39138331329E+02 -0.16265825835E+03  0.18870644590E+03  0.83760329840E+02 0.  0.
          6    2    1    2  501    0  0.18331163959E+03 -0.76685203188E+02  0.59690957806E+02  0.27149136295E+03  0.17510217621E+03 0.  0.
         24    2    5    5    0    0  0.32361488057E+02 -0.38524771482E+01 -0.14960124639E+02  0.87955458174E+02  0.80313447218E+02 0.  0.
          5    1    5    5  501    0  0.15095015154E+03 -0.72832726040E+02  0.74651082445E+02  0.18353590477E+03  0.47000000000E+01 0. -1.
        -13    1    6    6    0    0  0.12233387322E+02 -0.78281525760E+01 -0.47398234797E+02  0.49573464676E+02  0.00000000000E+00 0.  1.
         14    1    6    6    0    0  0.20128100735E+02  0.39756754279E+01  0.32438110158E+02  0.38381993498E+02  0.00000000000E+00 0. -1.
         -5    1    3    3    0  503 -0.15871871616E+03  0.37546871859E+02 -0.14576915141E+03  0.21879701540E+03  0.47000000000E+01 0.  1.
         13    1    4    4    0    0 -0.54948716355E+02  0.17907767719E+02 -0.86696501884E+02  0.10419372828E+03  0.00000000000E+00 0. -1.
        -14    1    4    4    0    0  0.30355792925E+02  0.21230563609E+02 -0.75961756462E+02  0.84512717623E+02  0.00000000000E+00 0.  1.
</event>
<event>
12    1  0.1030140E-001  0.1801726E+03  0.7818608E-02  0.1167694E+00
         21   -1    0    0  501  502  0.00000000000E+00  0.00000000000E+00  0.35913416057E+03  0.35913416057E+03  0.00000000000E+00 0.  1.
         21   -1    0    0  502  503 -0.00000000000E+00 -0.00000000000E+00 -0.11191392934E+03  0.11191392934E+03  0.00000000000E+00 0.  1.
         -6    2    1    2    0  503  0.49177968421E+02  0.21583506476E+02  0.22725211781E+03  0.29000978538E+03  0.17198206371E+03 0.  0.
        -24    2    3    3    0    0 -0.10567134056E+02  0.89975994687E+01  0.14146276581E+02  0.68280058255E+02  0.65340860845E+02 0.  0.
          6    2    1    2  501    0 -0.49177968421E+02 -0.21583506476E+02  0.19968113417E+02  0.18103830454E+03  0.17173183114E+03 0.  0.
         24    2    5    5    0    0 -0.60403501676E+02  0.33079603848E+02 -0.26497982984E+02  0.10826979251E+03  0.79229802873E+02 0.  0.
          5    1    5    5  501    0  0.11225533256E+02 -0.54663110324E+02  0.46466096401E+02  0.72768512022E+02  0.47000000000E+01 0. -1.
        -11    1    6    6    0    0 -0.24442907170E+02 -0.24136888587E+02 -0.21458793213E+02  0.40503393780E+02  0.00000000000E+00 0.  1.
         12    1    6    6    0    0 -0.35960594506E+02  0.57216492434E+02 -0.50391897710E+01  0.67766398733E+02  0.00000000000E+00 0. -1.
         -5    1    3    3    0  503  0.59745102476E+02  0.12585907008E+02  0.21310584123E+03  0.22172972712E+03  0.47000000000E+01 0.  1.
         11    1    4    4    0    0 -0.28972344513E+01 -0.21300189623E+02  0.26977925320E+02  0.34494934411E+02  0.00000000000E+00 0. -1.
        -12    1    4    4    0    0 -0.76698996042E+01  0.30297789092E+02 -0.12831648740E+02  0.33785123844E+02  0.00000000000E+00 0.  1.
</event>
<event>
12    1  0.1030140E-001  0.1716703E+03  0.7818608E-02  0.1176282E+00
         21   -1    0    0  503  502  0.00000000000E+00  0.00000000000E+00  0.29157145568E+03  0.29157145568E+03  0.00000000000E+00 0.  1.
         21   -1    0    0  501  503 -0.00000000000E+00 -0.00000000000E+00 -0.20746011539E+03  0.20746011539E+03  0.00000000000E+00 0.  1.
          6    2    1    2  501    0  0.52487420058E+01 -0.46665243726E+01 -0.13697490881E+03  0.21912118837E+03  0.17088781059E+03 0.  0.
         24    2    3    3    0    0  0.32735688208E+02  0.25757150962E+02 -0.21383318907E+02  0.96383101827E+02  0.84246067458E+02 0.  0.
         -6    2    1    2    0  502 -0.52487420058E+01  0.46665243726E+01  0.22108624909E+03  0.27991038270E+03  0.17152657830E+03 0.  0.
        -24    2    5    5    0    0 -0.49059550324E+02 -0.46175706157E+02  0.13318983581E+03  0.16922077705E+03  0.79731447402E+02 0.  0.
          5    1    3    3  501    0 -0.27486946202E+02 -0.30423675335E+02 -0.11559158990E+03  0.12273808654E+03  0.47000000000E+01 0. -1.
        -13    1    4    4    0    0 -0.23722819888E+01 -0.14270799108E+02 -0.37956891728E+02  0.40620303527E+02  0.00000000000E+00 0.  1.
         14    1    4    4    0    0  0.35107970197E+02  0.40027950070E+02  0.16573572821E+02  0.55762798300E+02  0.00000000000E+00 0. -1.
         -5    1    5    5    0  502  0.43810808318E+02  0.50842230529E+02  0.87896413287E+02  0.11068960565E+03  0.47000000000E+01 0.  1.
         11    1    6    6    0    0 -0.24471652809E+02 -0.50903695557E+02  0.13265318804E+03  0.14417668435E+03  0.00000000000E+00 0. -1.
        -12    1    6    6    0    0 -0.24587897515E+02  0.47279894003E+01  0.53664776164E+00  0.25044092693E+02  0.00000000000E+00 0.  1.
</event>
<event>
12    1  0.1030140E-001  0.1966080E+03  0.7818608E-02  0.1152785E+00
         21   -1    0    0  503  502  0.00000000000E+00  0.00000000000E+00  0.40009180628E+03  0.40009180628E+03  0.00000000000E+00 0. -1.
         21   -1    0    0  501  503 -0.00000000000E+00 -0.00000000000E+00 -0.17809646733E+03  0.17809646733E+03  0.00000000000E+00 0. -1.
          6    2    1    2  501    0 -0.64373091231E+02 -0.69524137406E+02 -0.84851639217E+02  0.21413667368E+03  0.17227075718E+03 0.  0.
         24    2    3    3    0    0  0.85847063617E+01 -0.21181003246E+02  0.12444550473E+02  0.83184249575E+02  0.79008989735E+02 0.  0.
         -6    2    1    2    0  502  0.64373091231E+02  0.69524137406E+02  0.30684697817E+03  0.36405159994E+03  0.17146719468E+03 0.  0.
        -24    2    5    5    0    0  0.91769596267E+02  0.85490499595E+02  0.29112487578E+03  0.32834771061E+03  0.85605148485E+02 0.  0.
          5    1    3    3  501    0 -0.72957797593E+02 -0.48343134159E+02 -0.97296189690E+02  0.13095242410E+03  0.47000000000E+01 0. -1.
        -13    1    4    4    0    0 -0.24157383760E+02 -0.13759270134E+02  0.33516874911E+02  0.43546269743E+02  0.00000000000E+00 0.  1.
         14    1    4    4    0    0  0.32742090121E+02 -0.74217331119E+01 -0.21072324438E+02  0.39637979832E+02  0.00000000000E+00 0. -1.
         -5    1    5    5    0  502 -0.27396505036E+02 -0.15966362189E+02  0.15722102391E+02  0.35703889331E+02  0.47000000000E+01 0.  1.
         13    1    6    6    0    0  0.52295025284E+02  0.37877378379E+02  0.23866969872E+03  0.24725025895E+03  0.00000000000E+00 0. -1.
        -14    1    6    6    0    0  0.39474570983E+02  0.47613121216E+02  0.52455177056E+02  0.81097451663E+02  0.00000000000E+00 0.  1.
</event>
<event>
12    1  0.1030140E-001  0.1926870E+03  0.7818608E-02  0.1156451E+00
         21   -1    0    0  501  502  0.00000000000E+00  0.00000000000E+00  0.17262388190E+03  0.17262388190E+03  0.00000000000E+00 0.  1.
         21   -1    0    0  502  503 -0.00000000000E+00 -0.00000000000E+00 -0.21446522351E+03  0.21446522351E+03  0.00000000000E+00 0.  1.
         -6    2    1    2    0  503 -0.83289058914E+02 -0.19731282549E+02 -0.36320721392E+02  0.19608027177E+03  0.17263223143E+03 0.  0.
        -24    2    3    3    0    0  0.16190337328E+02 -0.16921892097E+02  0.12978779373E+02  0.84920145256E+02  0.80588491122E+02 0.  0.
          6    2    1    2  501    0  0.83289058914E+02  0.19731282549E+02 -0.55206202166E+01  0.19100883364E+03  0.17066782484E+03 0.  0.
         24    2    5    5    0    0  0.12832826960E+02 -0.44832074476E+02  0.11462263450E+02  0.93833651476E+02  0.80614975758E+02 0.  0.
          5    1    5    5  501    0  0.70456231954E+02  0.64563357024E+02 -0.16982883667E+02  0.97175182166E+02  0.47000000000E+01 0. -1.
        -13    1    6    6    0    0  0.37867930027E+02 -0.29534573171E+02 -0.18903170048E+02  0.51610085979E+02  0.00000000000E+00 0.  1.
         14    1    6    6    0    0 -0.25035103067E+02 -0.15297501305E+02  0.30365433498E+02  0.42223565497E+02  0.00000000000E+00 0. -1.
         -5    1    3    3    0  503 -0.99479396241E+02 -0.28093904519E+01 -0.49299500764E+02  0.11116012652E+03  0.47000000000E+01 0.  1.
         11    1    4    4    0    0 -0.14644966968E+01 -0.48017396054E+02  0.51468709124E+01  0.48314649482E+02  0.00000000000E+00 0. -1.
        -12    1    4    4    0    0  0.17654834025E+02  0.31095503957E+02  0.78319084602E+01  0.36605495774E+02  0.00000000000E+00 0.  1.
</event>
<event>
12    1  0.1030140E-001  0.2115659E+03  0.7818608E-02  0.1140375E+00
         21   -1    0    0  501  502  0.00000000000E+00  0.00000000000E+00  0.43051959523E+03  0.43051959523E+03  0.00000000000E+00 0.  1.
         21   -1    0    0  502  503 -0.00000000000E+00 -0.00000000000E+00 -0.17236239646E+03  0.17236239646E+03  0.00000000000E+00 0.  1.
         -6    2    1    2    0  503 -0.10078715416E+03  0.72415722010E+02 -0.60996401002E+02  0.21997320955E+03  0.17107181167E+03 0.  0.
        -24    2    3    3    0    0 -0.32885203873E+02  0.71300778654E+02  0.22322649425E+02  0.11238105317E+03  0.77239645031E+02 0.  0.
          6    2    1    2  501    0  0.10078715416E+03 -0.72415722010E+02  0.31915359977E+03  0.38290878213E+03  0.17134184530E+03 0.  0.
         24    2    5    5    0    0  0.16571870785E+01 -0.77337977310E+02  0.20544068957E+03  0.23189985883E+03  0.74751311636E+02 0.  0.
          5    1    5    5  501    0  0.99129967077E+02  0.49222553004E+01  0.11371291020E+03  0.15100892330E+03  0.47000000000E+01 0. -1.
        -11    1    6    6    0    0  0.25534940147E+02 -0.39169548951E+02  0.16460509234E+03  0.17111727896E+03  0.00000000000E+00 0.  1.
         12    1    6    6    0    0 -0.23877753068E+02 -0.38168428359E+02  0.40835597231E+02  0.60782579875E+02  0.00000000000E+00 0. -1.
         -5    1    3    3    0  503 -0.67901950283E+02  0.11149433555E+01 -0.83319050427E+02  0.10759215638E+03  0.47000000000E+01 0.  1.
         11    1    4    4    0    0  0.97644344248E+01  0.28926764295E+02 -0.22048286103E+02  0.37659378544E+02  0.00000000000E+00 0. -1.
        -12    1    4    4    0    0 -0.42649638297E+02  0.42374014359E+02  0.44370935528E+02  0.74721674629E+02  0.00000000000E+00 0.  1.
</event>
<event>
12    1  0.1030140E-001  0.2055387E+03  0.7818608E-02  0.1145252E+00
         21   -1    0    0  501  502  0.00000000000E+00  0.00000000000E+00  0.43505327091E+03  0.43505327091E+03  0.00000000000E+00 0.  1.
         21   -1    0    0  502  503 -0.00000000000E+00 -0.00000000000E+00 -0.97704899483E+02  0.97704899483E+02  0.00000000000E+00 0. -1.
         -6    2    1    2    0  503  0.89601848819E+02 -0.66220461396E+02  0.19315398150E+03  0.28168407932E+03  0.17211571443E+03 0.  0.
        -24    2    3    3    0    0  0.18333652238E+01 -0.21849428170E+02  0.15527387460E+03  0.17618958751E+03  0.80324565838E+02 0.  0.
          6    2    1    2  501    0 -0.89601848819E+02  0.66220461396E+02  0.14419438993E+03  0.25107409108E+03  0.17272097818E+03 0.  0.
         24    2    5    5    0    0 -0.85973389119E+02  0.25945638531E+02  0.16615825835E+03  0.20481689064E+03  0.79226208276E+02 0.  0.
          5    1    5    5  501    0 -0.36284596991E+01  0.40274822865E+02 -0.21963868418E+02  0.46257200440E+02  0.47000000000E+01 0. -1.
        -11    1    6    6    0    0 -0.40287185006E+02  0.53052870499E+02  0.94150897511E+02  0.11533453882E+03  0.00000000000E+00 0.  1.
         12    1    6    6    0    0 -0.45686204113E+02 -0.27107231968E+02  0.72007360836E+02  0.89482351812E+02  0.00000000000E+00 0. -1.
         -5    1    3    3    0  503  0.87768483595E+02 -0.44371033226E+02  0.37880106906E+02  0.10549449181E+03  0.47000000000E+01 0.  1.
         11    1    4    4    0    0 -0.31836449660E+02 -0.31549767734E+02  0.11113976552E+03  0.11983736834E+03  0.00000000000E+00 0. -1.
        -12    1    4    4    0    0  0.33669814884E+02  0.97003395636E+01  0.44134109080E+02  0.56352219178E+02  0.00000000000E+00 0.  1.
</event>
<event>
12    1  0.1030140E-001  0.1957551E+03  0.7818608E-02  0.1153386E+00
         21   -1    0    0  501  502  0.00000000000E+00  0.00000000000E+00  0.68190153140E+03  0.68190153140E+03  0.00000000000E+00 0. -1.
         21   -1    0    0  502  503 -0.00000000000E+00 -0.00000000000E+00 -0.71515100865E+02  0.71515100865E+02  0.00000000000E+00 0. -1.
         -6    2    1    2    0  503  0.62729375088E+02 -0.67125827208E+02  0.13068623674E+03  0.23531205544E+03  0.17277737057E+03 0.  0.
        -24    2    3    3    0    0 -0.16029906590E+02 -0.11799246911E+01  0.19509333788E+02  0.83871373121E+02  0.79971513658E+02 0.  0.
          6    2    1    2  501    0 -0.62729375088E+02  0.67125827208E+02  0.47970019379E+03  0.51810457683E+03  0.17285608300E+03 0.  0.
         24    2    5    5    0    0 -0.76001282840E+02  0.10039916788E+03  0.30320417516E+03  0.33794855187E+03  0.80126549757E+02 0.  0.
          5    1    5    5  501    0  0.13271907752E+02 -0.33273340671E+02  0.17649601863E+03  0.18015602495E+03  0.47000000000E+01 0. -1.
        -11    1    6    6    0    0 -0.12087487402E+02  0.57565411895E+02  0.65174476469E+02  0.87792917604E+02  0.00000000000E+00 0.  1.
         12    1    6    6    0    0 -0.63913795437E+02  0.42833755983E+02  0.23802969869E+03  0.25015563427E+03  0.00000000000E+00 0. -1.
         -5    1    3    3    0  503  0.78759281678E+02 -0.65945902517E+02  0.11117690296E+03  0.15144068232E+03  0.47000000000E+01 0.  1.
         13    1    4    4    0    0 -0.13472726809E+02 -0.26694514651E+02 -0.20568088069E+02  0.36292667674E+02  0.00000000000E+00 0. -1.
        -14    1    4    4    0    0 -0.25571797813E+01  0.25514589960E+02  0.40077421857E+02  0.47578705446E+02  0.00000000000E+00 0.  1.
</event>
<event>
12    1  0.1030140E-001  0.1731291E+03  0.7818608E-02  0.1174956E+00
         21   -1    0    0  501  502  0.00000000000E+00  0.00000000000E+00  0.32014262587E+04  0.32014262587E+04  0.00000000000E+00 0. -1.
         21   -1    0    0  502  503 -0.00000000000E+00 -0.00000000000E+00 -0.10703438430E+02  0.10703438430E+02  0.00000000000E+00 0. -1.
         -6    2    1    2    0  503 -0.96781936752E+01 -0.98510987465E+01  0.10069926278E+04  0.10215473005E+04  0.17127178155E+03 0.  0.
        -24    2    3    3    0    0  0.45421840026E+00 -0.57516406938E+02  0.88594109016E+03  0.89097083960E+03  0.75027184364E+02 0.  0.
          6    2    1    2  501    0  0.96781936752E+01  0.98510987465E+01  0.21837301925E+04  0.21905823966E+04  0.17257743564E+03 0.  0.
         24    2    5    5    0    0  0.66409195695E+02 -0.14115506033E+02  0.17101086150E+04  0.17129504323E+04  0.71542151844E+02 0.  0.
          5    1    5    5  501    0 -0.56731002020E+02  0.23966604780E+02  0.47362157749E+03  0.47763196438E+03  0.47000000000E+01 0. -1.
        -11    1    6    6    0    0  0.26947903796E+02 -0.33301771323E+02  0.43913084048E+03  0.44121547179E+03  0.00000000000E+00 0.  1.
         12    1    6    6    0    0  0.39461291900E+02  0.19186265289E+02  0.12709777745E+04  0.12717349605E+04  0.00000000000E+00 0. -1.
         -5    1    3    3    0  503 -0.10132412075E+02  0.47665308192E+02  0.12105153760E+03  0.13057646088E+03  0.47000000000E+01 0.  1.
         13    1    4    4    0    0 -0.38811751293E+01 -0.48839032832E+02  0.23963707587E+03  0.24459403669E+03  0.00000000000E+00 0. -1.
        -14    1    4    4    0    0  0.43353935296E+01 -0.86773741066E+01  0.64630401429E+03  0.64637680291E+03  0.00000000000E+00 0.  1.
</event>
<event>
12    1  0.1030140E-001  0.2868804E+03  0.7818608E-02  0.1092048E+00
         21   -1    0    0  501  502  0.00000000000E+00  0.00000000000E+00  0.10538554156E+03  0.10538554156E+03  0.00000000000E+00 0. -1.
         21   -1    0    0  502  503 -0.00000000000E+00 -0.00000000000E+00 -0.84448683995E+03  0.84448683995E+03  0.00000000000E+00 0. -1.
         -6    2    1    2    0  503 -0.14131993158E+03  0.18196389702E+03 -0.23778265034E+03  0.37227325153E+03  0.17018990017E+03 0.  0.
        -24    2    3    3    0    0 -0.54934530813E+02  0.60447486667E+02 -0.17788883745E+03  0.21153111557E+03  0.80182747781E+02 0.  0.
          6    2    1    2  501    0  0.14131993158E+03 -0.18196389702E+03 -0.50131864805E+03  0.57759912998E+03  0.17093327701E+03 0.  0.
         24    2    5    5    0    0  0.12141698577E+03 -0.51584335387E+02 -0.25126435311E+03  0.29485508007E+03  0.80016966991E+02 0.  0.
          5    1    5    5  501    0  0.19902945816E+02 -0.13037956164E+03 -0.25005429494E+03  0.28274404992E+03  0.47000000000E+01 0. -1.
        -13    1    6    6    0    0  0.12105493961E+01  0.41946808730E+01  0.48270820860E+01  0.65085711897E+01  0.00000000000E+00 0.  1.
         14    1    6    6    0    0  0.12020643637E+03 -0.55779016260E+02 -0.25609143520E+03  0.28834650888E+03  0.00000000000E+00 0. -1.
         -5    1    3    3    0  503 -0.86385400769E+02  0.12151641036E+03 -0.59893812888E+02  0.16074213596E+03  0.47000000000E+01 0.  1.
         11    1    4    4    0    0 -0.48684085690E+02  0.55467467979E+02 -0.64956816878E+02  0.98316673369E+02  0.00000000000E+00 0. -1.
        -12    1    4    4    0    0 -0.62504451222E+01  0.49800186874E+01 -0.11293202058E+03  0.11321444220E+03  0.00000000000E+00 0.  1.
</event>
<event>
12    1  0.1030140E-001  0.2345601E+03  0.7818608E-02  0.1123588E+00
         21   -1    0    0  501  502  0.00000000000E+00  0.00000000000E+00  0.14488377360E+04  0.14488377360E+04  0.00000000000E+00 0. -1.
         21   -1    0    0  502  503 -0.00000000000E+00 -0.00000000000E+00 -0.50177789266E+02  0.50177789266E+02  0.00000000000E+00 0. -1.
         -6    2    1    2    0  503 -0.15664647341E+03  0.30645729455E+02  0.10698585816E+04  0.10951234954E+04  0.17094094637E+03 0.  0.
        -24    2    3    3    0    0 -0.17644537086E+03  0.11712646573E+02  0.77518857065E+03  0.79914551761E+03  0.80287503824E+02 0.  0.
          6    2    1    2  501    0  0.15664647341E+03 -0.30645729455E+02  0.32880136518E+03  0.40389202993E+03  0.17187540759E+03 0.  0.
         24    2    5    5    0    0  0.19730423901E+02  0.51585512201E+01  0.66273542201E+02  0.10561212956E+03  0.79660776023E+02 0.  0.
          5    1    5    5  501    0  0.13691604951E+03 -0.35804280675E+02  0.26252782298E+03  0.29827990037E+03  0.47000000000E+01 0. -1.
        -13    1    6    6    0    0  0.20589372033E+02  0.41257455332E+02  0.36307956332E+02  0.58688734474E+02  0.00000000000E+00 0.  1.
         14    1    6    6    0    0 -0.85894813181E+00 -0.36098904112E+02  0.29965585868E+02  0.46923395086E+02  0.00000000000E+00 0. -1.
         -5    1    3    3    0  503  0.19798897458E+02  0.18933082881E+02  0.29467001095E+03  0.29597797777E+03  0.47000000000E+01 0.  1.
         11    1    4    4    0    0 -0.99312373505E+02 -0.27114613550E+02  0.50878457495E+03  0.51909526438E+03  0.00000000000E+00 0. -1.
        -12    1    4    4    0    0 -0.77132997359E+02  0.38827260123E+02  0.26640399570E+03  0.28005025323E+03  0.00000000000E+00 0.  1.
</event>
<event>
12    1  0.1030140E-001  0.2238972E+03  0.7818608E-02  0.1131295E+00
         21   -1    0    0  503  502  0.00000000000E+00  0.00000000000E+00  0.69590219234E+03  0.69590219234E+03  0.00000000000E+00 0. -1.
         21   -1    0    0  501  503 -0.00000000000E+00 -0.00000000000E+00 -0.22836131826E+03  0.22836131826E+03  0.00000000000E+00 0.  1.
          6    2    1    2  501    0  0.59557519141E+02  0.12753480547E+03 -0.14894177954E+03  0.26891193471E+03  0.17411993064E+03 0.  0.
         24    2    3    3    0    0  0.24189145768E+02  0.15240048078E+03 -0.15603162776E+03  0.22484857589E+03  0.48989712192E+02 0.  0.
         -6    2    1    2    0  502 -0.59557519141E+02 -0.12753480547E+03  0.61648265362E+03  0.65535157588E+03  0.17211217594E+03 0.  0.
        -24    2    5    5    0    0  0.17972069765E+02 -0.99527978502E+02  0.46773126314E+03  0.48522137374E+03  0.80239848060E+02 0.  0.
          5    1    3    3  501    0  0.35368373373E+02 -0.24865675303E+02  0.70898482227E+01  0.44063358828E+02  0.47000000000E+01 0. -1.
        -13    1    4    4    0    0  0.24624317718E+02  0.95845255356E+02 -0.12780897641E+03  0.16164097392E+03  0.00000000000E+00 0.  1.
         14    1    4    4    0    0 -0.43517195091E+00  0.56555225422E+02 -0.28222651351E+02  0.63207601967E+02  0.00000000000E+00 0. -1.
         -5    1    5    5    0  502 -0.77529588906E+02 -0.28006826973E+02  0.14875139048E+03  0.17013020215E+03  0.47000000000E+01 0.  1.
         13    1    6    6    0    0 -0.17280572310E+02 -0.88636964799E+02  0.36693965461E+03  0.37788866063E+03  0.00000000000E+00 0. -1.
        -14    1    6    6    0    0  0.35252642075E+02 -0.10891013703E+02  0.10079160854E+03  0.10733271311E+03  0.00000000000E+00 0.  1.
</event>
<event>
12    1  0.1030140E-001  0.2744407E+03  0.7818608E-02  0.1099121E+00
         21   -1    0    0  503  502  0.00000000000E+00  0.00000000000E+00  0.53764619233E+03  0.53764619233E+03  0.00000000000E+00 0.  1.
         21   -1    0    0  501  503 -0.00000000000E+00 -0.00000000000E+00 -0.15678397513E+03  0.15678397513E+03  0.00000000000E+00 0.  1.
          6    2    1    2  501    0  0.21080461229E+03 -0.32247981497E+02  0.72049397679E+02  0.28129207604E+03  0.16868787586E+03 0.  0.
         24    2    3    3    0    0  0.65600285723E+02 -0.14232197975E+02  0.84914963108E+02  0.13433467512E+03  0.79556904379E+02 0.  0.
         -6    2    1    2    0  502 -0.21080461229E+03  0.32247981497E+02  0.30881281952E+03  0.41313809143E+03  0.17274029122E+03 0.  0.
        -24    2    5    5    0    0 -0.19412630105E+03 -0.26262131776E+02  0.25825392311E+03  0.33389232544E+03  0.80089174408E+02 0.  0.
          5    1    3    3  501    0  0.14520432657E+03 -0.18015783522E+02 -0.12865565429E+02  0.14695740092E+03  0.47000000000E+01 0. -1.
        -11    1    4    4    0    0  0.34566203126E+02 -0.19033128874E+02 -0.43576657906E+01  0.39699768821E+02  0.00000000000E+00 0.  1.
         12    1    4    4    0    0  0.31034082596E+02  0.48009308990E+01  0.89272628898E+02  0.94634906301E+02  0.00000000000E+00 0. -1.
         -5    1    5    5    0  502 -0.16678311243E+02  0.58510113273E+02  0.50558896407E+02  0.79245765988E+02  0.47000000000E+01 0.  1.
         11    1    6    6    0    0 -0.69517665286E+02 -0.42452408090E+02  0.13630810912E+03  0.15879172948E+03  0.00000000000E+00 0. -1.
        -12    1    6    6    0    0 -0.12460863576E+03  0.16190276314E+02  0.12194581400E+03  0.17510059596E+03  0.00000000000E+00 0.  1.
</event>
<event>
12    1  0.1030140E-001  0.1888663E+03  0.7818608E-02  0.1160048E+00
         21   -1    0    0  503  502  0.00000000000E+00  0.00000000000E+00  0.49322569069E+03  0.49322569069E+03  0.00000000000E+00 0. -1.
         21   -1    0    0  501  503 -0.00000000000E+00 -0.00000000000E+00 -0.27250805296E+03  0.27250805296E+03  0.00000000000E+00 0. -1.
          6    2    1    2  501    0 -0.74711677623E+02  0.77526630437E+01 -0.21874634438E+03  0.28740427324E+03  0.17061452031E+03 0.  0.
         24    2    3    3    0    0 -0.45333327601E+02  0.71516653161E+02 -0.13359720348E+03  0.17694432538E+03  0.79317962875E+02 0.  0.
         -6    2    1    2    0  502  0.74711677623E+02 -0.77526630437E+01  0.43946398210E+03  0.47832947041E+03  0.17328748408E+03 0.  0.
        -24    2    5    5    0    0  0.92451297467E+02  0.42417119763E+02  0.24432272438E+03  0.27600818709E+03  0.78361158998E+02 0.  0.
          5    1    3    3  501    0 -0.29378350022E+02 -0.63763990117E+02 -0.85149140893E+02  0.11045994786E+03  0.47000000000E+01 0. -1.
        -13    1    4    4    0    0 -0.19339332395E+02  0.11430621034E+02  0.55719429544E+01  0.23145527062E+02  0.00000000000E+00 0.  1.
         14    1    4    4    0    0 -0.25993995206E+02  0.60086032127E+02 -0.13916914644E+03  0.15379879832E+03  0.00000000000E+00 0. -1.
         -5    1    5    5    0  502 -0.17739619844E+02 -0.50169782807E+02  0.19514125772E+03  0.20232128332E+03  0.47000000000E+01 0.  1.
         11    1    6    6    0    0  0.54250936849E+02 -0.15459834868E+02  0.82389062171E+02  0.99850529336E+02  0.00000000000E+00 0. -1.
        -12    1    6    6    0    0  0.38200360617E+02  0.57876954631E+02  0.16193366221E+03  0.17615765776E+03  0.00000000000E+00 0.  1.
</event>
<event>
12    1  0.1030140E-001  0.1757617E+03  0.7818608E-02  0.1172336E+00
         21   -1    0    0  503  502  0.00000000000E+00  0.00000000000E+00  0.15175169252E+03  0.15175169252E+03  0.00000000000E+00 0.  1.
         21   -1    0    0  501  503 -0.00000000000E+00 -0.00000000000E+00 -0.27437583614E+03  0.27437583614E+03  0.00000000000E+00 0.  1.
          6    2    1    2  501    0 -0.88485979011E+01  0.27641148437E+02 -0.17064422994E+03  0.24392402665E+03  0.17186374485E+03 0.  0.
         24    2    3    3    0    0 -0.14204970501E+01  0.55354330352E+02 -0.18782019139E+03  0.21015568666E+03  0.76307723348E+02 0.  0.
         -6    2    1    2    0  502  0.88485979011E+01 -0.27641148437E+02  0.48020086322E+02  0.18220350201E+03  0.17334894486E+03 0.  0.
        -24    2    5    5    0    0 -0.29412643067E+02 -0.55899060337E+02 -0.16293889231E+02  0.10207354759E+03  0.78509297358E+02 0.  0.
          5    1    3    3  501    0 -0.74281008510E+01 -0.27713181915E+02  0.17175961445E+02  0.33768339990E+02  0.47000000000E+01 0. -1.
        -11    1    4    4    0    0 -0.72189436390E+01 -0.78516756565E+01 -0.10632955147E+03  0.10686316238E+03  0.00000000000E+00 0.  1.
         12    1    4    4    0    0  0.57984465890E+01  0.63206006008E+02 -0.81490639916E+02  0.10329252428E+03  0.00000000000E+00 0. -1.
         -5    1    5    5    0  502  0.38261240968E+02  0.28257911900E+02  0.64313975552E+02  0.80129954429E+02  0.47000000000E+01 0.  1.
         11    1    6    6    0    0 -0.28674265026E+02  0.13076982404E+02 -0.16646949956E+01  0.31559343355E+02  0.00000000000E+00 0. -1.
        -12    1    6    6    0    0 -0.73837804080E+00 -0.68976042740E+02 -0.14629194235E+02  0.70514204230E+02  0.00000000000E+00 0.  1.
</event>
<event>
12    1  0.1030140E-001  0.2050985E+03  0.7818608E-02  0.1145562E+00
         21   -1    0    0  503  502  0.00000000000E+00  0.00000000000E+00  0.67786905348E+02  0.67786905348E+02  0.00000000000E+00 0.  1.
         21   -1    0    0  501  503 -0.00000000000E+00 -0.00000000000E+00 -0.66632318705E+03  0.66632318705E+03  0.00000000000E+00 0. -1.
          6    2    1    2  501    0 -0.11005883864E+03 -0.24888309835E+02 -0.20203623077E+03  0.28770480211E+03  0.17094747347E+03 0.  0.
         24    2    3    3    0    0 -0.30582198136E+02  0.39794158572E+02 -0.54265952602E+02  0.10782010789E+03  0.78495453081E+02 0.  0.
         -6    2    1    2    0  502  0.11005883864E+03  0.24888309835E+02 -0.39650005093E+03  0.44640529028E+03  0.17126884386E+03 0.  0.
        -24    2    5    5    0    0  0.14193992638E+03  0.23532963000E+02 -0.27060427282E+03  0.31644345871E+03  0.78797506571E+02 0.  0.
          5    1    3    3  501    0 -0.79476640506E+02 -0.64682468407E+02 -0.14777027817E+03  0.17988469422E+03  0.47000000000E+01 0. -1.
        -13    1    4    4    0    0 -0.63095828604E+01 -0.12496663347E+02  0.13087196907E+02  0.19163824085E+02  0.00000000000E+00 0.  1.
         14    1    4    4    0    0 -0.24272615276E+02  0.52290821920E+02 -0.67353149509E+02  0.88656283805E+02  0.00000000000E+00 0. -1.
         -5    1    5    5    0  502 -0.31881087741E+02  0.13553468346E+01 -0.12589577811E+03  0.12996183157E+03  0.47000000000E+01 0.  1.
         11    1    6    6    0    0  0.56060062468E+02 -0.86906532439E+01 -0.17494334713E+03  0.18391148078E+03  0.00000000000E+00 0. -1.
        -12    1    6    6    0    0  0.85879863915E+02  0.32223616244E+02 -0.95660925694E+02  0.13253197793E+03  0.00000000000E+00 0.  1.
</event>
<event>
12    1  0.1030140E-001  0.1895551E+03  0.7818608E-02  0.1159471E+00
         21   -1    0    0  503  502  0.00000000000E+00  0.00000000000E+00  0.23848280983E+02  0.23848280983E+02  0.00000000000E+00 0.  1.
         21   -1    0    0  501  503 -0.00000000000E+00 -0.00000000000E+00 -0.14857032232E+04  0.14857032232E+04  0.00000000000E+00 0.  1.
          6    2    1    2  501    0  0.67965885959E+02  0.34046233468E+02 -0.74399251250E+03  0.76776037075E+03  0.17364509949E+03 0.  0.
         24    2    3    3    0    0  0.35553656141E+02 -0.50192619825E+02 -0.38280093262E+03  0.39543231054E+03  0.77761151323E+02 0.  0.
         -6    2    1    2    0  502 -0.67965885959E+02 -0.34046233468E+02 -0.71786242972E+03  0.74179113343E+03  0.17073110428E+03 0.  0.
        -24    2    5    5    0    0 -0.36280956719E+02  0.39021300068E+02 -0.27247379461E+03  0.28931359202E+03  0.81372084270E+02 0.  0.
          5    1    3    3  501    0  0.32412229818E+02  0.84238853293E+02 -0.36119157987E+03  0.37232806021E+03  0.47000000000E+01 0. -1.
        -13    1    4    4    0    0  0.28601797816E+02 -0.73236233676E+01 -0.30421736893E+03  0.30564670104E+03  0.00000000000E+00 0.  1.
         14    1    4    4    0    0  0.69518583245E+01 -0.42868996457E+02 -0.78583563695E+02  0.89785609506E+02  0.00000000000E+00 0. -1.
         -5    1    5    5    0  502 -0.31684929240E+02 -0.73067533536E+02 -0.44538863511E+03  0.45247754141E+03  0.47000000000E+01 0.  1.
         11    1    6    6    0    0  0.13121588090E+02  0.94985140301E+01 -0.17768040485E+03  0.17841727526E+03  0.00000000000E+00 0. -1.
        -12    1    6    6    0    0 -0.49402544808E+02  0.29522786038E+02 -0.94793389758E+02  0.11089631676E+03  0.00000000000E+00 0.  1.
</event>
<event>
12    1  0.1030140E-001  0.1823921E+03  0.7818608E-02  0.1166074E+00
         21   -1    0    0  503  502  0.00000000000E+00  0.00000000000E+00  0.62168927813E+02  0.62168927813E+02  0.00000000000E+00 0. -1.
         21   -1    0    0  501  503 -0.00000000000E+00 -0.00000000000E+00 -0.75209182818E+03  0.75209182818E+03  0.00000000000E+00 0. -1.
          6    2    1    2  501    0 -0.53510007575E+02 -0.31965959359E+02 -0.12124281518E+03  0.21704730931E+03  0.16889218685E+03 0.  0.
         24    2    3    3    0    0 -0.45947041078E+02  0.71695914774E+01 -0.14295121567E+03  0.17141689781E+03  0.82378208096E+02 0.  0.
         -6    2    1    2    0  502  0.53510007575E+02  0.31965959359E+02 -0.56868008519E+03  0.59721344668E+03  0.17141096271E+03 0.  0.
        -24    2    5    5    0    0  0.71591748746E+02 -0.35482220508E+02 -0.32990568039E+03  0.34839320490E+03  0.78458274309E+02 0.  0.
          5    1    3    3  501    0 -0.75629664964E+01 -0.39135550837E+02  0.21708400493E+02  0.45630411498E+02  0.47000000000E+01 0. -1.
        -13    1    4    4    0    0 -0.66929229342E+02  0.20132530478E+02 -0.10788746984E+03  0.12854783807E+03  0.00000000000E+00 0.  1.
         14    1    4    4    0    0  0.20982188264E+02 -0.12962939000E+02 -0.35063745830E+02  0.42869059746E+02  0.00000000000E+00 0. -1.
         -5    1    5    5    0  502 -0.18081741171E+02  0.67448179867E+02 -0.23877440480E+03  0.24882024178E+03  0.47000000000E+01 0.  1.
         11    1    6    6    0    0  0.85632535192E+02 -0.14697880086E+02 -0.25836877900E+03  0.27258647201E+03  0.00000000000E+00 0. -1.
        -12    1    6    6    0    0 -0.14040786447E+02 -0.20784340422E+02 -0.71536901386E+02  0.75806732885E+02  0.00000000000E+00 0.  1.
</event>
<event>
12    1  0.1030140E-001  0.1832282E+03  0.7818608E-02  0.1164804E+00
         21   -1    0    0  501  502  0.00000000000E+00  0.00000000000E+00  0.52260640649E+02  0.52260640649E+02  0.00000000000E+00 0.  1.
         21   -1    0    0  502  503 -0.00000000000E+00 -0.00000000000E+00 -0.83051222494E+03  0.83051222494E+03  0.00000000000E+00 0.  1.
         -6    2    1    2    0  503 -0.19451060434E+01 -0.61135038400E+02 -0.60023268239E+03  0.62757616259E+03  0.17271737170E+03 0.  0.
        -24    2    3    3    0    0  0.55528449436E+02 -0.47568470285E+02 -0.24231491940E+03  0.26478906743E+03  0.77785358562E+02 0.  0.
          6    2    1    2  501    0  0.19451060434E+01  0.61135038400E+02 -0.17801890190E+03  0.25519670300E+03  0.17231758885E+03 0.  0.
         24    2    5    5    0    0  0.51914132499E+02  0.14503000980E+02 -0.45903206336E+02  0.10637433393E+03  0.79391311725E+02 0.  0.
          5    1    5    5  501    0 -0.49969026455E+02  0.46632037420E+02 -0.13211569557E+03  0.14882236906E+03  0.47000000000E+01 0. -1.
        -13    1    6    6    0    0  0.11568957130E+02  0.29908890541E+02  0.11912693999E+02  0.34209571479E+02  0.00000000000E+00 0.  1.
         14    1    6    6    0    0  0.40345175369E+02 -0.15405889561E+02 -0.57815900335E+02  0.72164762455E+02  0.00000000000E+00 0. -1.
         -5    1    3    3    0  503 -0.57473555479E+02 -0.13566568116E+02 -0.35791776299E+03  0.36278709516E+03  0.47000000000E+01 0.  1.
         11    1    4    4    0    0  0.67598245152E+01  0.17734067096E+02 -0.90611996710E+02  0.92578217260E+02  0.00000000000E+00 0. -1.
        -12    1    4    4    0    0  0.48768624921E+02 -0.65302537380E+02 -0.15170292269E+03  0.17221085017E+03  0.00000000000E+00 0.  1.
</event>
<event>
12    1  0.1030140E-001  0.1807218E+03  0.7818608E-02  0.1167995E+00
         21   -1    0    0  501  502  0.00000000000E+00  0.00000000000E+00  0.74464196294E+03  0.74464196294E+03  0.00000000000E+00 0.  1.
         21   -1    0    0  502  503 -0.00000000000E+00 -0.00000000000E+00 -0.47760103327E+02  0.47760103327E+02  0.00000000000E+00 0.  1.
         -6    2    1    2    0  503 -0.55141328848E+02  0.21078777291E+02  0.22628235063E+03  0.28959293914E+03  0.17080833467E+03 0.  0.
        -24    2    3    3    0    0 -0.57728529893E+02  0.25448594733E+02  0.47569850796E+02  0.11074653434E+03  0.77599549132E+02 0.  0.
          6    2    1    2  501    0  0.55141328848E+02 -0.21078777291E+02  0.47059950899E+03  0.50280912714E+03  0.16693783115E+03 0.  0.
         24    2    5    5    0    0  0.25915341372E+02 -0.56214141286E+01  0.45993593670E+03  0.46775359699E+03  0.80926858411E+02 0.  0.
          5    1    5    5  501    0  0.29225987476E+02 -0.15457363162E+02  0.10663572290E+02  0.35055530146E+02  0.47000000000E+01 0. -1.
        -11    1    6    6    0    0  0.54313855230E+02  0.53252045736E+01  0.28167500724E+03  0.28691316173E+03  0.00000000000E+00 0.  1.
         12    1    6    6    0    0 -0.28398513858E+02 -0.10946618702E+02  0.17826092946E+03  0.18084043526E+03  0.00000000000E+00 0. -1.
         -5    1    3    3    0  503  0.25872010454E+01 -0.43698174424E+01  0.17871249983E+03  0.17884640480E+03  0.47000000000E+01 0.  1.
         11    1    4    4    0    0  0.29933291109E+01  0.20876364269E+02  0.45117604316E+02  0.49803421805E+02  0.00000000000E+00 0. -1.
        -12    1    4    4    0    0 -0.60721859004E+02  0.45722304639E+01  0.24522464801E+01  0.60943112532E+02  0.00000000000E+00 0.  1.
</event>
<event>
12    1  0.1030140E-001  0.1959902E+03  0.7818608E-02  0.1153325E+00
         21   -1    0    0  503  502  0.00000000000E+00  0.00000000000E+00  0.37644035379E+03  0.37644035379E+03  0.00000000000E+00 0.  1.
         21   -1    0    0  501  503 -0.00000000000E+00 -0.00000000000E+00 -0.10986258080E+03  0.10986258080E+03  0.00000000000E+00 0. -1.
          6    2    1    2  501    0 -0.18427827073E+02  0.90660126435E+02  0.67083829421E+02  0.20715309576E+03  0.17278113779E+03 0.  0.
         24    2    3    3    0    0 -0.39557676291E+02  0.12485564231E+03  0.41908404019E+02  0.15949078488E+03  0.80791428779E+02 0.  0.
         -6    2    1    2    0  502  0.18427827073E+02 -0.90660126435E+02  0.19949394357E+03  0.27914983884E+03  0.17195335317E+03 0.  0.
        -24    2    5    5    0    0  0.67533278385E+02 -0.17066387975E+02  0.89383865878E+02  0.13782148748E+03  0.78442855910E+02 0.  0.
          5    1    3    3  501    0  0.21129849219E+02 -0.34195515876E+02  0.25175425402E+02  0.47662310878E+02  0.47000000000E+01 0. -1.
        -13    1    4    4    0    0 -0.47020176953E+02  0.91175078524E+02 -0.32819443422E+01  0.10263801997E+03  0.00000000000E+00 0.  1.
         14    1    4    4    0    0  0.74625006618E+01  0.33680563787E+02  0.45190348361E+02  0.56852764912E+02  0.00000000000E+00 0. -1.
         -5    1    5    5    0  502 -0.49105451312E+02 -0.73593738461E+02  0.11011007769E+03  0.14132835136E+03  0.47000000000E+01 0.  1.
         13    1    6    6    0    0  0.13033579392E+02 -0.25427286798E+02 -0.45184210550E+01  0.28928139147E+02  0.00000000000E+00 0. -1.
        -14    1    6    6    0    0  0.54499698993E+02  0.83608988232E+01  0.93902286933E+02  0.10889334833E+03  0.00000000000E+00 0.  1.
</event>
<event>
12    1  0.1030140E-001  0.1854290E+03  0.7818608E-02  0.1162891E+00
         21   -1    0    0  501  502  0.00000000000E+00  0.00000000000E+00  0.16454207085E+04  0.16454207085E+04  0.00000000000E+00 0. -1.
         21   -1    0    0  502  503 -0.00000000000E+00 -0.00000000000E+00 -0.32833070028E+02  0.32833070028E+02  0.00000000000E+00 0. -1.
         -6    2    1    2    0  503 -0.56872177253E+02  0.38943600091E+02  0.29931303408E+03  0.35209684949E+03  0.17214194873E+03 0.  0.
        -24    2    3    3    0    0 -0.36236619869E+02 -0.40046215201E+02  0.12989200621E+03  0.16397244428E+03  0.84251036999E+02 0.  0.
          6    2    1    2  501    0  0.56872177253E+02 -0.38943600091E+02  0.13132746044E+04  0.13261569290E+04  0.17102913604E+03 0.  0.
         24    2    5    5    0    0 -0.11366244073E+02 -0.59061741422E+02  0.50625445313E+03  0.51599346634E+03  0.79612845618E+02 0.  0.
          5    1    5    5  501    0  0.68238421327E+02  0.20118141331E+02  0.80702015127E+03  0.81016346271E+03  0.47000000000E+01 0. -1.
        -13    1    6    6    0    0  0.23040259846E+02 -0.56645721613E+02  0.38878863516E+03  0.39356853810E+03  0.00000000000E+00 0.  1.
         14    1    6    6    0    0 -0.34406503920E+02 -0.24160198097E+01  0.11746581796E+03  0.12242492823E+03  0.00000000000E+00 0. -1.
         -5    1    3    3    0  503 -0.20635557384E+02  0.78989815292E+02  0.16942102787E+03  0.18812440521E+03  0.47000000000E+01 0.  1.
         11    1    4    4    0    0  0.20618172413E+02 -0.37937706467E+02  0.55438858692E+02  0.70269806167E+02  0.00000000000E+00 0. -1.
        -12    1    4    4    0    0 -0.56854792282E+02 -0.21085087333E+01  0.74453147518E+02  0.93702638116E+02  0.00000000000E+00 0.  1.
</event>
<event>
12    1  0.1030140E-001  0.1867796E+03  0.7818608E-02  0.1161757E+00
         21   -1    0    0  503  502  0.00000000000E+00  0.00000000000E+00  0.12478035423E+03  0.12478035423E+03  0.00000000000E+00 0. -1.
         21   -1    0    0  501  503 -0.00000000000E+00 -0.00000000000E+00 -0.37150749421E+03  0.37150749421E+03  0.00000000000E+00 0. -1.
          6    2    1    2  501    0  0.37833398039E+02  0.63768593135E+02 -0.24795529668E+03  0.30950417882E+03  0.16974453769E+03 0.  0.
         24    2    3    3    0    0 -0.18031649306E+02  0.77324337959E+02 -0.99254946490E+02  0.15000952098E+03  0.79668804203E+02 0.  0.
         -6    2    1    2    0  502 -0.37833398039E+02 -0.63768593135E+02  0.12281567059E+01  0.18678366963E+03  0.17143171058E+03 0.  0.
        -24    2    5    5    0    0  0.13310686183E+01 -0.90534231180E+02 -0.36598720424E+02  0.12592960270E+03  0.79502073806E+02 0.  0.
          5    1    3    3  501    0  0.55865047345E+02 -0.13555744824E+02 -0.14870035019E+03  0.15949465784E+03  0.47000000000E+01 0. -1.
        -11    1    4    4    0    0  0.44304802106E+01  0.48281077118E+02 -0.48617538274E+01  0.48727078846E+02  0.00000000000E+00 0.  1.
         12    1    4    4    0    0 -0.22462129517E+02  0.29043260841E+02 -0.94393192663E+02  0.10128244213E+03  0.00000000000E+00 0. -1.
         -5    1    5    5    0  502 -0.39164466657E+02  0.26765638045E+02  0.37826877130E+02  0.60854066930E+02  0.47000000000E+01 0.  1.
         13    1    6    6    0    0 -0.17338275629E+02 -0.47288274958E+02  0.18304165920E+02  0.53589544132E+02  0.00000000000E+00 0. -1.
        -14    1    6    6    0    0  0.18669344247E+02 -0.43245956222E+02 -0.54902886343E+02  0.72340058564E+02  0.00000000000E+00 0.  1.
</event>
<event>
12    1  0.1030140E-001  0.2053458E+03  0.7818608E-02  0.1145712E+00
         21   -1    0    0  501  502  0.00000000000E+00  0.00000000000E+00  0.29430049047E+03  0.29430049047E+03  0.00000000000E+00 0. -1.
         21   -1    0    0  502  503 -0.00000000000E+00 -0.00000000000E+00 -0.14657381004E+03  0.14657381004E+03  0.00000000000E+00 0. -1.
         -6    2    1    2    0  503  0.10962849732E+03 -0.62364623253E+01  0.34135498639E+02  0.20620465512E+03  0.17116607911E+03 0.  0.
        -24    2    3    3    0    0  0.83538609437E+02  0.29292548471E+02 -0.35472143521E+02  0.12368007269E+03  0.78751093655E+02 0.  0.
          6    2    1    2  501    0 -0.10962849732E+03  0.62364623253E+01  0.11359118179E+03  0.23466964540E+03  0.17352113705E+03 0.  0.
         24    2    5    5    0    0 -0.19777361169E+02  0.42630500086E+02  0.12889118396E+02  0.94809900570E+02  0.81328250446E+02 0.  0.
          5    1    5    5  501    0 -0.89851136146E+02 -0.36394037760E+02  0.10070206340E+03  0.13985974483E+03  0.47000000000E+01 0. -1.
        -13    1    6    6    0    0 -0.39253114829E+02  0.32883673783E+02  0.36351262770E+02  0.62797749404E+02  0.00000000000E+00 0.  1.
         14    1    6    6    0    0  0.19475753660E+02  0.97468263032E+01 -0.23462144374E+02  0.32012151165E+02  0.00000000000E+00 0. -1.
         -5    1    3    3    0  503  0.26089887879E+02 -0.35529010797E+02  0.69607642160E+02  0.82524582428E+02  0.47000000000E+01 0.  1.
         11    1    4    4    0    0 -0.20988734457E+00  0.15432059635E+02  0.17723770521E+02  0.23501586303E+02  0.00000000000E+00 0. -1.
        -12    1    4    4    0    0  0.83748496781E+02  0.13860488836E+02 -0.53195914042E+02  0.10017848639E+03  0.00000000000E+00 0.  1.
</event>
<event>
12    1  0.1030140E-001  0.1823469E+03  0.7818608E-02  0.1166027E+00
         21   -1    0    0  503  502  0.00000000000E+00  0.00000000000E+00  0.19355037581E+03  0.19355037581E+03  0.00000000000E+00 0. -1.
         21   -1    0    0  501  503 -0.00000000000E+00 -0.00000000000E+00 -0.18593103372E+03  0.18593103372E+03  0.00000000000E+00 0. -1.
          6    2    1    2  501    0 -0.50069708443E+02  0.30229374091E+02 -0.51883538317E+02  0.18767164140E+03  0.17061052921E+03 0.  0.
         24    2    3    3    0    0 -0.28100024267E+02 -0.48395809731E+02 -0.26494111404E+02  0.10204863309E+03  0.81118554057E+02 0.  0.
         -6    2    1    2    0  502  0.50069708443E+02 -0.30229374091E+02  0.59502880406E+02  0.19180976813E+03  0.17271248830E+03 0.  0.
        -24    2    5    5    0    0  0.56829241347E+02 -0.76300142143E+02  0.14589127615E+02  0.12694419835E+03  0.82769030963E+02 0.  0.
          5    1    3    3  501    0 -0.21969684176E+02  0.78625183822E+02 -0.25389426913E+02  0.85623008315E+02  0.47000000000E+01 0. -1.
        -11    1    4    4    0    0 -0.23336160022E+02 -0.39076450722E+02 -0.55170728123E+02  0.71521707245E+02  0.00000000000E+00 0.  1.
         12    1    4    4    0    0 -0.47638642452E+01 -0.93193590088E+01  0.28676616719E+02  0.30526925841E+02  0.00000000000E+00 0. -1.
         -5    1    5    5    0  502 -0.67595329038E+01  0.46070768052E+02  0.44913752791E+02  0.64865569787E+02  0.47000000000E+01 0.  1.
         11    1    6    6    0    0 -0.60391639507E+01 -0.57528685636E+02  0.19767474744E+02  0.61129160226E+02  0.00000000000E+00 0. -1.
        -12    1    6    6    0    0  0.62868405297E+02 -0.18771456508E+02 -0.51783471287E+01  0.65815038122E+02  0.00000000000E+00 0.  1.
</event>
<event>
12    1  0.1030140E-001  0.1872905E+03  0.7818608E-02  0.1161153E+00
         21   -1    0    0  501  502  0.00000000000E+00  0.00000000000E+00  0.38475949190E+03  0.38475949190E+03  0.00000000000E+00 0.  1.
         21   -1    0    0  502  503 -0.00000000000E+00 -0.00000000000E+00 -0.13158798869E+03  0.13158798869E+03  0.00000000000E+00 0.  1.
         -6    2    1    2    0  503 -0.56734378778E+02 -0.43013845589E+02 -0.17110416954E+02  0.18807050128E+03  0.17323038543E+03 0.  0.
        -24    2    3    3    0    0 -0.30638079549E+02 -0.67999377298E+02 -0.70354954231E+02  0.12355411283E+03  0.68943396941E+02 0.  0.
          6    2    1    2  501    0  0.56734378778E+02  0.43013845589E+02  0.27028192017E+03  0.32827697931E+03  0.17217571875E+03 0.  0.
         24    2    5    5    0    0 -0.24265285039E+02  0.31575362875E+02  0.20364865537E+03  0.22266511254E+03  0.80753760958E+02 0.  0.
          5    1    5    5  501    0  0.80999663817E+02  0.11438482714E+02  0.66633264800E+02  0.10561186677E+03  0.47000000000E+01 0. -1.
        -11    1    6    6    0    0 -0.22415807175E+02  0.58110092231E+02  0.12533485404E+03  0.13995741091E+03  0.00000000000E+00 0.  1.
         12    1    6    6    0    0 -0.18494778639E+01 -0.26534729356E+02  0.78313801330E+02  0.82707701632E+02  0.00000000000E+00 0. -1.
         -5    1    3    3    0  503 -0.26096299228E+02  0.24985531709E+02  0.53244537276E+02  0.64516388445E+02  0.47000000000E+01 0.  1.
         13    1    4    4    0    0 -0.28202870644E+01 -0.17162222798E+02  0.13224975263E+02  0.21849390865E+02  0.00000000000E+00 0. -1.
        -14    1    4    4    0    0 -0.27817792485E+02 -0.50837154500E+02 -0.83579929493E+02  0.10170472197E+03  0.00000000000E+00 0.  1.
</event>
<event>
12    1  0.1030140E-001  0.1874044E+03  0.7818608E-02  0.1161049E+00
         21   -1    0    0  501  502  0.00000000000E+00  0.00000000000E+00  0.37472185948E+03  0.37472185948E+03  0.00000000000E+00 0. -1.
         21   -1    0    0  502  503 -0.00000000000E+00 -0.00000000000E+00 -0.12395512315E+03  0.12395512315E+03  0.00000000000E+00 0. -1.
         -6    2    1    2    0  503  0.36097025508E+02 -0.62897374358E+02  0.10072582117E+01  0.18642678090E+03  0.17174066238E+03 0.  0.
        -24    2    3    3    0    0 -0.25084305323E+02 -0.72651022932E+02 -0.27304377520E+02  0.11814847087E+03  0.85475953518E+02 0.  0.
          6    2    1    2  501    0 -0.36097025508E+02  0.62897374358E+02  0.24975947812E+03  0.31225020174E+03  0.17280427258E+03 0.  0.
         24    2    5    5    0    0  0.39592172087E+02  0.67502889832E+02  0.14825445373E+03  0.18546130087E+03  0.79324213489E+02 0.  0.
          5    1    5    5  501    0 -0.75689197595E+02 -0.46055154746E+01  0.10150502439E+03  0.12678890086E+03  0.47000000000E+01 0. -1.
        -13    1    6    6    0    0  0.19444633706E+00  0.34972260480E+02  0.75647492175E+01  0.35781590842E+02  0.00000000000E+00 0.  1.
         14    1    6    6    0    0  0.39397725750E+02  0.32530629353E+02  0.14068970451E+03  0.14967971003E+03  0.00000000000E+00 0. -1.
         -5    1    3    3    0  503  0.61181330831E+02  0.97536485740E+01  0.28311635731E+02  0.68278310030E+02  0.47000000000E+01 0.  1.
         13    1    4    4    0    0 -0.15306976590E+02 -0.90198514311E+02 -0.10748068153E+02  0.92117297427E+02  0.00000000000E+00 0. -1.
        -14    1    4    4    0    0 -0.97773287325E+01  0.17547491379E+02 -0.16556309366E+02  0.26031173440E+02  0.00000000000E+00 0.  1.
</event>
<event>
12    1  0.1030140E-001  0.2135172E+03  0.7818608E-02  0.1140367E+00
         21   -1    0    0  501  502  0.00000000000E+00  0.00000000000E+00  0.49762268617E+03  0.49762268617E+03  0.00000000000E+00 0.  1.
         21   -1    0    0  502  503 -0.00000000000E+00 -0.00000000000E+00 -0.89453359948E+02  0.89453359948E+02  0.00000000000E+00 0.  1.
         -6    2    1    2    0  503 -0.41080458305E+02  0.11819249084E+03  0.16652752577E+03  0.26461620561E+03  0.16319696838E+03 0.  0.
        -24    2    3    3    0    0 -0.36626854903E+02  0.11200711403E+03  0.19100725045E+03  0.23855012824E+03  0.80841040720E+02 0.  0.
          6    2    1    2  501    0  0.41080458305E+02 -0.11819249084E+03  0.24164180046E+03  0.32245984051E+03  0.17301017331E+03 0.  0.
         24    2    5    5    0    0  0.61519039969E+01 -0.95496393786E+02  0.24993570103E+03  0.27972817176E+03  0.81379286528E+02 0.  0.
          5    1    5    5  501    0  0.34928554308E+02 -0.22696097052E+02 -0.82939005775E+01  0.42731668751E+02  0.47000000000E+01 0. -1.
        -11    1    6    6    0    0  0.36724463445E+02 -0.42669534950E+02  0.17048352696E+03  0.17953832012E+03  0.00000000000E+00 0.  1.
         12    1    6    6    0    0 -0.30572559448E+02 -0.52826858836E+02  0.79452174073E+02  0.10018985163E+03  0.00000000000E+00 0. -1.
         -5    1    3    3    0  503 -0.44536034018E+01  0.61853768039E+01 -0.24479724676E+02  0.26066077374E+02  0.47000000000E+01 0.  1.
         11    1    4    4    0    0 -0.57259711025E+02  0.66340117360E+02  0.15032517212E+03  0.17400385930E+03  0.00000000000E+00 0. -1.
        -12    1    4    4    0    0  0.20632856122E+02  0.45666996674E+02  0.40682078327E+02  0.64546268939E+02  0.00000000000E+00 0.  1.
</event>
<event>
12    1  0.1030140E-001  0.1817985E+03  0.7818608E-02  0.1166195E+00
         21   -1    0    0  501  502  0.00000000000E+00  0.00000000000E+00  0.27084914831E+04  0.27084914831E+04  0.00000000000E+00 0. -1.
         21   -1    0    0  502  503 -0.00000000000E+00 -0.00000000000E+00 -0.17041345799E+02  0.17041345799E+02  0.00000000000E+00 0. -1.
         -6    2    1    2    0  503 -0.47407259899E+02 -0.34523806344E+02  0.61566539926E+03  0.64180228726E+03  0.17154285349E+03 0.  0.
        -24    2    3    3    0    0  0.11299563295E+02  0.12788895096E+02  0.47708954254E+03  0.48397218597E+03  0.79519866828E+02 0.  0.
          6    2    1    2  501    0  0.47407259899E+02  0.34523806344E+02  0.20757847380E+04  0.20837305416E+04  0.17207948744E+03 0.  0.
         24    2    5    5    0    0  0.59692921214E+02  0.79392998499E+02  0.17719412100E+04  0.17763103709E+04  0.75075887187E+02 0.  0.
          5    1    5    5  501    0 -0.12285661315E+02 -0.44869192154E+02  0.30384352801E+03  0.30742017076E+03  0.47000000000E+01 0. -1.
        -13    1    6    6    0    0  0.15680827130E+02  0.12149570798E+02  0.78648237534E+02  0.81111316579E+02  0.00000000000E+00 0.  1.
         14    1    6    6    0    0  0.44012094084E+02  0.67243427701E+02  0.16932929725E+04  0.16951990543E+04  0.00000000000E+00 0. -1.
         -5    1    3    3    0  503 -0.58706823193E+02 -0.47312701440E+02  0.13857585672E+03  0.15783010129E+03  0.47000000000E+01 0.  1.
         11    1    4    4    0    0 -0.22837667425E+02  0.13837352691E+02  0.62332007089E+02  0.67810843459E+02  0.00000000000E+00 0. -1.
        -12    1    4    4    0    0  0.34137230720E+02 -0.10484575951E+01  0.41475753545E+03  0.41616134251E+03  0.00000000000E+00 0.  1.
</event>
<event>
12    1  0.1030140E-001  0.2580519E+03  0.7818608E-02  0.1108432E+00
         21   -1    0    0  503  502  0.00000000000E+00  0.00000000000E+00  0.66066814814E+03  0.66066814814E+03  0.00000000000E+00 0.  1.
         21   -1    0    0  501  503 -0.00000000000E+00 -0.00000000000E+00 -0.10974686963E+03  0.10974686963E+03  0.00000000000E+00 0. -1.
          6    2    1    2  501    0  0.95351771897E+02  0.16677993682E+03  0.16403711661E+03  0.30577600677E+03  0.17228837152E+03 0.  0.
         24    2    3    3    0    0 -0.17149892086E+02  0.59684540709E+02  0.24857446596E+02  0.97163641813E+02  0.70473522977E+02 0.  0.
         -6    2    1    2    0  502 -0.95351771897E+02 -0.16677993682E+03  0.38688416190E+03  0.46463901100E+03  0.17117987055E+03 0.  0.
        -24    2    5    5    0    0 -0.50064658265E+02 -0.33704592529E+02  0.24157176607E+03  0.26240708399E+03  0.82813585839E+02 0.  0.
          5    1    3    3  501    0  0.11250166398E+03  0.10709539612E+03  0.13917967002E+03  0.20861236496E+03  0.47000000000E+01 0. -1.
        -13    1    4    4    0    0  0.33376761207E+01  0.63159153610E+02  0.36822002611E+02  0.73185235142E+02  0.00000000000E+00 0.  1.
         14    1    4    4    0    0 -0.20487568206E+02 -0.34746129002E+01 -0.11964556015E+02  0.23978406671E+02  0.00000000000E+00 0. -1.
         -5    1    5    5    0  502 -0.45287113632E+02 -0.13307534430E+03  0.14531239583E+03  0.20223192701E+03  0.47000000000E+01 0.  1.
         11    1    6    6    0    0 -0.18381947445E+02  0.25525023985E+02  0.46891174700E+02  0.56464193132E+02  0.00000000000E+00 0. -1.
        -12    1    6    6    0    0 -0.31682710820E+02 -0.59229616514E+02  0.19468059137E+03  0.20594289086E+03  0.00000000000E+00 0.  1.
</event>
<event>
12    1  0.1030140E-001  0.1731641E+03  0.7818608E-02  0.1174600E+00
         21   -1    0    0  501  502  0.00000000000E+00  0.00000000000E+00  0.12411551216E+03  0.12411551216E+03  0.00000000000E+00 0. -1.
         21   -1    0    0  502  503 -0.00000000000E+00 -0.00000000000E+00 -0.50874337665E+03  0.50874337665E+03  0.00000000000E+00 0. -1.
         -6    2    1    2    0  503  0.41475383646E+01 -0.16821288166E+02 -0.42165480437E+03  0.45582737126E+03  0.17229527137E+03 0.  0.
        -24    2    3    3    0    0 -0.28462779465E+02 -0.10107241596E+02 -0.95091850702E+02  0.12753791978E+03  0.79442902540E+02 0.  0.
          6    2    1    2  501    0 -0.41475383646E+01  0.16821288166E+02  0.37026939871E+02  0.17703151755E+03  0.17224693355E+03 0.  0.
         24    2    5    5    0    0  0.58145147388E+02 -0.34434741361E+01  0.96391872290E+01  0.10587522279E+03  0.87885910081E+02 0.  0.
          5    1    5    5  501    0 -0.62292685753E+02  0.20264762302E+02  0.27387752642E+02  0.71156294762E+02  0.47000000000E+01 0. -1.
        -11    1    6    6    0    0 -0.15423485745E+02 -0.21968960900E+02 -0.79551318462E+01  0.27996486891E+02  0.00000000000E+00 0.  1.
         12    1    6    6    0    0  0.73568633133E+02  0.18525486764E+02  0.17594319075E+02  0.77878735895E+02  0.00000000000E+00 0. -1.
         -5    1    3    3    0  503  0.32610317830E+02 -0.67140465704E+01 -0.32656295367E+03  0.32828945149E+03  0.47000000000E+01 0.  1.
         11    1    4    4    0    0 -0.29845728866E+02  0.30410332337E+02 -0.61872751871E+02  0.75125183983E+02  0.00000000000E+00 0. -1.
        -12    1    4    4    0    0  0.13829494008E+01 -0.40517573933E+02 -0.33219098831E+02  0.52412735796E+02  0.00000000000E+00 0.  1.
</event>
<event>
12    1  0.1030140E-001  0.2620026E+03  0.7818608E-02  0.1106023E+00
         21   -1    0    0  501  502  0.00000000000E+00  0.00000000000E+00  0.38787873309E+02  0.38787873309E+02  0.00000000000E+00 0. -1.
         21   -1    0    0  502  503 -0.00000000000E+00 -0.00000000000E+00 -0.18833511209E+04  0.18833511209E+04  0.00000000000E+00 0.  1.
         -6    2    1    2    0  503  0.19307951095E+03 -0.40369935182E+02 -0.11610375759E+04  0.11901193885E+04  0.17165802316E+03 0.  0.
        -24    2    3    3    0    0  0.15617883384E+03  0.24624932140E+02 -0.94905512992E+03  0.96529803682E+03  0.78079733831E+02 0.  0.
          6    2    1    2  501    0 -0.19307951095E+03  0.40369935182E+02 -0.68352567171E+03  0.73201960577E+03  0.17244109178E+03 0.  0.
         24    2    5    5    0    0 -0.92282198963E+02  0.86047376183E+02 -0.40349223556E+03  0.43087621454E+03  0.83235646852E+02 0.  0.
          5    1    5    5  501    0 -0.10079731198E+03 -0.45677441002E+02 -0.28003343615E+03  0.30114339123E+03  0.47000000000E+01 0. -1.
        -13    1    6    6    0    0  0.33201123748E+01  0.10552342673E+02 -0.14168529488E+03  0.14211649401E+03  0.00000000000E+00 0.  1.
         14    1    6    6    0    0 -0.95602311338E+02  0.75495033510E+02 -0.26180694068E+03  0.28875972054E+03  0.00000000000E+00 0. -1.
         -5    1    3    3    0  503  0.36900677105E+02 -0.64994867321E+02 -0.21198244600E+03  0.22482135166E+03  0.47000000000E+01 0.  1.
         11    1    4    4    0    0  0.56368227119E+02  0.34397754887E+02 -0.23030530591E+03  0.23958530109E+03  0.00000000000E+00 0. -1.
        -12    1    4    4    0    0  0.99810606723E+02 -0.97728227471E+01 -0.71874982401E+03  0.72571273573E+03  0.00000000000E+00 0.  1.
</event>
<event>
12    1  0.1030140E-001  0.2432998E+03  0.7818608E-02  0.1117708E+00
         21   -1    0    0  503  502  0.00000000000E+00  0.00000000000E+00  0.27988254001E+03  0.27988254001E+03  0.00000000000E+00 0.  1.
         21   -1    0    0  501  503 -0.00000000000E+00 -0.00000000000E+00 -0.23714282384E+03  0.23714282384E+03  0.00000000000E+00 0.  1.
          6    2    1    2  501    0 -0.84069940336E+02  0.14855312641E+03 -0.64444386882E+02  0.25169007291E+03  0.17337539493E+03 0.  0.
         24    2    3    3    0    0  0.15971873270E+02  0.96791655068E+02 -0.11246174369E+02  0.12703152246E+03  0.79917495175E+02 0.  0.
         -6    2    1    2    0  502  0.84069940336E+02 -0.14855312641E+03  0.10718410305E+03  0.26533529093E+03  0.17256476591E+03 0.  0.
        -24    2    5    5    0    0  0.98725034364E+02 -0.14924014486E+03  0.44727006124E+02  0.20100627157E+03  0.79898453590E+02 0.  0.
          5    1    3    3  501    0 -0.10004181361E+03  0.51761471345E+02 -0.53198212513E+02  0.12465855045E+03  0.47000000000E+01 0. -1.
        -13    1    4    4    0    0  0.29519677735E+02  0.40159744919E+02 -0.38267017158E+02  0.62837736176E+02  0.00000000000E+00 0.  1.
         14    1    4    4    0    0 -0.13547804466E+02  0.56631910149E+02  0.27020842789E+02  0.64193786288E+02  0.00000000000E+00 0. -1.
         -5    1    5    5    0  502 -0.14655094027E+02  0.68701844936E+00  0.62457096927E+02  0.64329019360E+02  0.47000000000E+01 0.  1.
         11    1    6    6    0    0  0.70487782593E+00  0.90589939724E+01  0.58334911832E+01  0.10797770322E+02  0.00000000000E+00 0. -1.
        -12    1    6    6    0    0  0.98020156538E+02 -0.15829913883E+03  0.38893514941E+02  0.19020850125E+03  0.00000000000E+00 0.  1.
</event>
<event>
12    1  0.1030140E-001  0.2708265E+03  0.7818608E-02  0.1100809E+00
         21   -1    0    0  501  502  0.00000000000E+00  0.00000000000E+00  0.18134469639E+03  0.18134469639E+03  0.00000000000E+00 0. -1.
         21   -1    0    0  502  503 -0.00000000000E+00 -0.00000000000E+00 -0.61015904571E+03  0.61015904571E+03  0.00000000000E+00 0. -1.
         -6    2    1    2    0  503  0.14282653727E+03  0.15354024899E+03 -0.44420178937E+03  0.52025208132E+03  0.17138544464E+03 0.  0.
        -24    2    3    3    0    0  0.14091503112E+03  0.14666035169E+03 -0.27698844278E+03  0.35282036354E+03  0.79958156196E+02 0.  0.
          6    2    1    2  501    0 -0.14282653727E+03 -0.15354024899E+03  0.15387440052E+02  0.27125166078E+03  0.17136703987E+03 0.  0.
         24    2    5    5    0    0 -0.55468404435E+02 -0.38201591112E+02 -0.44765561404E+02  0.11448775244E+03  0.81039401013E+02 0.  0.
          5    1    5    5  501    0 -0.87358132837E+02 -0.11533865788E+03  0.60153001456E+02  0.15676390834E+03  0.47000000000E+01 0. -1.
        -11    1    6    6    0    0 -0.50018369267E+02 -0.51872553940E+02 -0.59657826050E+02  0.93550282337E+02  0.00000000000E+00 0.  1.
         12    1    6    6    0    0 -0.54500351675E+01  0.13670962827E+02  0.14892264646E+02  0.20937470101E+02  0.00000000000E+00 0. -1.
         -5    1    3    3    0  503  0.19115061533E+01  0.68798973040E+01 -0.16721334659E+03  0.16743171778E+03  0.47000000000E+01 0.  1.
         11    1    4    4    0    0  0.65658971371E+02  0.10399928298E+03 -0.21017080462E+03  0.24351328197E+03  0.00000000000E+00 0. -1.
        -12    1    4    4    0    0  0.75256059748E+02  0.42661068709E+02 -0.66817638166E+02  0.10930708157E+03  0.00000000000E+00 0.  1.
</event>
<event>
12    1  0.1030140E-001  0.2685425E+03  0.7818608E-02  0.1103293E+00
         21   -1    0    0  503  502  0.00000000000E+00  0.00000000000E+00  0.14622159758E+04  0.14622159758E+04  0.00000000000E+00 0.  1.
         21   -1    0    0  501  503 -0.00000000000E+00 -0.00000000000E+00 -0.60076301482E+02  0.60076301482E+02  0.00000000000E+00 0. -1.
          6    2    1    2  501    0 -0.18357779607E+03 -0.78989680272E+02  0.34932734065E+03  0.43577081980E+03  0.16711205722E+03 0.  0.
         24    2    3    3    0    0 -0.19593370848E+03 -0.98700325743E+02  0.28790314969E+03  0.36992099557E+03  0.76299062522E+02 0.  0.
         -6    2    1    2    0  502  0.18357779607E+03  0.78989680272E+02  0.10528123337E+04  0.10865214575E+04  0.17937360689E+03 0.  0.
        -24    2    5    5    0    0  0.14933321297E+03 -0.13163704191E+02  0.67102437594E+03  0.69225115375E+03  0.80400591782E+02 0.  0.
          5    1    3    3  501    0  0.12355912411E+02  0.19710645471E+02  0.61424190962E+02  0.65849824235E+02  0.47000000000E+01 0. -1.
        -13    1    4    4    0    0 -0.12790851398E+02  0.12498537973E+02  0.18930018674E+02  0.26041600142E+02  0.00000000000E+00 0.  1.
         14    1    4    4    0    0 -0.18314285708E+03 -0.11119886372E+03  0.26897313101E+03  0.34387939542E+03  0.00000000000E+00 0. -1.
         -5    1    5    5    0  502  0.34244583098E+02  0.92153384463E+02  0.38178795777E+03  0.39427030377E+03  0.47000000000E+01 0.  1.
         11    1    6    6    0    0  0.15665383301E+02 -0.22020732167E+01  0.12371861654E+02  0.20082736895E+02  0.00000000000E+00 0. -1.
        -12    1    6    6    0    0  0.13366782967E+03 -0.10961630974E+02  0.65865251429E+03  0.67216841685E+03  0.00000000000E+00 0.  1.
</event>
<event>
12    1  0.1030140E-001  0.1936703E+03  0.7818608E-02  0.1155269E+00
         21   -1    0    0  501  502  0.00000000000E+00  0.00000000000E+00  0.10845558971E+04  0.10845558971E+04  0.00000000000E+00 0. -1.
         21   -1    0    0  502  503 -0.00000000000E+00 -0.00000000000E+00 -0.34545718853E+02  0.34545718853E+02  0.00000000000E+00 0. -1.
         -6    2    1    2    0  503  0.91413356016E+02  0.81999383932E+00  0.54036083513E+03  0.57401918530E+03  0.17073698748E+03 0.  0.
        -24    2    3    3    0    0  0.99579743292E+02  0.44271937929E+02  0.29441301589E+03  0.32408483169E+03  0.80472507349E+02 0.  0.
          6    2    1    2  501    0 -0.91413356016E+02 -0.81999383932E+00  0.50964934316E+03  0.54508243070E+03  0.17033886588E+03 0.  0.
         24    2    5    5    0    0 -0.21589228369E+02 -0.56918058809E+02  0.31996423879E+03  0.33526124370E+03  0.79480986549E+02 0.  0.
          5    1    5    5  501    0 -0.69824127647E+02  0.56098064970E+02  0.18968510437E+03  0.20982118701E+03  0.47000000000E+01 0. -1.
        -13    1    6    6    0    0  0.29156157206E+02 -0.18436019254E+02  0.82883244017E+02  0.89775277487E+02  0.00000000000E+00 0.  1.
         14    1    6    6    0    0 -0.50745385575E+02 -0.38482039555E+02  0.23708099477E+03  0.24548596621E+03  0.00000000000E+00 0. -1.
         -5    1    3    3    0  503 -0.81663872755E+01 -0.43451944089E+02  0.24594781924E+03  0.24993435361E+03  0.47000000000E+01 0.  1.
         13    1    4    4    0    0  0.46662880500E+02  0.25471898925E+02  0.24025814347E+03  0.24606953805E+03  0.00000000000E+00 0. -1.
        -14    1    4    4    0    0  0.52916862792E+02  0.18800039004E+02  0.54154872426E+02  0.78015293640E+02  0.00000000000E+00 0.  1.
</event>
<event>
12    1  0.1030140E-001  0.2065166E+03  0.7818608E-02  0.1144790E+00
         21   -1    0    0  501  502  0.00000000000E+00  0.00000000000E+00  0.12637199148E+03  0.12637199148E+03  0.00000000000E+00 0. -1.
         21   -1    0    0  502  503 -0.00000000000E+00 -0.00000000000E+00 -0.43946244699E+03  0.43946244699E+03  0.00000000000E+00 0. -1.
         -6    2    1    2    0  503 -0.55340258927E+02 -0.99473436317E+02 -0.29575913904E+03  0.36072506580E+03  0.17231249514E+03 0.  0.
        -24    2    3    3    0    0 -0.62368271424E+02 -0.68294474808E+02 -0.89061590038E+02  0.15151826055E+03  0.80447994943E+02 0.  0.
          6    2    1    2  501    0  0.55340258927E+02  0.99473436317E+02 -0.17331316474E+02  0.20510937267E+03  0.16974089500E+03 0.  0.
         24    2    5    5    0    0  0.31583474965E+02  0.51344400970E+01 -0.44387751624E+02  0.10402341086E+03  0.88468746723E+02 0.  0.
          5    1    5    5  501    0  0.23756783962E+02  0.94338996220E+02  0.27056435150E+02  0.10108596181E+03  0.47000000000E+01 0. -1.
        -13    1    6    6    0    0 -0.21315788780E+02 -0.93000342692E+01  0.11312794998E+02  0.25861802323E+02  0.00000000000E+00 0.  1.
         14    1    6    6    0    0  0.52899263745E+02  0.14434474366E+02 -0.55700546622E+02  0.78161608537E+02  0.00000000000E+00 0. -1.
         -5    1    3    3    0  503  0.70280124972E+01 -0.31178961509E+02 -0.20669754900E+03  0.20920680525E+03  0.47000000000E+01 0.  1.
         13    1    4    4    0    0 -0.26979250583E+02 -0.60849832686E+02 -0.93829678013E+02  0.11504169060E+03  0.00000000000E+00 0. -1.
        -14    1    4    4    0    0 -0.35389020841E+02 -0.74446421214E+01  0.47680879755E+01  0.36476569950E+02  0.00000000000E+00 0.  1.
</event>
<event>
12    1  0.1030140E-001  0.1851910E+03  0.7818608E-02  0.1162887E+00
         21   -1    0    0  501  502  0.00000000000E+00  0.00000000000E+00  0.72461298393E+02  0.72461298393E+02  0.00000000000E+00 0. -1.
         21   -1    0    0  502  503 -0.00000000000E+00 -0.00000000000E+00 -0.62167898014E+03  0.62167898014E+03  0.00000000000E+00 0. -1.
         -6    2    1    2    0  503  0.51734166398E+02 -0.48403397357E+02 -0.44430257689E+03  0.48135275805E+03  0.17110343362E+03 0.  0.
        -24    2    3    3    0    0  0.57191660544E+02 -0.82983229175E+02 -0.22238086693E+03  0.25663763981E+03  0.79072914647E+02 0.  0.
          6    2    1    2  501    0 -0.51734166398E+02  0.48403397357E+02 -0.10491510486E+03  0.21278752049E+03  0.17103226830E+03 0.  0.
         24    2    5    5    0    0 -0.43627379681E+02  0.29271149525E+02 -0.14158592194E+03  0.17037759566E+03  0.78878408694E+02 0.  0.
          5    1    5    5  501    0 -0.81067867164E+01  0.19132247832E+02  0.36670817088E+02  0.42409924828E+02  0.47000000000E+01 0. -1.
        -13    1    6    6    0    0 -0.27498393678E+02  0.53028244068E+02 -0.63504760485E+02  0.87183776748E+02  0.00000000000E+00 0.  1.
         14    1    6    6    0    0 -0.16128986003E+02 -0.23757094542E+02 -0.78081161459E+02  0.83193818913E+02  0.00000000000E+00 0. -1.
         -5    1    3    3    0  503 -0.54574941460E+01  0.34579831817E+02 -0.22192170997E+03  0.22471511824E+03  0.47000000000E+01 0.  1.
         11    1    4    4    0    0 -0.14957666030E+02 -0.11964603109E+02 -0.77884961677E+02  0.80205677829E+02  0.00000000000E+00 0. -1.
        -12    1    4    4    0    0  0.72149326574E+02 -0.71018626066E+02 -0.14449590525E+03  0.17643196198E+03  0.00000000000E+00 0.  1.
</event>
<event>
12    1  0.1030140E-001  0.1812020E+03  0.7818608E-02  0.1166918E+00
         21   -1    0    0  503  502  0.00000000000E+00  0.00000000000E+00  0.51753923627E+02  0.51753923627E+02  0.00000000000E+00 0.  1.
         21   -1    0    0  501  503 -0.00000000000E+00 -0.00000000000E+00 -0.78521155436E+03  0.78521155436E+03  0.00000000000E+00 0.  1.
          6    2    1    2  501    0  0.31958674806E+02  0.44423871811E+02 -0.18187366010E+03  0.25673370050E+03  0.17274063637E+03 0.  0.
         24    2    3    3    0    0 -0.32299213473E+02 -0.13402258172E+01 -0.22172645129E+02  0.78548591641E+02  0.68067757864E+02 0.  0.
         -6    2    1    2    0  502 -0.31958674806E+02 -0.44423871811E+02 -0.55158397064E+03  0.58023177749E+03  0.17154941463E+03 0.  0.
        -24    2    5    5    0    0 -0.34355699547E+01 -0.75660727486E+02 -0.27770811541E+03  0.30306867976E+03  0.94828679548E+02 0.  0.
          5    1    3    3  501    0  0.64257888279E+02  0.45764097628E+02 -0.15970101497E+03  0.17818510886E+03  0.47000000000E+01 0. -1.
        -11    1    4    4    0    0 -0.46061520272E+01  0.29402411515E+02  0.33257850897E+01  0.29946273322E+02  0.00000000000E+00 0.  1.
         12    1    4    4    0    0 -0.27693061446E+02 -0.30742637332E+02 -0.25498430219E+02  0.48602318319E+02  0.00000000000E+00 0. -1.
         -5    1    5    5    0  502 -0.28523104851E+02  0.31236855676E+02 -0.27387585523E+03  0.27716309772E+03  0.47000000000E+01 0.  1.
         11    1    6    6    0    0 -0.16488554724E+02 -0.57882240639E+02 -0.62622105198E+02  0.86854788456E+02  0.00000000000E+00 0. -1.
        -12    1    6    6    0    0  0.13052984769E+02 -0.17778486847E+02 -0.21508601021E+03  0.21621389131E+03  0.00000000000E+00 0.  1.
</event>
<event>
12    1  0.1030140E-001  0.2137135E+03  0.7818608E-02  0.1138732E+00
         21   -1    0    0  501  502  0.00000000000E+00  0.00000000000E+00  0.12346168309E+04  0.12346168309E+04  0.00000000000E+00 0.  1.
         21   -1    0    0  502  503 -0.00000000000E+00 -0.00000000000E+00 -0.40716109211E+02  0.40716109211E+02  0.00000000000E+00 0. -1.
         -6    2    1    2    0  503 -0.49087907699E+02 -0.11527552437E+03  0.79096685978E+03  0.81923078875E+03  0.17266280078E+03 0.  0.
        -24    2    3    3    0    0 -0.36364162459E+02 -0.14463631111E+03  0.53938028596E+03  0.56557384795E+03  0.81857619071E+02 0.  0.
          6    2    1    2  501    0  0.49087907699E+02  0.11527552437E+03  0.40293386188E+03  0.45610215133E+03  0.17313407000E+03 0.  0.
         24    2    5    5    0    0 -0.27667199025E+02  0.28512439090E+02  0.11382291117E+03  0.14461152355E+03  0.79864914392E+02 0.  0.
          5    1    5    5  501    0  0.76755106724E+02  0.86763085275E+02  0.28911095070E+03  0.31149062777E+03  0.47000000000E+01 0. -1.
        -13    1    6    6    0    0  0.16841966995E+02 -0.16943953874E+02  0.44594242046E+02  0.50590471918E+02  0.00000000000E+00 0.  1.
         14    1    6    6    0    0 -0.44509166020E+02  0.45456392964E+02  0.69228669128E+02  0.94021051634E+02  0.00000000000E+00 0. -1.
         -5    1    3    3    0  503 -0.12723745240E+02  0.29360786747E+02  0.25158657382E+03  0.25365694081E+03  0.47000000000E+01 0.  1.
         11    1    4    4    0    0 -0.19865352350E+01 -0.21768663714E+02  0.16594554648E+02  0.27444494641E+02  0.00000000000E+00 0. -1.
        -12    1    4    4    0    0 -0.34377627224E+02 -0.12286764740E+03  0.52278573131E+03  0.53812935331E+03  0.00000000000E+00 0.  1.
</event>
<event>
12    1  0.1030140E-001  0.2211603E+03  0.7818608E-02  0.1133130E+00
         21   -1    0    0  503  502  0.00000000000E+00  0.00000000000E+00  0.19156675898E+03  0.19156675898E+03  0.00000000000E+00 0. -1.
         21   -1    0    0  501  503 -0.00000000000E+00 -0.00000000000E+00 -0.76672746391E+03  0.76672746391E+03  0.00000000000E+00 0. -1.
          6    2    1    2  501    0  0.12593091995E+03 -0.55669917308E+02 -0.67928402932E+03  0.71437992336E+03  0.17307266140E+03 0.  0.
         24    2    3    3    0    0  0.87864344727E+02 -0.38285242925E+02 -0.22276438908E+03  0.25592211399E+03  0.81769508294E+02 0.  0.
         -6    2    1    2    0  502 -0.12593091995E+03  0.55669917308E+02  0.10412332439E+03  0.24391429952E+03  0.17232174133E+03 0.  0.
        -24    2    5    5    0    0 -0.15017891616E+03  0.60714766289E+02  0.55536500087E+02  0.18917687798E+03  0.80396508733E+02 0.  0.
          5    1    3    3  501    0  0.38066575226E+02 -0.17384674383E+02 -0.45651964024E+03  0.45845780937E+03  0.47000000000E+01 0. -1.
        -11    1    4    4    0    0  0.75835326775E+02 -0.62885007075E+02 -0.17810331306E+03  0.20353454504E+03  0.00000000000E+00 0.  1.
         12    1    4    4    0    0  0.12029017952E+02  0.24599764151E+02 -0.44661076026E+02  0.52387568954E+02  0.00000000000E+00 0. -1.
         -5    1    5    5    0  502  0.24247996205E+02 -0.50448489813E+01  0.48586824304E+02  0.54737421543E+02  0.47000000000E+01 0.  1.
         11    1    6    6    0    0 -0.10424142314E+03  0.75784646137E+02  0.56740403082E+02  0.14081569596E+03  0.00000000000E+00 0. -1.
        -12    1    6    6    0    0 -0.45937493018E+02 -0.15069879848E+02 -0.12039029952E+01  0.48361182015E+02  0.00000000000E+00 0.  1.
</event>
<event>
12    1  0.1030140E-001  0.1714864E+03  0.7818608E-02  0.1176435E+00
         21   -1    0    0  503  502  0.00000000000E+00  0.00000000000E+00  0.55814950634E+02  0.55814950634E+02  0.00000000000E+00 0. -1.
         21   -1    0    0  501  503 -0.00000000000E+00 -0.00000000000E+00 -0.82755998957E+03  0.82755998957E+03  0.00000000000E+00 0. -1.
          6    2    1    2  501    0 -0.47258060529E+01  0.47451464835E+00 -0.65313995584E+03  0.67527727723E+03  0.17142065459E+03 0.  0.
         24    2    3    3    0    0 -0.31012834524E+02 -0.92223797411E+01 -0.14631781563E+03  0.16765949835E+03  0.75192792363E+02 0.  0.
         -6    2    1    2    0  502  0.47258060529E+01 -0.47451464835E+00 -0.11860508309E+03  0.20809766297E+03  0.17092370576E+03 0.  0.
        -24    2    5    5    0    0 -0.54906489828E+02 -0.31987974201E+02 -0.70222382982E+02  0.12495871593E+03  0.81520209132E+02 0.  0.
          5    1    3    3  501    0  0.26287028471E+02  0.96968943895E+01 -0.50682214021E+03  0.50761777888E+03  0.47000000000E+01 0. -1.
        -13    1    4    4    0    0  0.70152622434E+01  0.26615620522E+02 -0.33720436371E+02  0.43527841541E+02  0.00000000000E+00 0.  1.
         14    1    4    4    0    0 -0.38028096767E+02 -0.35838000263E+02 -0.11259737926E+03  0.12413165681E+03  0.00000000000E+00 0. -1.
         -5    1    5    5    0  502  0.59632295881E+02  0.31513459553E+02 -0.48382700112E+02  0.83138947041E+02  0.47000000000E+01 0.  1.
         13    1    6    6    0    0  0.12720889287E+02  0.14487570730E+02 -0.23977154164E+02  0.30767103402E+02  0.00000000000E+00 0. -1.
        -14    1    6    6    0    0 -0.67627379115E+02 -0.46475544931E+02 -0.46245228817E+02  0.94191612530E+02  0.00000000000E+00 0.  1.
</event>
<event>
12    1  0.1030140E-001  0.1990116E+03  0.7818608E-02  0.1154688E+00
         21   -1    0    0  501  502  0.00000000000E+00  0.00000000000E+00  0.74346828015E+02  0.74346828015E+02  0.00000000000E+00 0.  1.
         21   -1    0    0  502  503 -0.00000000000E+00 -0.00000000000E+00 -0.93452620562E+03  0.93452620562E+03  0.00000000000E+00 0.  1.
         -6    2    1    2    0  503 -0.23189953605E+02  0.48573711495E+02 -0.76907477034E+03  0.78999936530E+03  0.17241176122E+03 0.  0.
        -24    2    3    3    0    0 -0.27120267364E+01 -0.26934464414E+02 -0.57077096934E+03  0.57676869770E+03  0.78420728989E+02 0.  0.
          6    2    1    2  501    0  0.23189953605E+02 -0.48573711495E+02 -0.91104607259E+02  0.21887366833E+03  0.19159450364E+03 0.  0.
         24    2    5    5    0    0  0.60190519893E+02 -0.61319398595E+02  0.19603811294E+01  0.11780598551E+03  0.80569471885E+02 0.  0.
          5    1    5    5  501    0 -0.37000566287E+02  0.12745687100E+02 -0.93064988388E+02  0.10106768281E+03  0.47000000000E+01 0. -1.
        -11    1    6    6    0    0  0.20017724405E+02 -0.64806156297E+02 -0.21500922222E+02  0.71153614390E+02  0.00000000000E+00 0.  1.
         12    1    6    6    0    0  0.40172795488E+02  0.34867577020E+01  0.23461303352E+02  0.46652371124E+02  0.00000000000E+00 0. -1.
         -5    1    3    3    0  503 -0.20477926869E+02  0.75508175909E+02 -0.19830380100E+03  0.21323066761E+03  0.47000000000E+01 0.  1.
         11    1    4    4    0    0 -0.13553495763E+02  0.19563702434E+02 -0.74569426844E+02  0.78275380038E+02  0.00000000000E+00 0. -1.
        -12    1    4    4    0    0  0.10841469027E+02 -0.46498166849E+02 -0.49620154250E+03  0.49849331766E+03  0.00000000000E+00 0.  1.
</event>
<event>
12    1  0.1030140E-001  0.1752763E+03  0.7818608E-02  0.1172815E+00
         21   -1    0    0  503  502  0.00000000000E+00  0.00000000000E+00  0.24790077602E+03  0.24790077602E+03  0.00000000000E+00 0.  1.
         21   -1    0    0  501  503 -0.00000000000E+00 -0.00000000000E+00 -0.17178784997E+03  0.17178784997E+03  0.00000000000E+00 0.  1.
          6    2    1    2  501    0 -0.99688849706E+01 -0.26086221701E+02 -0.73980848969E+02  0.18892921637E+03  0.17158441991E+03 0.  0.
         24    2    3    3    0    0 -0.64912552615E+02 -0.43743020576E+02 -0.30057862533E+02  0.11625261836E+03  0.80523939547E+02 0.  0.
         -6    2    1    2    0  502  0.99688849706E+01  0.26086221701E+02  0.15009377502E+03  0.23075940963E+03  0.17303726247E+03 0.  0.
        -24    2    5    5    0    0 -0.25520604186E+02 -0.44469581310E+02  0.64411983172E+02  0.11413572150E+03  0.79051973065E+02 0.  0.
          5    1    3    3  501    0  0.54943667644E+02  0.17656798876E+02 -0.43922986436E+02  0.72676598009E+02  0.47000000000E+01 0. -1.
        -13    1    4    4    0    0 -0.33611109889E+02 -0.37075744956E+02 -0.55965928184E+02  0.75076645434E+02  0.00000000000E+00 0.  1.
         14    1    4    4    0    0 -0.31301442726E+02 -0.66672756201E+01  0.25908065652E+02  0.41175972930E+02  0.00000000000E+00 0. -1.
         -5    1    5    5    0  502  0.35489489156E+02  0.70555803011E+02  0.85681791847E+02  0.11662368813E+03  0.47000000000E+01 0.  1.
         13    1    6    6    0    0 -0.44866862232E+02  0.92448661879E+00  0.31083193728E+02  0.54589879414E+02  0.00000000000E+00 0. -1.
        -14    1    6    6    0    0  0.19346258047E+02 -0.45394067929E+02  0.33328789444E+02  0.59545842083E+02  0.00000000000E+00 0.  1.
</event>
<event>
12    1  0.1030140E-001  0.2056061E+03  0.7818608E-02  0.1145197E+00
         21   -1    0    0  501  502  0.00000000000E+00  0.00000000000E+00  0.40227540866E+03  0.40227540866E+03  0.00000000000E+00 0.  1.
         21   -1    0    0  502  503 -0.00000000000E+00 -0.00000000000E+00 -0.10725012313E+03  0.10725012313E+03  0.00000000000E+00 0. -1.
         -6    2    1    2    0  503 -0.92357532757E+02 -0.64937145875E+02  0.10904464266E+03  0.23228436116E+03  0.17122658549E+03 0.  0.
        -24    2    3    3    0    0 -0.73410697241E+02  0.33484232375E+00  0.10606747429E+02  0.11257001684E+03  0.84677405554E+02 0.  0.
          6    2    1    2  501    0  0.92357532757E+02  0.64937145875E+02  0.18598064287E+03  0.27724117063E+03  0.17183457276E+03 0.  0.
         24    2    5    5    0    0  0.55682332482E+02  0.92258521921E+02  0.18862451566E+03  0.23119111126E+03  0.79107300560E+02 0.  0.
          5    1    5    5  501    0  0.36675200275E+02 -0.27321376046E+02 -0.26438727855E+01  0.46050059366E+02  0.47000000000E+01 0. -1.
        -13    1    6    6    0    0  0.36722582892E+02  0.10371780712E+03  0.16861962745E+03  0.20134177502E+03  0.00000000000E+00 0.  1.
         14    1    6    6    0    0  0.18959749590E+02 -0.11459285197E+02  0.20004888203E+02  0.29849336237E+02  0.00000000000E+00 0. -1.
         -5    1    3    3    0  503 -0.18946835516E+02 -0.65271988199E+02  0.98437895232E+02  0.11971434433E+03  0.47000000000E+01 0.  1.
         13    1    4    4    0    0  0.75779348910E+01  0.19497581691E+02  0.19844931367E+02  0.28834043941E+02  0.00000000000E+00 0. -1.
        -14    1    4    4    0    0 -0.80988632132E+02 -0.19162739367E+02 -0.92381839381E+01  0.83735972898E+02  0.00000000000E+00 0.  1.
</event>
<event>
12    1  0.1030140E-001  0.2852179E+03  0.7818608E-02  0.1093195E+00
         21   -1    0    0  501  502  0.00000000000E+00  0.00000000000E+00  0.86900009304E+02  0.86900009304E+02  0.00000000000E+00 0. -1.
         21   -1    0    0  502  503 -0.00000000000E+00 -0.00000000000E+00 -0.98793344058E+03  0.98793344058E+03  0.00000000000E+00 0.  1.
         -6    2    1    2    0  503 -0.19965202494E+03 -0.10844415184E+03 -0.58440516614E+03  0.65029121295E+03  0.17241867154E+03 0.  0.
        -24    2    3    3    0    0 -0.17017392096E+03 -0.30160590163E+02 -0.27906253511E+03  0.33366290251E+03  0.59884968394E+02 0.  0.
          6    2    1    2  501    0  0.19965202494E+03  0.10844415184E+03 -0.31662826514E+03  0.42454223693E+03  0.16840898885E+03 0.  0.
         24    2    5    5    0    0  0.44021273208E+02 -0.26460945644E+00 -0.15137147859E+03  0.17280741382E+03  0.70789372277E+02 0.  0.
          5    1    5    5  501    0  0.15563075173E+03  0.10870876130E+03 -0.16525678655E+03  0.25173482312E+03  0.47000000000E+01 0. -1.
        -13    1    6    6    0    0  0.60389438179E+02  0.83316593917E+01 -0.13494573446E+03  0.14807650739E+03  0.00000000000E+00 0.  1.
         14    1    6    6    0    0 -0.16368164971E+02 -0.85962688481E+01 -0.16425744131E+02  0.24730906431E+02  0.00000000000E+00 0. -1.
         -5    1    3    3    0  503 -0.29478103982E+02 -0.78283561682E+02 -0.30534263103E+03  0.31662831044E+03  0.47000000000E+01 0.  1.
         13    1    4    4    0    0 -0.29774402533E+02 -0.26219494169E+02 -0.39641423091E+02  0.56084038240E+02  0.00000000000E+00 0. -1.
        -14    1    4    4    0    0 -0.14039951843E+03 -0.39410959940E+01 -0.23942111202E+03  0.27757886427E+03  0.00000000000E+00 0.  1.
</event>
<event>
12    1  0.1030140E-001  0.1759798E+03  0.7818608E-02  0.1173174E+00
         21   -1    0    0  501  502  0.00000000000E+00  0.00000000000E+00  0.89017499965E+03  0.89017499965E+03  0.00000000000E+00 0.  1.
         21   -1    0    0  502  503 -0.00000000000E+00 -0.00000000000E+00 -0.26985580098E+03  0.26985580098E+03  0.00000000000E+00 0.  1.
         -6    2    1    2    0  503 -0.17003629427E+02  0.52651604711E+01 -0.23306182383E+03  0.28869386710E+03  0.16943874954E+03 0.  0.
        -24    2    3    3    0    0 -0.50732632166E+02 -0.41174122556E+02 -0.10191151837E+03  0.14545719144E+03  0.80639497946E+02 0.  0.
          6    2    1    2  501    0  0.17003629427E+02 -0.52651604711E+01  0.85338102250E+03  0.87133693353E+03  0.17507723107E+03 0.  0.
         24    2    5    5    0    0  0.73610122126E+02 -0.28874290495E+02  0.61775673558E+03  0.62781572168E+03  0.79227654877E+02 0.  0.
          5    1    5    5  501    0 -0.56606492699E+02  0.23609130023E+02  0.23562428692E+03  0.24352121185E+03  0.47000000000E+01 0. -1.
        -13    1    6    6    0    0  0.41589571876E+02 -0.13226873157E+02  0.54554786679E+03  0.54729070669E+03  0.00000000000E+00 0.  1.
         14    1    6    6    0    0  0.32020550250E+02 -0.15647417338E+02  0.72208868792E+02  0.80525014994E+02  0.00000000000E+00 0. -1.
         -5    1    3    3    0  503  0.33729002738E+02  0.46439283027E+02 -0.13115030546E+03  0.14323667567E+03  0.47000000000E+01 0.  1.
         11    1    4    4    0    0 -0.23310215641E+02  0.23317561025E+02 -0.24786501047E+02  0.41248581061E+02  0.00000000000E+00 0. -1.
        -12    1    4    4    0    0 -0.27422416524E+02 -0.64491683580E+02 -0.77125017323E+02  0.10420861037E+03  0.00000000000E+00 0.  1.
</event>
<event>
12    1  0.1030140E-001  0.1785501E+03  0.7818608E-02  0.1169237E+00
         21   -1    0    0  501  502  0.00000000000E+00  0.00000000000E+00  0.38961603351E+03  0.38961603351E+03  0.00000000000E+00 0.  1.
         21   -1    0    0  502  503 -0.00000000000E+00 -0.00000000000E+00 -0.81983320092E+02  0.81983320092E+02  0.00000000000E+00 0.  1.
         -6    2    1    2    0  503 -0.15616185016E+02  0.42488981208E+02  0.16551039863E+03  0.24339131679E+03  0.17261651796E+03 0.  0.
        -24    2    3    3    0    0 -0.14338815885E+02  0.48928792426E+02  0.22758297034E+02  0.10041105469E+03  0.83455445897E+02 0.  0.
          6    2    1    2  501    0  0.15616185016E+02 -0.42488981208E+02  0.14212231479E+03  0.22820803681E+03  0.17271646403E+03 0.  0.
         24    2    5    5    0    0 -0.41963433071E+02  0.93925086979E+01  0.36659334926E+02  0.97243799197E+02  0.79141017875E+02 0.  0.
          5    1    5    5  501    0  0.57579618087E+02 -0.51881489906E+02  0.10546297986E+03  0.13096423762E+03  0.47000000000E+01 0. -1.
        -11    1    6    6    0    0 -0.33675517979E+02 -0.15642539359E+02 -0.14360536147E+02  0.39811487628E+02  0.00000000000E+00 0.  1.
         12    1    6    6    0    0 -0.82879150920E+01  0.25035048056E+02  0.51019871073E+02  0.57432311569E+02  0.00000000000E+00 0. -1.
         -5    1    3    3    0  503 -0.12773691303E+01 -0.64398112183E+01  0.14275210160E+03  0.14298026210E+03  0.47000000000E+01 0.  1.
         13    1    4    4    0    0 -0.39033949540E+02 -0.10119905425E+01 -0.27344556863E+01  0.39142695225E+02  0.00000000000E+00 0. -1.
        -14    1    4    4    0    0  0.24695133655E+02  0.49940782969E+02  0.25492752720E+02  0.61268359461E+02  0.00000000000E+00 0.  1.
</event>
<event>
12    1  0.1030140E-001  0.2413777E+03  0.7818608E-02  0.1118970E+00
         21   -1    0    0  501  502  0.00000000000E+00  0.00000000000E+00  0.64803743911E+03  0.64803743911E+03  0.00000000000E+00 0.  1.
         21   -1    0    0  502  503 -0.00000000000E+00 -0.00000000000E+00 -0.14420977738E+03  0.14420977738E+03  0.00000000000E+00 0.  1.
         -6    2    1    2    0  503  0.64911768166E+02 -0.15641954595E+03  0.85550534819E+01  0.24152922633E+03  0.17199583202E+03 0.  0.
        -24    2    3    3    0    0  0.56278019505E+02 -0.14116683047E+03 -0.40511104311E+02  0.18921512894E+03  0.10519470492E+03 0.  0.
          6    2    1    2  501    0 -0.64911768166E+02  0.15641954595E+03  0.49527260824E+03  0.55071799015E+03  0.17121546717E+03 0.  0.
         24    2    5    5    0    0 -0.11089507181E+03  0.11276459965E+03  0.37111194028E+03  0.41122540963E+03  0.79804094040E+02 0.  0.
          5    1    5    5  501    0  0.45983303642E+02  0.43654946300E+02  0.12416066797E+03  0.13949258052E+03  0.47000000000E+01 0. -1.
        -13    1    6    6    0    0  0.10197058996E+02  0.37526429646E+01  0.49711002337E+02  0.50884635154E+02  0.00000000000E+00 0.  1.
         14    1    6    6    0    0 -0.12109213080E+03  0.10901195668E+03  0.32140093794E+03  0.36034077448E+03  0.00000000000E+00 0. -1.
         -5    1    3    3    0  503  0.86337486614E+01 -0.15252715481E+02  0.49066157793E+02  0.52314097394E+02  0.47000000000E+01 0.  1.
         13    1    4    4    0    0  0.38125441561E+02  0.31707246310E+01 -0.16954580320E+02  0.41845675795E+02  0.00000000000E+00 0. -1.
        -14    1    4    4    0    0  0.18152577943E+02 -0.14433755510E+03 -0.23556523992E+02  0.14736945314E+03  0.00000000000E+00 0.  1.
</event>
<event>
12    1  0.1030140E-001  0.1877442E+03  0.7818608E-02  0.1161044E+00
         21   -1    0    0  501  502  0.00000000000E+00  0.00000000000E+00  0.29590012956E+03  0.29590012956E+03  0.00000000000E+00 0. -1.
         21   -1    0    0  502  503 -0.00000000000E+00 -0.00000000000E+00 -0.22859345664E+03  0.22859345664E+03  0.00000000000E+00 0. -1.
         -6    2    1    2    0  503 -0.50126085393E+02 -0.53492803749E+02 -0.14913855307E+03  0.23796885229E+03  0.17033133052E+03 0.  0.
        -24    2    3    3    0    0 -0.87121684454E+02 -0.48228115562E+02 -0.15371788206E+03  0.20002874758E+03  0.80412521163E+02 0.  0.
          6    2    1    2  501    0  0.50126085393E+02  0.53492803749E+02  0.21644522600E+03  0.28652473391E+03  0.17284033903E+03 0.  0.
         24    2    5    5    0    0 -0.87989786269E+01  0.63855541315E+02  0.60044061732E+02  0.11900469426E+03  0.80011722431E+02 0.  0.
          5    1    5    5  501    0  0.58925064020E+02 -0.10362737566E+02  0.15640116426E+03  0.16752003965E+03  0.47000000000E+01 0. -1.
        -11    1    6    6    0    0  0.23934140761E+02  0.45592640236E+02  0.40889507097E+01  0.51655120323E+02  0.00000000000E+00 0.  1.
         12    1    6    6    0    0 -0.32733119388E+02  0.18262901078E+02  0.55955111022E+02  0.67349573942E+02  0.00000000000E+00 0. -1.
         -5    1    3    3    0  503  0.36995599061E+02 -0.52646881872E+01  0.45793289880E+01  0.37940104712E+02  0.47000000000E+01 0.  1.
         13    1    4    4    0    0 -0.69835866270E+02  0.64581233637E+01 -0.93346898062E+02  0.11675786463E+03  0.00000000000E+00 0. -1.
        -14    1    4    4    0    0 -0.17285818184E+02 -0.54686238925E+02 -0.60370984000E+02  0.83270882950E+02  0.00000000000E+00 0.  1.
</event>
<event>
12    1  0.1030140E-001  0.1905776E+03  0.7818608E-02  0.1158849E+00
         21   -1    0    0  501  502  0.00000000000E+00  0.00000000000E+00  0.10869096010E+04  0.10869096010E+04  0.00000000000E+00 0. -1.
         21   -1    0    0  502  503 -0.00000000000E+00 -0.00000000000E+00 -0.38634891655E+02  0.38634891655E+02  0.00000000000E+00 0. -1.
         -6    2    1    2    0  503 -0.64977159961E+02  0.48702205850E+02  0.30862428149E+03  0.36272409160E+03  0.17241195820E+03 0.  0.
        -24    2    3    3    0    0  0.25738140421E+02  0.52408723467E+02  0.16496772684E+03  0.19271732794E+03  0.80724788153E+02 0.  0.
          6    2    1    2  501    0  0.64977159961E+02 -0.48702205850E+02  0.73965042790E+03  0.76282040109E+03  0.16798295351E+03 0.  0.
         24    2    5    5    0    0 -0.26546986860E+01 -0.16797821816E+02  0.18372092005E+03  0.20186437277E+03  0.81894043041E+02 0.  0.
          5    1    5    5  501    0  0.67631858647E+02 -0.31904384035E+02  0.55592950784E+03  0.56095602833E+03  0.47000000000E+01 0. -1.
        -11    1    6    6    0    0  0.70821428770E+01 -0.43796009211E+02  0.58632199426E+02  0.73525383236E+02  0.00000000000E+00 0.  1.
         12    1    6    6    0    0 -0.97368415630E+01  0.26998187395E+02  0.12508872063E+03  0.12833898953E+03  0.00000000000E+00 0. -1.
         -5    1    3    3    0  503 -0.90715300382E+02 -0.37065176162E+01  0.14365655465E+03  0.17000676366E+03  0.47000000000E+01 0.  1.
         13    1    4    4    0    0  0.42220146785E+02  0.38782166465E+02  0.50906335831E+02  0.76668456734E+02  0.00000000000E+00 0. -1.
        -14    1    4    4    0    0 -0.16482006364E+02  0.13626557001E+02  0.11406139101E+03  0.11604887121E+03  0.00000000000E+00 0.  1.
</event>
<event>
12    1  0.1030140E-001  0.1777518E+03  0.7818608E-02  0.1171012E+00
         21   -1    0    0  503  502  0.00000000000E+00  0.00000000000E+00  0.12143194820E+03  0.12143194820E+03  0.00000000000E+00 0. -1.
         21   -1    0    0  501  503 -0.00000000000E+00 -0.00000000000E+00 -0.28337816508E+03  0.28337816508E+03  0.00000000000E+00 0. -1.
          6    2    1    2  501    0 -0.24180817790E+02  0.26082190835E+01 -0.16935792513E+02  0.17855676827E+03  0.17608004905E+03 0.  0.
         24    2    3    3    0    0 -0.16006638227E+02  0.16753382851E+02  0.57911734169E+02  0.10180297280E+03  0.80456124760E+02 0.  0.
         -6    2    1    2    0  502  0.24180817790E+02 -0.26082190835E+01 -0.14501042437E+03  0.22625334501E+03  0.17196231620E+03 0.  0.
        -24    2    5    5    0    0  0.57061586397E+02  0.40467378602E+02 -0.51368087748E+02  0.11795916571E+03  0.79887739760E+02 0.  0.
          5    1    3    3  501    0 -0.81741795624E+01 -0.14145163768E+02 -0.74847526681E+02  0.76753795475E+02  0.47000000000E+01 0. -1.
        -13    1    4    4    0    0  0.43060825890E+01  0.21089217915E+02 -0.14840076909E+02  0.26144317589E+02  0.00000000000E+00 0.  1.
         14    1    4    4    0    0 -0.20312720816E+02 -0.43358350636E+01  0.72751811078E+02  0.75658655207E+02  0.00000000000E+00 0. -1.
         -5    1    5    5    0  502 -0.32880768607E+02 -0.43075597686E+02 -0.93642336625E+02  0.10829417929E+03  0.47000000000E+01 0.  1.
         13    1    6    6    0    0  0.57372248238E+02 -0.73854743420E+01 -0.33709778483E+02  0.66951245429E+02  0.00000000000E+00 0. -1.
        -14    1    6    6    0    0 -0.31066184118E+00  0.47852852944E+02 -0.17658309266E+02  0.51007920285E+02  0.00000000000E+00 0.  1.
</event>
<event>
12    1  0.1030140E-001  0.3042540E+03  0.7818608E-02  0.1083153E+00
         21   -1    0    0  501  502  0.00000000000E+00  0.00000000000E+00  0.25327096765E+03  0.25327096765E+03  0.00000000000E+00 0. -1.
         21   -1    0    0  502  503 -0.00000000000E+00 -0.00000000000E+00 -0.36583159425E+03  0.36583159425E+03  0.00000000000E+00 0. -1.
         -6    2    1    2    0  503 -0.13494750124E+03  0.21155565662E+03 -0.68010427567E+02  0.31176260930E+03  0.17205778786E+03 0.  0.
        -24    2    3    3    0    0 -0.25556662365E+02  0.12622021971E+03 -0.82377543779E+02  0.17220259909E+03  0.79265304895E+02 0.  0.
          6    2    1    2  501    0  0.13494750124E+03 -0.21155565662E+03 -0.44550199037E+02  0.30733995260E+03  0.17177456823E+03 0.  0.
         24    2    5    5    0    0  0.15436318367E+03 -0.20935605054E+03 -0.15506726834E+02  0.27202111529E+03  0.78083802539E+02 0.  0.
          5    1    5    5  501    0 -0.19415682431E+02 -0.21996060811E+01 -0.29043472202E+02  0.35318837307E+02  0.47000000000E+01 0. -1.
        -11    1    6    6    0    0  0.15492314646E+01  0.67265692407E+01 -0.89115098191E+00  0.69599570368E+01  0.00000000000E+00 0.  1.
         12    1    6    6    0    0  0.15281395220E+03 -0.21608261978E+03 -0.14615575853E+02  0.26506115825E+03  0.00000000000E+00 0. -1.
         -5    1    3    3    0  503 -0.10939083887E+03  0.85335436907E+02  0.14367116212E+02  0.13956001021E+03  0.47000000000E+01 0.  1.
         11    1    4    4    0    0 -0.16560836290E+02  0.12683598762E+03 -0.47935099394E+02  0.13659942463E+03  0.00000000000E+00 0. -1.
        -12    1    4    4    0    0 -0.89958260749E+01 -0.61576790913E+00 -0.34442444385E+02  0.35603174467E+02  0.00000000000E+00 0.  1.
</event>
<event>
12    1  0.1030140E-001  0.2638088E+03  0.7818608E-02  0.1104876E+00
         21   -1    0    0  501  502  0.00000000000E+00  0.00000000000E+00  0.22819334807E+03  0.22819334807E+03  0.00000000000E+00 0. -1.
         21   -1    0    0  502  503 -0.00000000000E+00 -0.00000000000E+00 -0.41593518420E+03  0.41593518420E+03  0.00000000000E+00 0. -1.
         -6    2    1    2    0  503  0.15694342204E+03  0.12540152834E+03 -0.26021145556E+03  0.37054691304E+03  0.17099190661E+03 0.  0.
        -24    2    3    3    0    0  0.17440325407E+03  0.14085898136E+03 -0.22098349074E+03  0.32466988378E+03  0.79492657502E+02 0.  0.
          6    2    1    2  501    0 -0.15694342204E+03 -0.12540152834E+03  0.72469619436E+02  0.27358161924E+03  0.17099203377E+03 0.  0.
         24    2    5    5    0    0 -0.51615748543E+02 -0.11056843016E+03  0.17140799933E+01  0.14574431652E+03  0.79680013063E+02 0.  0.
          5    1    5    5  501    0 -0.10532767349E+03 -0.14833098180E+02  0.70755539442E+02  0.12783730272E+03  0.47000000000E+01 0. -1.
        -13    1    6    6    0    0 -0.29377469755E+02 -0.85657315873E+02  0.36399504414E+02  0.97596800221E+02  0.00000000000E+00 0.  1.
         14    1    6    6    0    0 -0.22238278788E+02 -0.24911114285E+02 -0.34685424420E+02  0.48147516297E+02  0.00000000000E+00 0. -1.
         -5    1    3    3    0  503 -0.17459832036E+02 -0.15457453024E+02 -0.39227964824E+02  0.45877029252E+02  0.47000000000E+01 0.  1.
         13    1    4    4    0    0  0.13162871675E+02  0.30739158828E+02 -0.70927308642E+02  0.78414540663E+02  0.00000000000E+00 0. -1.
        -14    1    4    4    0    0  0.16124038240E+03  0.11011982253E+03 -0.15005618209E+03  0.24625534312E+03  0.00000000000E+00 0.  1.
</event>
<event>
12    1  0.1030140E-001  0.1806856E+03  0.7818608E-02  0.1167262E+00
         21   -1    0    0  501  502  0.00000000000E+00  0.00000000000E+00  0.14701982523E+03  0.14701982523E+03  0.00000000000E+00 0. -1.
         21   -1    0    0  502  503 -0.00000000000E+00 -0.00000000000E+00 -0.31642157643E+03  0.31642157643E+03  0.00000000000E+00 0. -1.
         -6    2    1    2    0  503 -0.54263966696E+02 -0.13018916021E+02 -0.21173398464E+03  0.27834974860E+03  0.17185235536E+03 0.  0.
        -24    2    3    3    0    0 -0.79220253944E+02  0.31598829780E+02 -0.95099058130E+02  0.15091601840E+03  0.80358441205E+02 0.  0.
          6    2    1    2  501    0  0.54263966696E+02  0.13018916021E+02  0.42332233436E+02  0.18509165306E+03  0.17132668148E+03 0.  0.
         24    2    5    5    0    0  0.17284883316E+02  0.17683744070E+02 -0.41249088249E+02  0.93455739993E+02  0.80131180327E+02 0.  0.
          5    1    5    5  501    0  0.36979083380E+02 -0.46648280484E+01  0.83581321685E+02  0.91635913063E+02  0.47000000000E+01 0. -1.
        -13    1    6    6    0    0 -0.28471337730E+02  0.13878834848E+02  0.89330579555E-01  0.31674076290E+02  0.00000000000E+00 0.  1.
         14    1    6    6    0    0  0.45756221046E+02  0.38049092215E+01 -0.41338418829E+02  0.61781663703E+02  0.00000000000E+00 0. -1.
         -5    1    3    3    0  503  0.24956287248E+02 -0.44617745802E+02 -0.11663492651E+03  0.12743373021E+03  0.47000000000E+01 0.  1.
         13    1    4    4    0    0 -0.27000710713E+02 -0.25822301064E+02 -0.17833822923E+02  0.41398971621E+02  0.00000000000E+00 0. -1.
        -14    1    4    4    0    0 -0.52219543230E+02  0.57421130844E+02 -0.77265235206E+02  0.10951704677E+03  0.00000000000E+00 0.  1.
</event>
<event>
12    1  0.1030140E-001  0.1788413E+03  0.7818608E-02  0.1169456E+00
         21   -1    0    0  501  502  0.00000000000E+00  0.00000000000E+00  0.15291615434E+03  0.15291615434E+03  0.00000000000E+00 0.  1.
         21   -1    0    0  502  503 -0.00000000000E+00 -0.00000000000E+00 -0.29396790162E+03  0.29396790162E+03  0.00000000000E+00 0.  1.
         -6    2    1    2    0  503 -0.43004014141E+02 -0.17420496394E+02 -0.19199397665E+03  0.26092892438E+03  0.17049750022E+03 0.  0.
        -24    2    3    3    0    0 -0.41752583613E+02 -0.67024805789E+02 -0.17633255010E+03  0.20868407898E+03  0.78868712210E+02 0.  0.
          6    2    1    2  501    0  0.43004014141E+02  0.17420496394E+02  0.50942229369E+02  0.18595513159E+03  0.17271763461E+03 0.  0.
         24    2    5    5    0    0 -0.18560712262E+02 -0.42231166943E+02  0.34024211317E+02  0.98451727024E+02  0.80044513224E+02 0.  0.
          5    1    5    5  501    0  0.61564726403E+02  0.59651663337E+02  0.16918018051E+02  0.87503404566E+02  0.47000000000E+01 0. -1.
        -11    1    6    6    0    0 -0.12744811545E+02  0.13801227342E+02 -0.14791645114E+02  0.23910183241E+02  0.00000000000E+00 0.  1.
         12    1    6    6    0    0 -0.58159007171E+01 -0.56032394285E+02  0.48815856431E+02  0.74541543783E+02  0.00000000000E+00 0. -1.
         -5    1    3    3    0  503 -0.12514305279E+01  0.49604309395E+02 -0.15661426550E+02  0.52244845397E+02  0.47000000000E+01 0.  1.
         11    1    4    4    0    0  0.20743302461E+02 -0.46686165316E+01 -0.52153671582E+02  0.56321275170E+02  0.00000000000E+00 0. -1.
        -12    1    4    4    0    0 -0.62495886074E+02 -0.62356189258E+02 -0.12417887852E+03  0.15236280381E+03  0.00000000000E+00 0.  1.
</event>
<event>
12    1  0.1030140E-001  0.1755445E+03  0.7818608E-02  0.1172248E+00
         21   -1    0    0  503  502  0.00000000000E+00  0.00000000000E+00  0.45870688606E+03  0.45870688606E+03  0.00000000000E+00 0.  1.
         21   -1    0    0  501  503 -0.00000000000E+00 -0.00000000000E+00 -0.70925418582E+02  0.70925418582E+02  0.00000000000E+00 0.  1.
          6    2    1    2  501    0  0.35654363987E+02  0.30824088905E+01  0.13240113235E+03  0.21987711643E+03  0.17185794007E+03 0.  0.
         24    2    3    3    0    0  0.59147427463E+02  0.56727555523E+02  0.76956473217E+02  0.13909391263E+03  0.81904725322E+02 0.  0.
         -6    2    1    2    0  502 -0.35654363987E+02 -0.30824088905E+01  0.25538033513E+03  0.30975518822E+03  0.17160543739E+03 0.  0.
        -24    2    5    5    0    0  0.37011379593E+02 -0.35132424771E+02  0.14280774988E+03  0.17190675421E+03  0.80955229783E+02 0.  0.
          5    1    3    3  501    0 -0.23493063475E+02 -0.53645146633E+02  0.55444659134E+02  0.80783203794E+02  0.47000000000E+01 0. -1.
        -11    1    4    4    0    0  0.40422966130E+02  0.39949357331E+02 -0.13514698729E+01  0.56848868175E+02  0.00000000000E+00 0.  1.
         12    1    4    4    0    0  0.18724461333E+02  0.16778198192E+02  0.78307943090E+02  0.82245044457E+02  0.00000000000E+00 0. -1.
         -5    1    5    5    0  502 -0.72665743580E+02  0.32050015880E+02  0.11257258525E+03  0.13784843401E+03  0.47000000000E+01 0.  1.
         11    1    6    6    0    0  0.82981963105E+01 -0.27213617323E+02  0.13899698108E+03  0.14187882780E+03  0.00000000000E+00 0. -1.
        -12    1    6    6    0    0  0.28713183282E+02 -0.79188074478E+01  0.38107687982E+01  0.30027926409E+02  0.00000000000E+00 0.  1.
</event>
<event>
12    1  0.1030140E-001  0.2037079E+03  0.7818608E-02  0.1147350E+00
         21   -1    0    0  501  502  0.00000000000E+00  0.00000000000E+00  0.74645060993E+03  0.74645060993E+03  0.00000000000E+00 0. -1.
         21   -1    0    0  502  503 -0.00000000000E+00 -0.00000000000E+00 -0.80302210699E+02  0.80302210699E+02  0.00000000000E+00 0. -1.
         -6    2    1    2    0  503 -0.18594886059E+02  0.10806100142E+03  0.97654615388E+02  0.22286369815E+03  0.16765695402E+03 0.  0.
        -24    2    3    3    0    0 -0.43604978066E+02  0.94314147299E+02  0.10078139534E+02  0.13063458223E+03  0.78531985107E+02 0.  0.
          6    2    1    2  501    0  0.18594886059E+02 -0.10806100142E+03  0.56849378384E+03  0.60388912248E+03  0.17167976050E+03 0.  0.
         24    2    5    5    0    0 -0.40500481230E+02 -0.71604211790E+02  0.22304571213E+03  0.25150038799E+03  0.82070721534E+02 0.  0.
          5    1    5    5  501    0  0.59095367289E+02 -0.36456789635E+02  0.34544807171E+03  0.35238873448E+03  0.47000000000E+01 0. -1.
        -11    1    6    6    0    0  0.15151080760E+02  0.52817039863E+01  0.66677005768E+02  0.68580425366E+02  0.00000000000E+00 0.  1.
         12    1    6    6    0    0 -0.55651561991E+02 -0.76885915776E+02  0.15636870637E+03  0.18291996263E+03  0.00000000000E+00 0. -1.
         -5    1    3    3    0  503  0.25010092008E+02  0.13746854125E+02  0.87576475853E+02  0.92229115921E+02  0.47000000000E+01 0.  1.
         11    1    4    4    0    0 -0.69145874895E+01  0.85019922641E+02 -0.13027994957E+02  0.86289787453E+02  0.00000000000E+00 0. -1.
        -12    1    4    4    0    0 -0.36690390577E+02  0.92942246582E+01  0.23106134491E+02  0.44344794777E+02  0.00000000000E+00 0.  1.
</event>
<event>
12    1  0.1030140E-001  0.2236392E+03  0.7818608E-02  0.1131386E+00
         21   -1    0    0  501  502  0.00000000000E+00  0.00000000000E+00  0.36832798009E+03  0.36832798009E+03  0.00000000000E+00 0.  1.
         21   -1    0    0  502  503 -0.00000000000E+00 -0.00000000000E+00 -0.15667183291E+03  0.15667183291E+03  0.00000000000E+00 0. -1.
         -6    2    1    2    0  503 -0.14029155896E+03  0.12912614513E+02  0.87852124396E+01  0.22381167989E+03  0.17368370956E+03 0.  0.
        -24    2    3    3    0    0  0.17398203251E+00 -0.13601133067E+02 -0.88258128695E+01  0.79708296063E+02  0.78041632467E+02 0.  0.
          6    2    1    2  501    0  0.14029155896E+03 -0.12912614513E+02  0.20287093473E+03  0.30118813311E+03  0.17236362214E+03 0.  0.
         24    2    5    5    0    0  0.12805732274E+03  0.27576974276E+02  0.21534127796E+03  0.25684083560E+03  0.49357688546E+02 0.  0.
          5    1    5    5  501    0  0.12234236221E+02 -0.40489588789E+02 -0.12470343233E+02  0.44347297511E+02  0.47000000000E+01 0. -1.
        -13    1    6    6    0    0  0.46111365850E+02  0.11391136497E+02  0.12540510423E+03  0.13409868090E+03  0.00000000000E+00 0.  1.
         14    1    6    6    0    0  0.81945956891E+02  0.16185837779E+02  0.89936173736E+02  0.12274215470E+03  0.00000000000E+00 0. -1.
         -5    1    3    3    0  503 -0.14046554099E+03  0.26513747580E+02  0.17611025309E+02  0.14410338383E+03  0.47000000000E+01 0.  1.
         11    1    4    4    0    0 -0.27812527334E+02  0.66028280269E+01 -0.28175696081E+02  0.40137312619E+02  0.00000000000E+00 0. -1.
        -12    1    4    4    0    0  0.27986509367E+02 -0.20203961094E+02  0.19349883211E+02  0.39570983444E+02  0.00000000000E+00 0.  1.
</event>
<event>
12    1  0.1030140E-001  0.1945567E+03  0.7818608E-02  0.1154862E+00
         21   -1    0    0  503  502  0.00000000000E+00  0.00000000000E+00  0.28031618474E+03  0.28031618474E+03  0.00000000000E+00 0.  1.
         21   -1    0    0  501  503 -0.00000000000E+00 -0.00000000000E+00 -0.13383130537E+03  0.13383130537E+03  0.00000000000E+00 0.  1.
          6    2    1    2  501    0 -0.50787634471E+02 -0.73394420705E+02  0.81718955629E+02  0.21102200069E+03  0.17287617609E+03 0.  0.
         24    2    3    3    0    0 -0.58068251400E+02 -0.13854461490E+02 -0.11195060631E+02  0.10032819533E+03  0.79853299698E+02 0.  0.
         -6    2    1    2    0  502  0.50787634471E+02  0.73394420705E+02  0.64765923745E+02  0.20312548942E+03  0.17058491952E+03 0.  0.
        -24    2    5    5    0    0 -0.34856203016E+02  0.41497072427E+02  0.50022602531E+02  0.11043372470E+03  0.82197231567E+02 0.  0.
          5    1    3    3  501    0  0.72806169290E+01 -0.59539959215E+02  0.92914016260E+02  0.11069380535E+03  0.47000000000E+01 0. -1.
        -13    1    4    4    0    0 -0.73215699663E+02  0.57651669969E+01 -0.15786761483E+02  0.75119888617E+02  0.00000000000E+00 0.  1.
         14    1    4    4    0    0  0.15147448263E+02 -0.19619628487E+02  0.45917008518E+01  0.25208306718E+02  0.00000000000E+00 0. -1.
         -5    1    5    5    0  502  0.85643837487E+02  0.31897348278E+02  0.14743321213E+02  0.92691764721E+02  0.47000000000E+01 0.  1.
         13    1    6    6    0    0 -0.49006656049E+01 -0.18580504490E+02 -0.88390248176E+01  0.21151360008E+02  0.00000000000E+00 0. -1.
        -14    1    6    6    0    0 -0.29955537411E+02  0.60077576918E+02  0.58861627349E+02  0.89282364687E+02  0.00000000000E+00 0.  1.
</event>
<event>
12    1  0.1030140E-001  0.1846316E+03  0.7818608E-02  0.1165312E+00
         21   -1    0    0  503  502  0.00000000000E+00  0.00000000000E+00  0.45407661981E+03  0.45407661981E+03  0.00000000000E+00 0.  1.
         21   -1    0    0  501  503 -0.00000000000E+00 -0.00000000000E+00 -0.17671969062E+03  0.17671969062E+03  0.00000000000E+00 0.  1.
          6    2    1    2  501    0  0.73552057147E+02  0.23469253568E+02 -0.10550535792E+03  0.20574058216E+03  0.15886187593E+03 0.  0.
         24    2    3    3    0    0  0.10505040582E+03  0.16492394922E+02 -0.11718813842E+03  0.17110822899E+03  0.65095156421E+02 0.  0.
         -6    2    1    2    0  502 -0.73552057147E+02 -0.23469253568E+02  0.38286228711E+03  0.42505572827E+03  0.16771443070E+03 0.  0.
        -24    2    5    5    0    0 -0.22662384271E+02 -0.74900565334E+02  0.21625571101E+03  0.24335603141E+03  0.79573532871E+02 0.  0.
          5    1    3    3  501    0 -0.31498348676E+02  0.69768586460E+01  0.11682780495E+02  0.34632353169E+02  0.47000000000E+01 0. -1.
        -13    1    4    4    0    0  0.48526600318E+02 -0.57337566698E+01 -0.13090158057E+02  0.50587144038E+02  0.00000000000E+00 0.  1.
         14    1    4    4    0    0  0.56523805505E+02  0.22226151592E+02 -0.10409798036E+03  0.12052108496E+03  0.00000000000E+00 0. -1.
         -5    1    5    5    0  502 -0.50889672876E+02  0.51431311766E+02  0.16660657611E+03  0.18169969685E+03  0.47000000000E+01 0.  1.
         13    1    6    6    0    0  0.20739376080E+02 -0.74258445202E+01  0.14869830043E+02  0.26577748824E+02  0.00000000000E+00 0. -1.
        -14    1    6    6    0    0 -0.43401760351E+02 -0.67474720814E+02  0.20138588096E+03  0.21677828259E+03  0.00000000000E+00 0.  1.
</event>
<event>
12    1  0.1030140E-001  0.2012379E+03  0.7818608E-02  0.1149229E+00
         21   -1    0    0  501  502  0.00000000000E+00  0.00000000000E+00  0.39431938921E+03  0.39431938921E+03  0.00000000000E+00 0. -1.
         21   -1    0    0  502  503 -0.00000000000E+00 -0.00000000000E+00 -0.10341794785E+03  0.10341794785E+03  0.00000000000E+00 0.  1.
         -6    2    1    2    0  503 -0.22960240604E+02  0.96544558481E+02  0.11175488474E+03  0.23018654480E+03  0.17506760615E+03 0.  0.
        -24    2    3    3    0    0 -0.48237330973E+02 -0.79022376163E+01  0.53210443583E+02  0.10772183110E+03  0.79895908091E+02 0.  0.
          6    2    1    2  501    0  0.22960240604E+02 -0.96544558481E+02  0.17914655662E+03  0.26755079225E+03  0.17216827021E+03 0.  0.
         24    2    5    5    0    0 -0.14792167467E+02 -0.46301328667E+02  0.18229170452E+03  0.20445080483E+03  0.78786069872E+02 0.  0.
          5    1    5    5  501    0  0.37752408071E+02 -0.50243229814E+02 -0.31451478987E+01  0.63099987422E+02  0.47000000000E+01 0. -1.
        -13    1    6    6    0    0  0.22005721601E+01  0.15480704745E+02  0.57830721351E+01  0.16671492452E+02  0.00000000000E+00 0.  1.
         14    1    6    6    0    0 -0.16992739627E+02 -0.61782033412E+02  0.17650863238E+03  0.18777931238E+03  0.00000000000E+00 0. -1.
         -5    1    3    3    0  503  0.25277090369E+02  0.10444679610E+03  0.58544441159E+02  0.12246471371E+03  0.47000000000E+01 0.  1.
         13    1    4    4    0    0 -0.42220892440E+02  0.34570282214E-01  0.73701687639E+02  0.84938470168E+02  0.00000000000E+00 0. -1.
        -14    1    4    4    0    0 -0.60164385326E+01 -0.79368078985E+01 -0.20491244056E+02  0.22783360929E+02  0.00000000000E+00 0.  1.
</event>
<event>
12    1  0.1030140E-001  0.1837853E+03  0.7818608E-02  0.1164214E+00
         21   -1    0    0  503  502  0.00000000000E+00  0.00000000000E+00  0.82847691915E+03  0.82847691915E+03  0.00000000000E+00 0. -1.
         21   -1    0    0  501  503 -0.00000000000E+00 -0.00000000000E+00 -0.42288989861E+02  0.42288989861E+02  0.00000000000E+00 0. -1.
          6    2    1    2  501    0  0.58270137531E+02  0.30449005191E+02  0.30983745257E+03  0.36019094069E+03  0.17151010435E+03 0.  0.
         24    2    3    3    0    0  0.79863157336E+02 -0.34303822817E+02  0.18977624092E+03  0.22200276543E+03  0.75599802121E+02 0.  0.
         -6    2    1    2    0  502 -0.58270137531E+02 -0.30449005191E+02  0.47635047672E+03  0.51057496832E+03  0.17162304845E+03 0.  0.
        -24    2    5    5    0    0 -0.46843465410E+02 -0.85082868622E+02  0.29600568901E+03  0.32173175208E+03  0.80365089317E+02 0.  0.
          5    1    3    3  501    0 -0.21593019805E+02  0.64752828007E+02  0.12006121165E+03  0.13818817527E+03  0.47000000000E+01 0. -1.
        -11    1    4    4    0    0  0.88697307767E+02 -0.14989481911E+02  0.12624299740E+03  0.15501351994E+03  0.00000000000E+00 0.  1.
         12    1    4    4    0    0 -0.88341504306E+01 -0.19314340906E+02  0.63533243516E+02  0.66989245481E+02  0.00000000000E+00 0. -1.
         -5    1    5    5    0  502 -0.11426672121E+02  0.54633863431E+02  0.18034478771E+03  0.18884321625E+03  0.47000000000E+01 0.  1.
         13    1    6    6    0    0 -0.23653823421E+02 -0.59871471885E+02  0.78383318572E+02  0.10142998146E+03  0.00000000000E+00 0. -1.
        -14    1    6    6    0    0 -0.23189641990E+02 -0.25211396737E+02  0.21762237044E+03  0.22030177062E+03  0.00000000000E+00 0.  1.
</event>
<event>
12    1  0.1030140E-001  0.2745970E+03  0.7818608E-02  0.1098911E+00
         21   -1    0    0  501  502  0.00000000000E+00  0.00000000000E+00  0.79213282203E+03  0.79213282203E+03  0.00000000000E+00 0.  1.
         21   -1    0    0  502  503 -0.00000000000E+00 -0.00000000000E+00 -0.97173687911E+02  0.97173687911E+02  0.00000000000E+00 0. -1.
         -6    2    1    2    0  503  0.19649041372E+03  0.86824588221E+02  0.42066234735E+03  0.50235478317E+03  0.17104539132E+03 0.  0.
        -24    2    3    3    0    0  0.11112318189E+03 -0.18646144314E+02  0.23314374613E+03  0.27084462033E+03  0.79402529897E+02 0.  0.
          6    2    1    2  501    0 -0.19649041372E+03 -0.86824588221E+02  0.27429678677E+03  0.38695172677E+03  0.16836246557E+03 0.  0.
         24    2    5    5    0    0 -0.11585048031E+03 -0.10053989588E+03  0.11488304422E+03  0.20771517961E+03  0.80111656694E+02 0.  0.
          5    1    5    5  501    0 -0.80639933414E+02  0.13715307664E+02  0.15941374255E+03  0.17923654716E+03  0.47000000000E+01 0. -1.
        -11    1    6    6    0    0  0.50184812223E+01 -0.18161642593E+02  0.38123974100E+02  0.42526083955E+02  0.00000000000E+00 0.  1.
         12    1    6    6    0    0 -0.12086896153E+03 -0.82378253292E+02  0.76759070124E+02  0.16518909565E+03  0.00000000000E+00 0. -1.
         -5    1    3    3    0  503  0.85367231836E+02  0.10547073253E+03  0.18751860122E+03  0.23151016283E+03  0.47000000000E+01 0.  1.
         13    1    4    4    0    0 -0.14259835788E+01 -0.12806775211E+02  0.11649327824E+01  0.12938469340E+02  0.00000000000E+00 0. -1.
        -14    1    4    4    0    0  0.11254916547E+03 -0.58393691026E+01  0.23197881335E+03  0.25790615099E+03  0.00000000000E+00 0.  1.
</event>
<event>
12    1  0.1030140E-001  0.2266269E+03  0.7818608E-02  0.1129334E+00
         21   -1    0    0  503  502  0.00000000000E+00  0.00000000000E+00  0.36834620408E+03  0.36834620408E+03  0.00000000000E+00 0.  1.
         21   -1    0    0  501  503 -0.00000000000E+00 -0.00000000000E+00 -0.14158861863E+03  0.14158861863E+03  0.00000000000E+00 0.  1.
          6    2    1    2  501    0  0.13590798600E+03  0.53528071963E+02  0.74818585821E+02  0.23708830139E+03  0.17110466600E+03 0.  0.
         24    2    3    3    0    0  0.51892844512E+02 -0.48073296777E+02  0.30749547898E+02  0.98000012051E+02  0.60452944441E+02 0.  0.
         -6    2    1    2    0  502 -0.13590798600E+03 -0.53528071963E+02  0.15193899962E+03  0.27284652132E+03  0.17327299109E+03 0.  0.
        -24    2    5    5    0    0 -0.69104730925E+02  0.38527491035E+02  0.62944812712E+02  0.12835099588E+03  0.79070204848E+02 0.  0.
          5    1    3    3  501    0  0.84015141485E+02  0.10160136874E+03  0.44069037923E+02  0.13908828934E+03  0.47000000000E+01 0. -1.
        -13    1    4    4    0    0  0.25189317997E+02  0.11548535398E+02  0.98704770095E+01  0.29415926424E+02  0.00000000000E+00 0.  1.
         14    1    4    4    0    0  0.26703526515E+02 -0.59621832174E+02  0.20879070889E+02  0.68584085627E+02  0.00000000000E+00 0. -1.
         -5    1    5    5    0  502 -0.66803255072E+02 -0.92055562998E+02  0.88994186911E+02  0.14449552544E+03  0.47000000000E+01 0.  1.
         11    1    6    6    0    0 -0.20086982755E+01 -0.14077439928E+02  0.36362045734E+02  0.39043662145E+02  0.00000000000E+00 0. -1.
        -12    1    6    6    0    0 -0.67096032649E+02  0.52604930964E+02  0.26582766978E+02  0.89307333737E+02  0.00000000000E+00 0.  1.
</event>
<event>
12    1  0.1030140E-001  0.2063039E+03  0.7818608E-02  0.1144797E+00
         21   -1    0    0  503  502  0.00000000000E+00  0.00000000000E+00  0.10543025523E+04  0.10543025523E+04  0.00000000000E+00 0.  1.
         21   -1    0    0  501  503 -0.00000000000E+00 -0.00000000000E+00 -0.41358191765E+02  0.41358191765E+02  0.00000000000E+00 0.  1.
          6    2    1    2  501    0 -0.63703923637E+02  0.94512736405E+02  0.41288201842E+03  0.46155482621E+03  0.17196060374E+03 0.  0.
         24    2    3    3    0    0 -0.10035289500E+03  0.57705154184E+02  0.21436126331E+03  0.25629760851E+03  0.79606058591E+02 0.  0.
         -6    2    1    2    0  502  0.63703923637E+02 -0.94512736405E+02  0.60006234207E+03  0.63410591781E+03  0.17036623315E+03 0.  0.
        -24    2    5    5    0    0  0.82134752274E+02 -0.13081525634E+02  0.39389274389E+03  0.41162281565E+03  0.85817275820E+02 0.  0.
          5    1    3    3  501    0  0.36648971365E+02  0.36807582221E+02  0.19852075511E+03  0.20525721770E+03  0.47000000000E+01 0. -1.
        -13    1    4    4    0    0 -0.13338237853E+02  0.49814269482E+02  0.61810666391E+02  0.80498003160E+02  0.00000000000E+00 0.  1.
         14    1    4    4    0    0 -0.87014657150E+02  0.78908847018E+01  0.15255059692E+03  0.17579960535E+03  0.00000000000E+00 0. -1.
         -5    1    5    5    0  502 -0.18430828637E+02 -0.81431210771E+02  0.20616959818E+03  0.22248310216E+03  0.47000000000E+01 0.  1.
         11    1    6    6    0    0  0.72475327932E+01  0.94742080879E+01  0.22699978341E+03  0.22731297592E+03  0.00000000000E+00 0. -1.
        -12    1    6    6    0    0  0.74887219481E+02 -0.22555733722E+02  0.16689296048E+03  0.18430983974E+03  0.00000000000E+00 0.  1.
</event>
<event>
12    1  0.1030140E-001  0.1787379E+03  0.7818608E-02  0.1170653E+00
         21   -1    0    0  501  502  0.00000000000E+00  0.00000000000E+00  0.19903226455E+04  0.19903226455E+04  0.00000000000E+00 0. -1.
         21   -1    0    0  502  503 -0.00000000000E+00 -0.00000000000E+00 -0.33414143410E+02  0.33414143410E+02  0.00000000000E+00 0. -1.
         -6    2    1    2    0  503 -0.28943315416E+01 -0.45294858089E+02  0.24543905342E+03  0.30362402694E+03  0.17287920485E+03 0.  0.
        -24    2    3    3    0    0  0.62527872985E+01 -0.67107143847E+02  0.68755691134E+02  0.12530255852E+03  0.80193017176E+02 0.  0.
          6    2    1    2  501    0  0.28943315416E+01  0.45294858089E+02  0.17114694486E+04  0.17201127619E+04  0.16613319601E+03 0.  0.
         24    2    5    5    0    0 -0.62938451560E+01  0.82453675936E+02  0.15440772948E+04  0.15483355123E+04  0.79560951976E+02 0.  0.
          5    1    5    5  501    0  0.91881766975E+01 -0.37158817846E+02  0.16739215385E+03  0.17177724967E+03  0.47000000000E+01 0. -1.
        -11    1    6    6    0    0  0.10972460282E+02  0.10793362971E+02  0.47234010779E+02  0.49678399161E+02  0.00000000000E+00 0.  1.
         12    1    6    6    0    0 -0.17266305438E+02  0.71660312965E+02  0.14968432840E+04  0.14986571131E+04  0.00000000000E+00 0. -1.
         -5    1    3    3    0  503 -0.91471188400E+01  0.21812285757E+02  0.17668336228E+03  0.17832146843E+03  0.47000000000E+01 0.  1.
         11    1    4    4    0    0 -0.59763303602E+01  0.15109253130E+02 -0.17025144228E+01  0.16337215493E+02  0.00000000000E+00 0. -1.
        -12    1    4    4    0    0  0.12229117659E+02 -0.82216396976E+02  0.70458205557E+02  0.10896534303E+03  0.00000000000E+00 0.  1.
</event>
<event>
12    1  0.1030140E-001  0.2899602E+03  0.7818608E-02  0.1090388E+00
         21   -1    0    0  501  502  0.00000000000E+00  0.00000000000E+00  0.14148268432E+03  0.14148268432E+03  0.00000000000E+00 0. -1.
         21   -1    0    0  502  503 -0.00000000000E+00 -0.00000000000E+00 -0.96972551916E+03  0.96972551916E+03  0.00000000000E+00 0. -1.
         -6    2    1    2    0  503  0.11320059762E+03 -0.20373083713E+03 -0.76003724996E+03  0.81347006486E+03  0.17250013274E+03 0.  0.
        -24    2    3    3    0    0  0.79011120245E+02 -0.17462155784E+03 -0.39803786447E+03  0.44866612355E+03  0.78305193181E+02 0.  0.
          6    2    1    2  501    0 -0.11320059762E+03  0.20373083713E+03 -0.68205584888E+02  0.29773813862E+03  0.17226540013E+03 0.  0.
         24    2    5    5    0    0 -0.83553010061E+02  0.22107194462E+03 -0.51607009458E+02  0.25930252801E+03  0.93384192568E+02 0.  0.
          5    1    5    5  501    0 -0.29647587556E+02 -0.17341107486E+02 -0.16598575430E+02  0.38435610611E+02  0.47000000000E+01 0. -1.
        -11    1    6    6    0    0 -0.38784768976E+02  0.51967549351E+02 -0.53955404200E+02  0.84356802526E+02  0.00000000000E+00 0.  1.
         12    1    6    6    0    0 -0.44768241085E+02  0.16910439527E+03  0.23483947422E+01  0.17494572549E+03  0.00000000000E+00 0. -1.
         -5    1    3    3    0  503  0.34189477371E+02 -0.29109279288E+02 -0.36199938548E+03  0.36480394131E+03  0.47000000000E+01 0.  1.
         13    1    4    4    0    0  0.82542875121E+02 -0.13701165102E+03 -0.36488829767E+03  0.39840806785E+03  0.00000000000E+00 0. -1.
        -14    1    4    4    0    0 -0.35317548755E+01 -0.37609906819E+02 -0.33149566799E+02  0.50258055696E+02  0.00000000000E+00 0.  1.
</event>
<event>
12    1  0.1030140E-001  0.1909739E+03  0.7818608E-02  0.1158273E+00
         21   -1    0    0  503  502  0.00000000000E+00  0.00000000000E+00  0.74905518593E+02  0.74905518593E+02  0.00000000000E+00 0. -1.
         21   -1    0    0  501  503 -0.00000000000E+00 -0.00000000000E+00 -0.55415787310E+03  0.55415787310E+03  0.00000000000E+00 0. -1.
          6    2    1    2  501    0  0.67602487745E+02  0.36268373331E+02 -0.35365956462E+03  0.40049261876E+03  0.17156269636E+03 0.  0.
         24    2    3    3    0    0  0.10573179970E+03  0.12996541372E+02 -0.19551600990E+03  0.23609402846E+03  0.78522331814E+02 0.  0.
         -6    2    1    2    0  502 -0.67602487745E+02 -0.36268373331E+02 -0.12559278989E+03  0.22857077293E+03  0.17488727259E+03 0.  0.
        -24    2    5    5    0    0  0.43734657564E+01 -0.20347471861E+02 -0.18609232721E+01  0.84467761850E+02  0.81842488614E+02 0.  0.
          5    1    3    3  501    0 -0.38129311956E+02  0.23271831959E+02 -0.15814355472E+03  0.16439859030E+03  0.47000000000E+01 0. -1.
        -11    1    4    4    0    0  0.50766159418E+02  0.12487956418E+02 -0.27000886283E+02  0.58840461059E+02  0.00000000000E+00 0.  1.
         12    1    4    4    0    0  0.54965640283E+02  0.50858495400E+00 -0.16851512361E+03  0.17725356740E+03  0.00000000000E+00 0. -1.
         -5    1    5    5    0  502 -0.71975953502E+02 -0.15920901470E+02 -0.12373186662E+03  0.14410301108E+03  0.47000000000E+01 0.  1.
         11    1    6    6    0    0 -0.18054540086E+02 -0.41545358847E+02  0.16904000847E+02  0.48350062090E+02  0.00000000000E+00 0. -1.
        -12    1    6    6    0    0  0.22428005842E+02  0.21197886986E+02 -0.18764924119E+02  0.36117699760E+02  0.00000000000E+00 0.  1.
</event>
<event>
12    1  0.1030140E-001  0.2016172E+03  0.7818608E-02  0.1148775E+00
         21   -1    0    0  503  502  0.00000000000E+00  0.00000000000E+00  0.74322603704E+02  0.74322603704E+02  0.00000000000E+00 0.  1.
         21   -1    0    0  501  503 -0.00000000000E+00 -0.00000000000E+00 -0.55396752550E+03  0.55396752550E+03  0.00000000000E+00 0. -1.
          6    2    1    2  501    0 -0.95742550924E+02 -0.40358951937E+02 -0.28736933139E+03  0.35104220132E+03  0.17278313986E+03 0.  0.
         24    2    3    3    0    0 -0.90496883843E+02  0.34929399789E+02 -0.18638748706E+03  0.22488644118E+03  0.80149030829E+02 0.  0.
         -6    2    1    2    0  502  0.95742550924E+02  0.40358951937E+02 -0.19227559041E+03  0.27724792789E+03  0.17059023945E+03 0.  0.
        -24    2    5    5    0    0  0.38662154411E+02 -0.39921015229E+02 -0.67766161474E+02  0.11841552349E+03  0.79633748637E+02 0.  0.
          5    1    3    3  501    0 -0.52456670807E+01 -0.75288351726E+02 -0.10098184434E+03  0.12615576013E+03  0.47000000000E+01 0. -1.
        -13    1    4    4    0    0 -0.19700675901E+01 -0.14580808267E+02 -0.25631162624E+01  0.14934882021E+02  0.00000000000E+00 0.  1.
         14    1    4    4    0    0 -0.88526816253E+02  0.49510208056E+02 -0.18382437079E+03  0.20995155916E+03  0.00000000000E+00 0. -1.
         -5    1    5    5    0  502  0.57080396513E+02  0.80279967166E+02 -0.12450942893E+03  0.15883240440E+03  0.47000000000E+01 0.  1.
         11    1    6    6    0    0  0.57537691856E+02 -0.55216550128E+01 -0.38176517919E+02  0.69271359006E+02  0.00000000000E+00 0. -1.
        -12    1    6    6    0    0 -0.18875537445E+02 -0.34399360216E+02 -0.29589643555E+02  0.49144164484E+02  0.00000000000E+00 0.  1.
</event>
<event>
12    1  0.1030140E-001  0.1793691E+03  0.7818608E-02  0.1169851E+00
         21   -1    0    0  503  502  0.00000000000E+00  0.00000000000E+00  0.37101841309E+03  0.37101841309E+03  0.00000000000E+00 0.  1.
         21   -1    0    0  501  503 -0.00000000000E+00 -0.00000000000E+00 -0.15654818344E+03  0.15654818344E+03  0.00000000000E+00 0.  1.
          6    2    1    2  501    0 -0.25307561688E+02  0.26327706705E+01 -0.73353259414E+02  0.18842702662E+03  0.17168762196E+03 0.  0.
         24    2    3    3    0    0 -0.30019821436E+02  0.50377545480E+02 -0.91520058799E+02  0.13691109206E+03  0.83244454464E+02 0.  0.
         -6    2    1    2    0  502  0.25307561688E+02 -0.26327706705E+01  0.28782348906E+03  0.33913956991E+03  0.17755529523E+03 0.  0.
        -24    2    5    5    0    0 -0.72658615118E+01  0.58661935046E+02  0.22262502316E+03  0.24379284053E+03  0.79868847421E+02 0.  0.
          5    1    3    3  501    0  0.47122597483E+01 -0.47744774809E+02  0.18166799385E+02  0.51515934558E+02  0.47000000000E+01 0. -1.
        -13    1    4    4    0    0  0.18162489363E+02 -0.12612941119E+02 -0.25233317029E+02  0.33551193597E+02  0.00000000000E+00 0.  1.
         14    1    4    4    0    0 -0.48182310799E+02  0.62990486598E+02 -0.66286741770E+02  0.10335989846E+03  0.00000000000E+00 0. -1.
         -5    1    5    5    0  502  0.32573423199E+02 -0.61294705717E+02  0.65198465897E+02  0.95346729378E+02  0.47000000000E+01 0.  1.
         11    1    6    6    0    0 -0.31667631315E+02 -0.41653608204E+01  0.69140613971E+02  0.76161759461E+02  0.00000000000E+00 0. -1.
        -12    1    6    6    0    0  0.24401769803E+02  0.62827295867E+02  0.15348440919E+03  0.16763108107E+03  0.00000000000E+00 0.  1.
</event>
<event>
12    1  0.1030140E-001  0.1880735E+03  0.7818608E-02  0.1160274E+00
         21   -1    0    0  501  502  0.00000000000E+00  0.00000000000E+00  0.15413953816E+03  0.15413953816E+03  0.00000000000E+00 0.  1.
         21   -1    0    0  502  503 -0.00000000000E+00 -0.00000000000E+00 -0.32249797553E+03  0.32249797553E+03  0.00000000000E+00 0.  1.
         -6    2    1    2    0  503  0.13131803602E+02 -0.73933164954E+02  0.44002616272E+02  0.19315240952E+03  0.17243278667E+03 0.  0.
        -24    2    3    3    0    0 -0.14740556296E+02 -0.92160598180E+02  0.77701925462E+02  0.14554105365E+03  0.80210655277E+02 0.  0.
          6    2    1    2  501    0 -0.13131803602E+02  0.73933164954E+02 -0.21236105364E+03  0.28348510416E+03  0.17212794669E+03 0.  0.
         24    2    5    5    0    0  0.35132093035E+02  0.57968686243E+02 -0.55794141055E+02  0.11880494016E+03  0.80043707339E+02 0.  0.
          5    1    5    5  501    0 -0.48263896637E+02  0.15964478711E+02 -0.15656691258E+03  0.16468016400E+03  0.47000000000E+01 0. -1.
        -13    1    6    6    0    0  0.46644318045E+01  0.61463320545E+02 -0.81957540836E+01  0.62182530356E+02  0.00000000000E+00 0.  1.
         14    1    6    6    0    0  0.30467661231E+02 -0.34946343020E+01 -0.47598386971E+02  0.56622409804E+02  0.00000000000E+00 0. -1.
         -5    1    3    3    0  503  0.27872359898E+02  0.18227433226E+02 -0.33699309190E+02  0.47611355875E+02  0.47000000000E+01 0.  1.
         13    1    4    4    0    0 -0.32763035349E+02 -0.92979616316E+02  0.45382955633E+02  0.10852759187E+03  0.00000000000E+00 0. -1.
        -14    1    4    4    0    0  0.18022479052E+02  0.81901813653E+00  0.32318969830E+02  0.37013461777E+02  0.00000000000E+00 0.  1.
</event>
<event>
12    1  0.1030140E-001  0.1983748E+03  0.7818608E-02  0.1151673E+00
         21   -1    0    0  501  502  0.00000000000E+00  0.00000000000E+00  0.52330331539E+03  0.52330331539E+03  0.00000000000E+00 0. -1.
         21   -1    0    0  502  503 -0.00000000000E+00 -0.00000000000E+00 -0.86715859865E+02  0.86715859865E+02  0.00000000000E+00 0. -1.
         -6    2    1    2    0  503  0.84632148301E+02 -0.40646573145E+02  0.33283677567E+03  0.38615141770E+03  0.17180760669E+03 0.  0.
        -24    2    3    3    0    0  0.20197035106E+02 -0.63066361673E+02  0.10066014826E+03  0.14411297644E+03  0.79061990418E+02 0.  0.
          6    2    1    2  501    0 -0.84632148301E+02  0.40646573145E+02  0.10375067985E+03  0.22386775755E+03  0.17475075069E+03 0.  0.
         24    2    5    5    0    0 -0.24416902100E+02  0.27603305098E+02  0.12996983749E+03  0.15674446097E+03  0.79489243474E+02 0.  0.
          5    1    5    5  501    0 -0.60215246200E+02  0.13043268046E+02 -0.26219157641E+02  0.67123296579E+02  0.47000000000E+01 0. -1.
        -13    1    6    6    0    0  0.87377592790E+01 -0.66282597557E+01  0.99671427107E+02  0.10027300557E+03  0.00000000000E+00 0.  1.
         14    1    6    6    0    0 -0.33154661379E+02  0.34231564854E+02  0.30298410381E+02  0.56471455401E+02  0.00000000000E+00 0. -1.
         -5    1    3    3    0  503  0.64435113194E+02  0.22419788529E+02  0.23217662741E+03  0.24203844126E+03  0.47000000000E+01 0.  1.
         11    1    4    4    0    0  0.17867433763E+02 -0.40588799497E+02  0.11079918594E+03  0.11934469170E+03  0.00000000000E+00 0. -1.
        -12    1    4    4    0    0  0.23296013436E+01 -0.22477562177E+02 -0.10139037675E+02  0.24768284737E+02  0.00000000000E+00 0.  1.
</event>
<event>
12    1  0.1030140E-001  0.2048820E+03  0.7818608E-02  0.1145700E+00
         21   -1    0    0  501  502  0.00000000000E+00  0.00000000000E+00  0.55086102998E+03  0.55086102998E+03  0.00000000000E+00 0. -1.
         21   -1    0    0  502  503 -0.00000000000E+00 -0.00000000000E+00 -0.11034997492E+03  0.11034997492E+03  0.00000000000E+00 0. -1.
         -6    2    1    2    0  503  0.65551960682E+02 -0.87360862792E+02  0.36296140460E+02  0.20807217662E+03  0.17334255385E+03 0.  0.
        -24    2    3    3    0    0  0.11193306968E+03 -0.57895384328E+02  0.28621329223E+02  0.15239081151E+03  0.80764418727E+02 0.  0.
          6    2    1    2  501    0 -0.65551960682E+02  0.87360862792E+02  0.40421491460E+03  0.45313882827E+03  0.17325161068E+03 0.  0.
         24    2    5    5    0    0 -0.86377385122E+02  0.86618664786E+02  0.40633413647E+03  0.43167187082E+03  0.79179087174E+02 0.  0.
          5    1    5    5  501    0  0.20825424440E+02  0.74219800631E+00 -0.21192218674E+01  0.21466957453E+02  0.47000000000E+01 0. -1.
        -13    1    6    6    0    0 -0.13525711010E+02  0.69135800762E+02  0.21187836635E+03  0.22328265927E+03  0.00000000000E+00 0.  1.
         14    1    6    6    0    0 -0.72851674111E+02  0.17482864024E+02  0.19445577012E+03  0.20838921154E+03  0.00000000000E+00 0. -1.
         -5    1    3    3    0  503 -0.46381108998E+02 -0.29465478464E+02  0.76748112362E+01  0.55681365110E+02  0.47000000000E+01 0.  1.
         13    1    4    4    0    0  0.84425706791E+02 -0.16366196743E+01  0.23341921218E+01  0.84473824016E+02  0.00000000000E+00 0. -1.
        -14    1    4    4    0    0  0.27507362889E+02 -0.56258764654E+02  0.26287137102E+02  0.67916987495E+02  0.00000000000E+00 0.  1.
</event>
<event>
12    1  0.1030140E-001  0.1804520E+03  0.7818608E-02  0.1167568E+00
         21   -1    0    0  501  502  0.00000000000E+00  0.00000000000E+00  0.22449839353E+02  0.22449839353E+02  0.00000000000E+00 0. -1.
         21   -1    0    0  502  503 -0.00000000000E+00 -0.00000000000E+00 -0.16954710041E+04  0.16954710041E+04  0.00000000000E+00 0. -1.
         -6    2    1    2    0  503 -0.18074257280E+02  0.51570675618E+02 -0.11658123432E+04  0.11795680742E+04  0.17110291862E+03 0.  0.
        -24    2    3    3    0    0 -0.33994034372E+02  0.23422428022E+01 -0.10382943833E+04  0.10418734919E+04  0.79272102518E+02 0.  0.
          6    2    1    2  501    0  0.18074257280E+02 -0.51570675618E+02 -0.50720882162E+03  0.53835276933E+03  0.17197878401E+03 0.  0.
         24    2    5    5    0    0  0.26760387435E+02 -0.28215478425E+02 -0.11292994401E+03  0.14325931529E+03  0.79106432130E+02 0.  0.
          5    1    5    5  501    0 -0.86861301557E+01 -0.23355197193E+02 -0.39427887761E+03  0.39509345404E+03  0.47000000000E+01 0. -1.
        -13    1    6    6    0    0  0.12720551595E+02 -0.25747762235E+02 -0.12267494106E+03  0.12599166979E+03  0.00000000000E+00 0.  1.
         14    1    6    6    0    0  0.14039835841E+02 -0.24677161907E+01  0.97449970467E+01  0.17267645499E+02  0.00000000000E+00 0. -1.
         -5    1    3    3    0  503  0.15919777092E+02  0.49228432816E+02 -0.12751795986E+03  0.13769458228E+03  0.47000000000E+01 0.  1.
         13    1    4    4    0    0  0.16225253055E+02 -0.22523547153E+02 -0.47124078152E+03  0.47205766934E+03  0.00000000000E+00 0. -1.
        -14    1    4    4    0    0 -0.50219287427E+02  0.24865789955E+02 -0.56705360177E+03  0.56981582255E+03  0.00000000000E+00 0.  1.
</event>
<event>
12    1  0.1030140E-001  0.2009775E+03  0.7818608E-02  0.1148994E+00
         21   -1    0    0  503  502  0.00000000000E+00  0.00000000000E+00  0.16666513316E+03  0.16666513316E+03  0.00000000000E+00 0.  1.
         21   -1    0    0  501  503 -0.00000000000E+00 -0.00000000000E+00 -0.38188250073E+03  0.38188250073E+03  0.00000000000E+00 0.  1.
          6    2    1    2  501    0 -0.49836083121E+02  0.91292543410E+02 -0.27372168791E+03  0.33958137867E+03  0.17197088894E+03 0.  0.
         24    2    3    3    0    0 -0.18787583161E+02  0.44132430318E+02 -0.26984999499E+03  0.28279083700E+03  0.69649070436E+02 0.  0.
         -6    2    1    2    0  502  0.49836083121E+02 -0.91292543410E+02  0.58504320348E+02  0.20896625522E+03  0.17154059769E+03 0.  0.
        -24    2    5    5    0    0  0.87114401189E+02 -0.95791818338E+02  0.16450803733E+02  0.15239325165E+03  0.78664368364E+02 0.  0.
          5    1    3    3  501    0 -0.31048499960E+02  0.47160113092E+02 -0.38716929291E+01  0.56790541667E+02  0.47000000000E+01 0. -1.
        -11    1    4    4    0    0  0.25690926827E+02  0.25943531244E+02 -0.11746818936E+03  0.12301165005E+03  0.00000000000E+00 0.  1.
         12    1    4    4    0    0 -0.44478509988E+02  0.18188899074E+02 -0.15238180562E+03  0.15977918696E+03  0.00000000000E+00 0. -1.
         -5    1    5    5    0  502 -0.37278318068E+02  0.44992749283E+01  0.42053516615E+02  0.56573003566E+02  0.47000000000E+01 0.  1.
         11    1    6    6    0    0  0.16553659781E+02 -0.37911008128E+01 -0.24170113819E+02  0.29539642847E+02  0.00000000000E+00 0. -1.
        -12    1    6    6    0    0  0.70560741408E+02 -0.92000717526E+02  0.40620917552E+02  0.12285360880E+03  0.00000000000E+00 0.  1.
</event>
<event>
12    1  0.1030140E-001  0.1804836E+03  0.7818608E-02  0.1169117E+00
         21   -1    0    0  501  502  0.00000000000E+00  0.00000000000E+00  0.10364929814E+04  0.10364929814E+04  0.00000000000E+00 0.  1.
         21   -1    0    0  502  503 -0.00000000000E+00 -0.00000000000E+00 -0.35776956588E+02  0.35776956588E+02  0.00000000000E+00 0.  1.
         -6    2    1    2    0  503 -0.48252103305E+02  0.68467303904E+01  0.27975429109E+03  0.32906058740E+03  0.16626263442E+03 0.  0.
        -24    2    3    3    0    0  0.11162832604E+02 -0.29264186071E+02  0.22334735802E+03  0.23940588872E+03  0.80312737481E+02 0.  0.
          6    2    1    2  501    0  0.48252103305E+02 -0.68467303904E+01  0.72096173375E+03  0.74320935061E+03  0.17377909576E+03 0.  0.
         24    2    5    5    0    0  0.99549539680E+02 -0.22208006068E+01  0.53207921257E+03  0.54737390180E+03  0.81208725641E+02 0.  0.
          5    1    5    5  501    0 -0.51297436375E+02 -0.46259297836E+01  0.18888252118E+03  0.19583544882E+03  0.47000000000E+01 0. -1.
        -13    1    6    6    0    0  0.43205093858E+02 -0.10405462454E+02  0.41299023349E+03  0.41537439346E+03  0.00000000000E+00 0.  1.
         14    1    6    6    0    0  0.56344445822E+02  0.81846618469E+01  0.11908897908E+03  0.13199950834E+03  0.00000000000E+00 0. -1.
         -5    1    3    3    0  503 -0.59414935909E+02  0.36110916461E+02  0.56406933073E+02  0.89654698680E+02  0.47000000000E+01 0.  1.
         11    1    4    4    0    0 -0.34459722673E+02 -0.61643524343E+01  0.86403844020E+02  0.93226047803E+02  0.00000000000E+00 0. -1.
        -12    1    4    4    0    0  0.45622555277E+02 -0.23099833637E+02  0.13694351400E+03  0.14617984092E+03  0.00000000000E+00 0.  1.
</event>
<event>
12    1  0.1030140E-001  0.2510880E+03  0.7818608E-02  0.1112666E+00
         21   -1    0    0  503  502  0.00000000000E+00  0.00000000000E+00  0.11952999478E+04  0.11952999478E+04  0.00000000000E+00 0.  1.
         21   -1    0    0  501  503 -0.00000000000E+00 -0.00000000000E+00 -0.81632751003E+02  0.81632751003E+02  0.00000000000E+00 0.  1.
          6    2    1    2  501    0 -0.21172962761E+02  0.18111360970E+03  0.93684255337E+03  0.96982989497E+03  0.17217903879E+03 0.  0.
         24    2    3    3    0    0  0.17047947674E+02  0.18894419421E+03  0.85284683252E+03  0.87709625938E+03  0.77198364179E+02 0.  0.
         -6    2    1    2    0  502  0.21172962761E+02 -0.18111360970E+03  0.17682464338E+03  0.30710280379E+03  0.17261153964E+03 0.  0.
        -24    2    5    5    0    0 -0.51591298018E+02 -0.98036527370E+02  0.12689970249E+03  0.18581377304E+03  0.78424492551E+02 0.  0.
          5    1    3    3  501    0 -0.38220910436E+02 -0.78305845124E+01  0.83995720851E+02  0.92733635590E+02  0.47000000000E+01 0. -1.
        -11    1    4    4    0    0  0.40744347940E+02  0.85283293376E+02  0.31655218310E+03  0.33036135767E+03  0.00000000000E+00 0.  1.
         12    1    4    4    0    0 -0.23696400266E+02  0.10366090084E+03  0.53629464942E+03  0.54673490171E+03  0.00000000000E+00 0. -1.
         -5    1    5    5    0  502  0.72764260779E+02 -0.83077082332E+02  0.49924940895E+02  0.12128903074E+03  0.47000000000E+01 0.  1.
         11    1    6    6    0    0 -0.24451758822E+02 -0.99435497344E+02  0.12004890554E+03  0.15778797915E+03  0.00000000000E+00 0. -1.
        -12    1    6    6    0    0 -0.27139539196E+02  0.13989699740E+01  0.68507969432E+01  0.28025793896E+02  0.00000000000E+00 0.  1.
</event>
<event>
12    1  0.1030140E-001  0.2008026E+03  0.7818608E-02  0.1150296E+00
         21   -1    0    0  501  502  0.00000000000E+00  0.00000000000E+00  0.49247817963E+02  0.49247817963E+02  0.00000000000E+00 0.  1.
         21   -1    0    0  502  503 -0.00000000000E+00 -0.00000000000E+00 -0.79756730367E+03  0.79756730367E+03  0.00000000000E+00 0.  1.
         -6    2    1    2    0  503  0.62804615796E+02  0.76083209870E+02 -0.40199846735E+03  0.44936002974E+03  0.17489595189E+03 0.  0.
        -24    2    3    3    0    0 -0.22343397084E+02  0.58619086620E+02 -0.94106528330E+02  0.12939953872E+03  0.62871116086E+02 0.  0.
          6    2    1    2  501    0 -0.62804615796E+02 -0.76083209870E+02 -0.34632101836E+03  0.39745509190E+03  0.16822374305E+03 0.  0.
         24    2    5    5    0    0 -0.94372769874E+02 -0.62000651934E+02 -0.33327247593E+03  0.36020967272E+03  0.77007561804E+02 0.  0.
          5    1    5    5  501    0  0.31568154078E+02 -0.14082557935E+02 -0.13048542429E+02  0.37245419174E+02  0.47000000000E+01 0. -1.
        -13    1    6    6    0    0 -0.79724787673E+02 -0.12068068590E+02 -0.24281004092E+03  0.25584838484E+03  0.00000000000E+00 0.  1.
         14    1    6    6    0    0 -0.14647982201E+02 -0.49932583344E+02 -0.90462435007E+02  0.10436128789E+03  0.00000000000E+00 0. -1.
         -5    1    3    3    0  503  0.85148012881E+02  0.17464123250E+02 -0.30789193902E+03  0.31996049102E+03  0.47000000000E+01 0.  1.
         11    1    4    4    0    0 -0.28610731745E+02  0.61348328310E+02 -0.99740007002E+02  0.12054152958E+03  0.00000000000E+00 0. -1.
        -12    1    4    4    0    0  0.62673346607E+01 -0.27292416903E+01  0.56334786727E+01  0.88580091391E+01  0.00000000000E+00 0.  1.
</event>
<event>
12    1  0.1030140E-001  0.1893835E+03  0.7818608E-02  0.1159288E+00
         21   -1    0    0  503  502  0.00000000000E+00  0.00000000000E+00  0.20117245905E+03  0.20117245905E+03  0.00000000000E+00 0.  1.
         21   -1    0    0  501  503 -0.00000000000E+00 -0.00000000000E+00 -0.26340160676E+03  0.26340160676E+03  0.00000000000E+00 0. -1.
          6    2    1    2  501    0  0.41014873153E+02  0.65336116233E+02  0.10185834650E+03  0.21399310389E+03  0.17165924926E+03 0.  0.
         24    2    3    3    0    0 -0.81249122261E+01  0.83152205495E+01  0.11211441799E+03  0.13787886045E+03  0.79408943756E+02 0.  0.
         -6    2    1    2    0  502 -0.41014873153E+02 -0.65336116233E+02 -0.16408749420E+03  0.25058096192E+03  0.17295977803E+03 0.  0.
        -24    2    5    5    0    0 -0.65084663171E+02 -0.95084652433E+02 -0.15793834545E+03  0.21153954509E+03  0.80792039616E+02 0.  0.
          5    1    3    3  501    0  0.49139785379E+02  0.57020895683E+02 -0.10256071486E+02  0.76114243437E+02  0.47000000000E+01 0. -1.
        -13    1    4    4    0    0 -0.23801550453E+01  0.27684758407E+02  0.11423356654E+03  0.11756452998E+03  0.00000000000E+00 0.  1.
         14    1    4    4    0    0 -0.57447571809E+01 -0.19369537858E+02 -0.21191485530E+01  0.20314330471E+02  0.00000000000E+00 0. -1.
         -5    1    5    5    0  502  0.24069790018E+02  0.29748536200E+02 -0.61491487539E+01  0.39041416828E+02  0.47000000000E+01 0.  1.
         13    1    6    6    0    0 -0.36596931514E+02 -0.81053237842E+02 -0.15619212775E+03  0.17973576031E+03  0.00000000000E+00 0. -1.
        -14    1    6    6    0    0 -0.28487731657E+02 -0.14031414591E+02 -0.17462176972E+01  0.31803784784E+02  0.00000000000E+00 0.  1.
</event>
<event>
12    1  0.1030140E-001  0.2004231E+03  0.7818608E-02  0.1149566E+00
         21   -1    0    0  501  502  0.00000000000E+00  0.00000000000E+00  0.27794334548E+03  0.27794334548E+03  0.00000000000E+00 0.  1.
         21   -1    0    0  502  503 -0.00000000000E+00 -0.00000000000E+00 -0.18537214808E+03  0.18537214808E+03  0.00000000000E+00 0.  1.
         -6    2    1    2    0  503  0.92762119526E+02  0.42610610721E+02  0.15593805269E+03  0.25394111118E+03  0.17247880074E+03 0.  0.
        -24    2    3    3    0    0  0.12354083593E+03  0.54330561139E+01  0.13989101440E+03  0.20286178671E+03  0.79319306330E+02 0.  0.
          6    2    1    2  501    0 -0.92762119526E+02 -0.42610610721E+02 -0.63366855295E+02  0.20937438238E+03  0.17146952698E+03 0.  0.
         24    2    5    5    0    0 -0.48283702957E+02 -0.43097898655E+02  0.36239780246E+02  0.10018583521E+03  0.67343411439E+02 0.  0.
          5    1    5    5  501    0 -0.44478416570E+02  0.48728793467E+00 -0.99606635542E+02  0.10918854717E+03  0.47000000000E+01 0. -1.
        -11    1    6    6    0    0 -0.20410914973E+01  0.13134039092E+02 -0.74914158579E+01  0.15257468627E+02  0.00000000000E+00 0.  1.
         12    1    6    6    0    0 -0.46242611459E+02 -0.56231937747E+02  0.43731196104E+02  0.84928366581E+02  0.00000000000E+00 0. -1.
         -5    1    3    3    0  503 -0.30778716403E+02  0.37177554607E+02  0.16047038289E+02  0.51079324465E+02  0.47000000000E+01 0.  1.
         13    1    4    4    0    0  0.48844511557E+02  0.38107894713E+02  0.39243007169E+02  0.73334927288E+02  0.00000000000E+00 0. -1.
        -14    1    4    4    0    0  0.74696324372E+02 -0.32674838599E+02  0.10064800723E+03  0.12952685942E+03  0.00000000000E+00 0.  1.
</event>
<event>
12    1  0.1030140E-001  0.2866218E+03  0.7818608E-02  0.1092172E+00
         21   -1    0    0  501  502  0.00000000000E+00  0.00000000000E+00  0.30929643943E+03  0.30929643943E+03  0.00000000000E+00 0.  1.
         21   -1    0    0  502  503 -0.00000000000E+00 -0.00000000000E+00 -0.33832173599E+03  0.33832173599E+03  0.00000000000E+00 0. -1.
         -6    2    1    2    0  503  0.18516938800E+03  0.13612777086E+03  0.13592896571E+03  0.31722037265E+03  0.17127057207E+03 0.  0.
        -24    2    3    3    0    0  0.67291639804E+02  0.13043022059E+03  0.64767199972E+02  0.17933015363E+03  0.80151772149E+02 0.  0.
          6    2    1    2  501    0 -0.18516938800E+03 -0.13612777086E+03 -0.16495426227E+03  0.33039780277E+03  0.17068780621E+03 0.  0.
         24    2    5    5    0    0 -0.12168187961E+03 -0.17213351163E+02 -0.52380862419E+02  0.15471011599E+03  0.78030032428E+02 0.  0.
          5    1    5    5  501    0 -0.63487508390E+02 -0.11891441969E+03 -0.11257339985E+03  0.17568768678E+03  0.47000000000E+01 0. -1.
        -13    1    6    6    0    0 -0.23923820699E+02  0.28811498516E+02 -0.11352640733E+02  0.39132264121E+02  0.00000000000E+00 0.  1.
         14    1    6    6    0    0 -0.97758058906E+02 -0.46024849679E+02 -0.41028221686E+02  0.11557785187E+03  0.00000000000E+00 0. -1.
         -5    1    3    3    0  503  0.11787774819E+03  0.56975502666E+01  0.71161765735E+02  0.13789021902E+03  0.47000000000E+01 0.  1.
         13    1    4    4    0    0  0.64800972169E+02  0.62881795349E+02  0.72670784796E+01  0.90587508024E+02  0.00000000000E+00 0. -1.
        -14    1    4    4    0    0  0.24906676351E+01  0.67548425242E+02  0.57500121492E+02  0.88742645608E+02  0.00000000000E+00 0.  1.
</event>
<event>
12    1  0.1030140E-001  0.2294176E+03  0.7818608E-02  0.1127591E+00
         21   -1    0    0  501  502  0.00000000000E+00  0.00000000000E+00  0.15783969081E+04  0.15783969081E+04  0.00000000000E+00 0. -1.
         21   -1    0    0  502  503 -0.00000000000E+00 -0.00000000000E+00 -0.33182772603E+02  0.33182772603E+02  0.00000000000E+00 0.  1.
         -6    2    1    2    0  503 -0.14929512008E+03 -0.26867027957E+01  0.70403054278E+03  0.74046705120E+03  0.17417289539E+03 0.  0.
        -24    2    3    3    0    0 -0.17537466427E+03  0.12400647303E+02  0.65244648247E+03  0.68054396686E+03  0.80892703135E+02 0.  0.
          6    2    1    2  501    0  0.14929512008E+03  0.26867027957E+01  0.84118359275E+03  0.87111262954E+03  0.17015030232E+03 0.  0.
         24    2    5    5    0    0  0.69098719367E+02 -0.48300378980E+02  0.60552929402E+03  0.61697451019E+03  0.82971444995E+02 0.  0.
          5    1    5    5  501    0  0.80196400710E+02  0.50987081776E+02  0.23565429873E+03  0.25413811935E+03  0.47000000000E+01 0. -1.
        -13    1    6    6    0    0  0.47274546494E+02  0.97273830092E+01  0.15906242515E+03  0.16622382447E+03  0.00000000000E+00 0.  1.
         14    1    6    6    0    0  0.21824172874E+02 -0.58027761989E+02  0.44646686887E+03  0.45075068572E+03  0.00000000000E+00 0. -1.
         -5    1    3    3    0  503  0.26079544193E+02 -0.15087350099E+02  0.51584060313E+02  0.59923084339E+02  0.47000000000E+01 0.  1.
         11    1    4    4    0    0 -0.17452303837E+02 -0.84486237551E+01  0.19879893570E+03  0.19974228142E+03  0.00000000000E+00 0. -1.
        -12    1    4    4    0    0 -0.15792236043E+03  0.20849271058E+02  0.45364754677E+03  0.48080168544E+03  0.00000000000E+00 0.  1.
</event>
<event>
12    1  0.1030140E-001  0.1789375E+03  0.7818608E-02  0.1169542E+00
         21   -1    0    0  503  502  0.00000000000E+00  0.00000000000E+00  0.22968871380E+02  0.22968871380E+02  0.00000000000E+00 0.  1.
         21   -1    0    0  501  503 -0.00000000000E+00 -0.00000000000E+00 -0.18757981092E+04  0.18757981092E+04  0.00000000000E+00 0.  1.
          6    2    1    2  501    0 -0.47437529639E+02  0.14477322815E+02 -0.14130748416E+04  0.14240011829E+04  0.16893474769E+03 0.  0.
         24    2    3    3    0    0 -0.63569151993E+02 -0.33575817347E+02 -0.89019884981E+03  0.89865298765E+03  0.99773881348E+02 0.  0.
         -6    2    1    2    0  502  0.47437529639E+02 -0.14477322815E+02 -0.43975439622E+03  0.47476579764E+03  0.17192650033E+03 0.  0.
        -24    2    5    5    0    0  0.11894769044E+02  0.28653805141E+01 -0.79465125009E+02  0.11228199642E+03  0.78376301854E+02 0.  0.
          5    1    3    3  501    0  0.16131622354E+02  0.48053140162E+02 -0.52287599177E+03  0.52534819528E+03  0.47000000000E+01 0. -1.
        -11    1    4    4    0    0 -0.49712691352E+02  0.10354233824E+02 -0.73526784499E+03  0.73701924378E+03  0.00000000000E+00 0.  1.
         12    1    4    4    0    0 -0.13856460642E+02 -0.43930051171E+02 -0.15493100483E+03  0.16163374386E+03  0.00000000000E+00 0. -1.
         -5    1    5    5    0  502  0.35542760595E+02 -0.17342703329E+02 -0.36028927122E+03  0.36248380121E+03  0.47000000000E+01 0.  1.
         11    1    6    6    0    0 -0.24751168612E+01 -0.72096655296E+01 -0.90975422669E+02  0.91294211264E+02  0.00000000000E+00 0. -1.
        -12    1    6    6    0    0  0.14369885905E+02  0.10075046044E+02  0.11510297660E+02  0.20987785160E+02  0.00000000000E+00 0.  1.
</event>
<event>
12    1  0.1030140E-001  0.1783300E+03  0.7818608E-02  0.1169716E+00
         21   -1    0    0  503  502  0.00000000000E+00  0.00000000000E+00  0.31014181689E+03  0.31014181689E+03  0.00000000000E+00 0.  1.
         21   -1    0    0  501  503 -0.00000000000E+00 -0.00000000000E+00 -0.10288464136E+03  0.10288464136E+03  0.00000000000E+00 0.  1.
          6    2    1    2  501    0  0.35395844373E+02  0.18516410233E+02  0.83450010788E+02  0.19688950396E+03  0.17379830041E+03 0.  0.
         24    2    3    3    0    0  0.39288304449E+02 -0.47617322272E+02  0.77548526079E+02  0.13021312627E+03  0.84443496551E+02 0.  0.
         -6    2    1    2    0  502 -0.35395844373E+02 -0.18516410233E+02  0.12380716474E+03  0.21613695429E+03  0.17260140707E+03 0.  0.
        -24    2    5    5    0    0 -0.50445626854E+02 -0.64477536624E+02  0.12391336130E+03  0.16754660165E+03  0.77557904937E+02 0.  0.
          5    1    3    3  501    0 -0.38924600753E+01  0.66133732505E+02  0.59014847083E+01  0.66676377692E+02  0.47000000000E+01 0. -1.
        -11    1    4    4    0    0 -0.15235644025E+02 -0.13433496930E+00 -0.87974997785E+01  0.17593717546E+02  0.00000000000E+00 0.  1.
         12    1    4    4    0    0  0.54523948474E+02 -0.47482987302E+02  0.86346025858E+02  0.11261940873E+03  0.00000000000E+00 0. -1.
         -5    1    5    5    0  502  0.15049782480E+02  0.45961126391E+02 -0.10619656156E+00  0.48590352639E+02  0.47000000000E+01 0.  1.
         11    1    6    6    0    0 -0.27102598794E+02 -0.99701141504E+00  0.86532557876E+00  0.27134732015E+02  0.00000000000E+00 0. -1.
        -12    1    6    6    0    0 -0.23343028060E+02 -0.63480525209E+02  0.12304803572E+03  0.14041186964E+03  0.00000000000E+00 0.  1.
</event>
<event>
12    1  0.1030140E-001  0.1788324E+03  0.7818608E-02  0.1169195E+00
         21   -1    0    0  501  502  0.00000000000E+00  0.00000000000E+00  0.71057994092E+03  0.71057994092E+03  0.00000000000E+00 0.  1.
         21   -1    0    0  502  503 -0.00000000000E+00 -0.00000000000E+00 -0.59929979812E+02  0.59929979812E+02  0.00000000000E+00 0.  1.
         -6    2    1    2    0  503  0.39038200984E+02 -0.24723969801E+02  0.13067492860E+03  0.22064170530E+03  0.17167285555E+03 0.  0.
        -24    2    3    3    0    0 -0.11077079601E+01  0.41479248542E+02  0.10401674584E+03  0.13862153197E+03  0.81698779885E+02 0.  0.
          6    2    1    2  501    0 -0.39038200984E+02  0.24723969801E+02  0.51997503251E+03  0.54986821544E+03  0.17275926631E+03 0.  0.
         24    2    5    5    0    0  0.42245148584E+02  0.19936027656E+02  0.20450073000E+03  0.22402157536E+03  0.78632180929E+02 0.  0.
          5    1    5    5  501    0 -0.81283349567E+02  0.47879421443E+01  0.31547430250E+03  0.32584664007E+03  0.47000000000E+01 0. -1.
        -11    1    6    6    0    0  0.40522430775E+02  0.19320725858E+02  0.21179545668E+03  0.21650097763E+03  0.00000000000E+00 0.  1.
         12    1    6    6    0    0  0.17227178087E+01  0.61530179841E+00 -0.72947266773E+01  0.75205977321E+01  0.00000000000E+00 0. -1.
         -5    1    3    3    0  503  0.40145908944E+02 -0.66203218343E+02  0.26658182757E+02  0.82020173322E+02  0.47000000000E+01 0.  1.
         11    1    4    4    0    0  0.12291594544E+02  0.57172571506E+02  0.38705190668E+02  0.70127583829E+02  0.00000000000E+00 0. -1.
        -12    1    4    4    0    0 -0.13399302505E+02 -0.15693322963E+02  0.65311555174E+02  0.68493948145E+02  0.00000000000E+00 0.  1.
</event>
<event>
12    1  0.1030140E-001  0.1974292E+03  0.7818608E-02  0.1151934E+00
         21   -1    0    0  501  502  0.00000000000E+00  0.00000000000E+00  0.93200488383E+03  0.93200488383E+03  0.00000000000E+00 0. -1.
         21   -1    0    0  502  503 -0.00000000000E+00 -0.00000000000E+00 -0.90147923471E+02  0.90147923471E+02  0.00000000000E+00 0. -1.
         -6    2    1    2    0  503 -0.79609122851E+02 -0.55165745053E+02  0.46686772993E+02  0.20283972949E+03  0.17199834074E+03 0.  0.
        -24    2    3    3    0    0 -0.60247739828E+02  0.23633644083E+02 -0.11193690017E+02  0.10305774274E+03  0.79418262106E+02 0.  0.
          6    2    1    2  501    0  0.79609122851E+02  0.55165745053E+02  0.79517018737E+03  0.81931307782E+03  0.17203900932E+03 0.  0.
         24    2    5    5    0    0  0.53371446279E+02 -0.98871000009E+01  0.66102053716E+03  0.66785844113E+03  0.78361220124E+02 0.  0.
          5    1    5    5  501    0  0.26237676572E+02  0.65052845054E+02  0.13414965021E+03  0.15145463668E+03  0.47000000000E+01 0. -1.
        -11    1    6    6    0    0  0.50213959755E+02  0.23749996531E+02  0.28777284844E+03  0.29308482797E+03  0.00000000000E+00 0.  1.
         12    1    6    6    0    0  0.31574865236E+01 -0.33637096531E+02  0.37324768872E+03  0.37477361316E+03  0.00000000000E+00 0. -1.
         -5    1    3    3    0  503 -0.19361383023E+02 -0.78799389136E+02  0.57880463010E+02  0.99781986746E+02  0.47000000000E+01 0.  1.
         13    1    4    4    0    0  0.10833574878E+02  0.24411009015E+02  0.10558752279E+02  0.28718477597E+02  0.00000000000E+00 0. -1.
        -14    1    4    4    0    0 -0.71081314706E+02 -0.77736493183E+00 -0.21752442296E+02  0.74339265146E+02  0.00000000000E+00 0.  1.
</event>
<event>
12    1  0.1030140E-001  0.2144413E+03  0.7818608E-02  0.1138155E+00
         21   -1    0    0  501  502  0.00000000000E+00  0.00000000000E+00  0.54316978284E+02  0.54316978284E+02  0.00000000000E+00 0.  1.
         21   -1    0    0  502  503 -0.00000000000E+00 -0.00000000000E+00 -0.12898654282E+04  0.12898654282E+04  0.00000000000E+00 0. -1.
         -6    2    1    2    0  503 -0.28572640420E+02 -0.12332089281E+03 -0.22354026902E+03  0.30976659304E+03  0.17309145533E+03 0.  0.
        -24    2    3    3    0    0 -0.77047174654E+02 -0.85482348079E+02 -0.10197714926E+03  0.17345365153E+03  0.80270363800E+02 0.  0.
          6    2    1    2  501    0  0.28572640420E+02  0.12332089281E+03 -0.10120081809E+04  0.10344158135E+04  0.17271675805E+03 0.  0.
         24    2    5    5    0    0  0.65738910510E+02  0.34823847913E+02 -0.40776253240E+03  0.42257600408E+03  0.82255040322E+02 0.  0.
          5    1    5    5  501    0 -0.37166270090E+02  0.88497044899E+02 -0.60424564854E+03  0.61183980940E+03  0.47000000000E+01 0. -1.
        -13    1    6    6    0    0  0.31467923305E+02  0.45638581360E+02 -0.11552520569E+03  0.12813736166E+03  0.00000000000E+00 0.  1.
         14    1    6    6    0    0  0.34270987205E+02 -0.10814733447E+02 -0.29223732672E+03  0.29443864242E+03  0.00000000000E+00 0. -1.
         -5    1    3    3    0  503  0.48474534234E+02 -0.37838544734E+02 -0.12156311976E+03  0.13631294151E+03  0.47000000000E+01 0.  1.
         11    1    4    4    0    0 -0.43730015496E+02  0.94631091110E+00 -0.52854680626E+02  0.68606319123E+02  0.00000000000E+00 0. -1.
        -12    1    4    4    0    0 -0.33317159158E+02 -0.86428658990E+02 -0.49122468631E+02  0.10484733241E+03  0.00000000000E+00 0.  1.
</event>
<event>
12    1  0.1030140E-001  0.2047337E+03  0.7818608E-02  0.1145939E+00
         21   -1    0    0  501  502  0.00000000000E+00  0.00000000000E+00  0.20844655456E+03  0.20844655456E+03  0.00000000000E+00 0.  1.
         21   -1    0    0  502  503 -0.00000000000E+00 -0.00000000000E+00 -0.20052041797E+03  0.20052041797E+03  0.00000000000E+00 0.  1.
         -6    2    1    2    0  503  0.10556371519E+03 -0.30964848342E+02  0.11982336709E+00  0.20473371494E+03  0.17266545652E+03 0.  0.
        -24    2    3    3    0    0  0.75994899624E+02  0.45949467420E+02 -0.15606430459E+02  0.12071269446E+03  0.80258430125E+02 0.  0.
          6    2    1    2  501    0 -0.10556371519E+03  0.30964848342E+02  0.78063132190E+01  0.20423325759E+03  0.17189463395E+03 0.  0.
         24    2    5    5    0    0 -0.71530920185E+02  0.62500200867E+02 -0.46685257206E+02  0.13251066114E+03  0.79728379032E+02 0.  0.
          5    1    5    5  501    0 -0.34032795009E+02 -0.31535352525E+02  0.54491570425E+02  0.71722596456E+02  0.47000000000E+01 0. -1.
        -13    1    6    6    0    0 -0.86329161031E+02  0.58780626139E+02 -0.27506013124E+02  0.10800216114E+03  0.00000000000E+00 0.  1.
         14    1    6    6    0    0  0.14798240846E+02  0.37195747284E+01 -0.19179244083E+02  0.24508499992E+02  0.00000000000E+00 0. -1.
         -5    1    3    3    0  503  0.29568815569E+02 -0.76914315762E+02  0.15726253826E+02  0.84021020481E+02  0.47000000000E+01 0.  1.
         13    1    4    4    0    0  0.52985213695E+02 -0.98558640738E+01 -0.25367321153E+02  0.59565694065E+02  0.00000000000E+00 0. -1.
        -14    1    4    4    0    0  0.23009685929E+02  0.55805331494E+02  0.97608906943E+01  0.61147000391E+02  0.00000000000E+00 0.  1.
</event>
<event>
12    1  0.1030140E-001  0.1977487E+03  0.7818608E-02  0.1151684E+00
         21   -1    0    0  501  502  0.00000000000E+00  0.00000000000E+00  0.27334983015E+02  0.27334983015E+02  0.00000000000E+00 0. -1.
         21   -1    0    0  502  503 -0.00000000000E+00 -0.00000000000E+00 -0.26380839221E+04  0.26380839221E+04  0.00000000000E+00 0. -1.
         -6    2    1    2    0  503  0.20800868076E+02 -0.94898902529E+02 -0.22071571367E+04  0.22159849164E+04  0.17206988585E+03 0.  0.
        -24    2    3    3    0    0 -0.28346694304E+01 -0.51974564517E+02 -0.57224838361E+03  0.58033524165E+03  0.81310451063E+02 0.  0.
          6    2    1    2  501    0 -0.20800868076E+02  0.94898902529E+02 -0.40359180235E+03  0.44943398872E+03  0.17223846690E+03 0.  0.
         24    2    5    5    0    0  0.33845010383E+00  0.92967749645E+02 -0.40912389633E+03  0.42699976958E+03  0.79393473594E+02 0.  0.
          5    1    5    5  501    0 -0.21139318180E+02  0.19311528842E+01  0.55320939846E+01  0.22434219140E+02  0.47000000000E+01 0. -1.
        -11    1    6    6    0    0 -0.33378153616E+02  0.68202785536E+02 -0.20447288624E+03  0.21811667131E+03  0.00000000000E+00 0.  1.
         12    1    6    6    0    0  0.33716603720E+02  0.24764964109E+02 -0.20465101009E+03  0.20888309827E+03  0.00000000000E+00 0. -1.
         -5    1    3    3    0  503  0.23635537506E+02 -0.42924338013E+02 -0.16349087531E+04  0.16356496747E+04  0.47000000000E+01 0.  1.
         11    1    4    4    0    0  0.25961780360E+02  0.97107121975E+01 -0.20024073473E+03  0.20215010220E+03  0.00000000000E+00 0. -1.
        -12    1    4    4    0    0 -0.28796449790E+02 -0.61685276714E+02 -0.37200764887E+03  0.37818513945E+03  0.00000000000E+00 0.  1.
</event>
<event>
12    1  0.1030140E-001  0.2003490E+03  0.7818608E-02  0.1149899E+00
         21   -1    0    0  503  502  0.00000000000E+00  0.00000000000E+00  0.19579305866E+03  0.19579305866E+03  0.00000000000E+00 0. -1.
         21   -1    0    0  501  503 -0.00000000000E+00 -0.00000000000E+00 -0.45515453398E+03  0.45515453398E+03  0.00000000000E+00 0. -1.
          6    2    1    2  501    0  0.62432463513E+02 -0.79375372414E+02 -0.37232925012E+03  0.42281059445E+03  0.17303602527E+03 0.  0.
         24    2    3    3    0    0 -0.28172154399E+02 -0.67116797094E+02 -0.20861346722E+03  0.23523549742E+03  0.80733052745E+02 0.  0.
         -6    2    1    2    0  502 -0.62432463513E+02  0.79375372414E+02  0.11296777481E+03  0.22813699819E+03  0.17054767531E+03 0.  0.
        -24    2    5    5    0    0 -0.47187350210E+02 -0.19278233598E+02  0.76183788251E+02  0.12164709667E+03  0.79973434500E+02 0.  0.
          5    1    3    3  501    0  0.90604617912E+02 -0.12258575320E+02 -0.16371578290E+03  0.18757509703E+03  0.47000000000E+01 0. -1.
        -11    1    4    4    0    0  0.23831635158E+02 -0.42767529245E+02 -0.72257699408E+02  0.87282206181E+02  0.00000000000E+00 0.  1.
         12    1    4    4    0    0 -0.52003789557E+02 -0.24349267849E+02 -0.13635576781E+03  0.14795329124E+03  0.00000000000E+00 0. -1.
         -5    1    5    5    0  502 -0.15245113304E+02  0.98653606012E+02  0.36783986554E+02  0.10648990152E+03  0.47000000000E+01 0.  1.
         11    1    6    6    0    0 -0.36131771144E+02 -0.16369715152E+02 -0.47134949743E+01  0.39946082349E+02  0.00000000000E+00 0. -1.
        -12    1    6    6    0    0 -0.11055579066E+02 -0.29085184458E+01  0.80897283225E+02  0.81701014322E+02  0.00000000000E+00 0.  1.
</event>
<event>
12    1  0.1030140E-001  0.1732036E+03  0.7818608E-02  0.1174815E+00
         21   -1    0    0  503  502  0.00000000000E+00  0.00000000000E+00  0.64054187451E+02  0.64054187451E+02  0.00000000000E+00 0.  1.
         21   -1    0    0  501  503 -0.00000000000E+00 -0.00000000000E+00 -0.51380199740E+03  0.51380199740E+03  0.00000000000E+00 0.  1.
          6    2    1    2  501    0  0.12506939052E+02  0.11517804976E+02 -0.31406370492E+03  0.35865791437E+03  0.17236706599E+03 0.  0.
         24    2    3    3    0    0  0.49868891480E+02  0.59000004375E+02 -0.17633920476E+03  0.20818996864E+03  0.79244186241E+02 0.  0.
         -6    2    1    2    0  502 -0.12506939052E+02 -0.11517804976E+02 -0.13568410503E+03  0.21919827048E+03  0.17131439539E+03 0.  0.
        -24    2    5    5    0    0 -0.45361474408E+02 -0.63065113621E+02 -0.99825160449E+02  0.14817363089E+03  0.77171823331E+02 0.  0.
          5    1    3    3  501    0 -0.37361952428E+02 -0.47482199399E+02 -0.13772450016E+03  0.15046794573E+03  0.47000000000E+01 0. -1.
        -13    1    4    4    0    0  0.30843994193E+02  0.66746604240E+02 -0.75913714155E+02  0.10568516051E+03  0.00000000000E+00 0.  1.
         14    1    4    4    0    0  0.19024897287E+02 -0.77465998647E+01 -0.10042549061E+03  0.10250480813E+03  0.00000000000E+00 0. -1.
         -5    1    5    5    0  502  0.32854535356E+02  0.51547308644E+02 -0.35858944577E+02  0.71024639585E+02  0.47000000000E+01 0.  1.
         13    1    6    6    0    0 -0.19299369296E+02 -0.32075976975E+02 -0.10094925605E+03  0.10766655121E+03  0.00000000000E+00 0. -1.
        -14    1    6    6    0    0 -0.26062105112E+02 -0.30989136646E+02  0.11240955979E+01  0.40507079676E+02  0.00000000000E+00 0.  1.
</event>
<event>
12    1  0.1030140E-001  0.1964591E+03  0.7818608E-02  0.1153522E+00
         21   -1    0    0  501  502  0.00000000000E+00  0.00000000000E+00  0.11598020937E+04  0.11598020937E+04  0.00000000000E+00 0. -1.
         21   -1    0    0  502  503 -0.00000000000E+00 -0.00000000000E+00 -0.34085717016E+02  0.34085717016E+02  0.00000000000E+00 0. -1.
         -6    2    1    2    0  503  0.69411016452E+02 -0.53006276256E+02  0.44689794773E+03  0.48817408875E+03  0.17597900645E+03 0.  0.
        -24    2    3    3    0    0  0.48964603809E+02 -0.97233066525E+02  0.39247121084E+03  0.41497282881E+03  0.79479529836E+02 0.  0.
          6    2    1    2  501    0 -0.69411016452E+02  0.53006276256E+02  0.67881842895E+03  0.70571372196E+03  0.17207510965E+03 0.  0.
         24    2    5    5    0    0 -0.75266923658E+02 -0.34410853858E+02  0.43298521283E+03  0.44469244614E+03  0.58531704765E+02 0.  0.
          5    1    5    5  501    0  0.58559072064E+01  0.87417130114E+02  0.24583321611E+03  0.26102127582E+03  0.47000000000E+01 0. -1.
        -13    1    6    6    0    0 -0.56339255229E+01 -0.29361175139E+02  0.16939548969E+03  0.17201352171E+03  0.00000000000E+00 0.  1.
         14    1    6    6    0    0 -0.69632998135E+02 -0.50496787182E+01  0.26358972314E+03  0.27267892443E+03  0.00000000000E+00 0. -1.
         -5    1    3    3    0  503  0.20446412642E+02  0.44226790269E+02  0.54426736891E+02  0.73201259935E+02  0.47000000000E+01 0.  1.
         11    1    4    4    0    0  0.20731216451E+02 -0.72502518480E+02  0.13374754182E+03  0.15354088532E+03  0.00000000000E+00 0. -1.
        -12    1    4    4    0    0  0.28233387358E+02 -0.24730548044E+02  0.25872366902E+03  0.26143194349E+03  0.00000000000E+00 0.  1.
</event>
<event>
12    1  0.1030140E-001  0.2391941E+03  0.7818608E-02  0.1120803E+00
         21   -1    0    0  503  502  0.00000000000E+00  0.00000000000E+00  0.15355793358E+03  0.15355793358E+03  0.00000000000E+00 0. -1.
         21   -1    0    0  501  503 -0.00000000000E+00 -0.00000000000E+00 -0.92145066656E+03  0.92145066656E+03  0.00000000000E+00 0. -1.
          6    2    1    2  501    0  0.78502826602E+02 -0.14656693153E+03 -0.79951832798E+03  0.83373278484E+03  0.16803642626E+03 0.  0.
         24    2    3    3    0    0  0.48405212264E+02 -0.76147289131E+02 -0.67738641780E+03  0.68950003576E+03  0.91741299758E+02 0.  0.
         -6    2    1    2    0  502 -0.78502826602E+02  0.14656693153E+03  0.31625595002E+02  0.24127581530E+03  0.17195720859E+03 0.  0.
        -24    2    5    5    0    0 -0.56451771596E+02  0.15248645447E+03  0.71114476628E+02  0.19542004630E+03  0.81809561757E+02 0.  0.
          5    1    3    3  501    0  0.30097614337E+02 -0.70419642396E+02 -0.12213191018E+03  0.14423274908E+03  0.47000000000E+01 0. -1.
        -11    1    4    4    0    0 -0.20534928436E+02 -0.43102440047E+02 -0.35369816892E+03  0.35690600769E+03  0.00000000000E+00 0.  1.
         12    1    4    4    0    0  0.68940140700E+02 -0.33044849085E+02 -0.32368824888E+03  0.33259402807E+03  0.00000000000E+00 0. -1.
         -5    1    5    5    0  502 -0.22051055006E+02 -0.59195229440E+01 -0.39488881626E+02  0.45855769003E+02  0.47000000000E+01 0.  1.
         13    1    6    6    0    0 -0.50478793149E+02  0.13282394784E+03  0.24114976493E+02  0.14412439686E+03  0.00000000000E+00 0. -1.
        -14    1    6    6    0    0 -0.59729784472E+01  0.19662506630E+02  0.46999500136E+02  0.51295649440E+02  0.00000000000E+00 0.  1.
</event>
<event>
12    1  0.1030140E-001  0.2021269E+03  0.7818608E-02  0.1148253E+00
         21   -1    0    0  503  502  0.00000000000E+00  0.00000000000E+00  0.43412654479E+03  0.43412654479E+03  0.00000000000E+00 0.  1.
         21   -1    0    0  501  503 -0.00000000000E+00 -0.00000000000E+00 -0.12619943182E+03  0.12619943182E+03  0.00000000000E+00 0. -1.
          6    2    1    2  501    0  0.10367544303E+03  0.31235969115E+01  0.11647674930E+02  0.20246220420E+03  0.17348464328E+03 0.  0.
         24    2    3    3    0    0  0.58619469120E+02 -0.59112080490E+02 -0.23414662587E+02  0.11787628434E+03  0.80100510398E+02 0.  0.
         -6    2    1    2    0  502 -0.10367544303E+03 -0.31235969115E+01  0.29627943804E+03  0.35786377241E+03  0.17183311629E+03 0.  0.
        -24    2    5    5    0    0 -0.68414766397E+02  0.45921314180E+02  0.96116694557E+02  0.14873239624E+03  0.78061253908E+02 0.  0.
          5    1    3    3  501    0  0.45055973909E+02  0.62235677401E+02  0.35062337517E+02  0.84585919860E+02  0.47000000000E+01 0. -1.
        -11    1    4    4    0    0  0.37250329117E+01  0.14126470292E+01  0.23378530233E+02  0.23715545908E+02  0.00000000000E+00 0.  1.
         12    1    4    4    0    0  0.54894436209E+02 -0.60524727519E+02 -0.46793192820E+02  0.94160738433E+02  0.00000000000E+00 0. -1.
         -5    1    5    5    0  502 -0.35260676632E+02 -0.49044911091E+02  0.20016274348E+03  0.20913137617E+03  0.47000000000E+01 0.  1.
         13    1    6    6    0    0 -0.65982476193E+02  0.60152879905E+00  0.70726760310E+02  0.96728091191E+02  0.00000000000E+00 0. -1.
        -14    1    6    6    0    0 -0.24322902036E+01  0.45319785381E+02  0.25389934247E+02  0.52004305049E+02  0.00000000000E+00 0.  1.
</event>
<event>
12    1  0.1030140E-001  0.3302191E+03  0.7818608E-02  0.1071150E+00
         21   -1    0    0  503  502  0.00000000000E+00  0.00000000000E+00  0.34115057545E+03  0.34115057545E+03  0.00000000000E+00 0.  1.
         21   -1    0    0  501  503 -0.00000000000E+00 -0.00000000000E+00 -0.37044827133E+03  0.37044827133E+03  0.00000000000E+00 0.  1.
          6    2    1    2  501    0 -0.23211621263E+03 -0.15650273261E+03 -0.14767859794E+03  0.36173698237E+03  0.17513890099E+03 0.  0.
         24    2    3    3    0    0 -0.18948115379E+03 -0.48447474322E+02 -0.71873521285E+02  0.22294870212E+03  0.79309868911E+02 0.  0.
         -6    2    1    2    0  502  0.23211621263E+03  0.15650273261E+03  0.11838090207E+03  0.34986186441E+03  0.17325774070E+03 0.  0.
        -24    2    5    5    0    0  0.54034988975E+02  0.25129900647E+02  0.14164023077E+02  0.10520906744E+03  0.85539677237E+02 0.  0.
          5    1    3    3  501    0 -0.42635058847E+02 -0.10805525829E+03 -0.75805076660E+02  0.13878828025E+03  0.47000000000E+01 0. -1.
        -11    1    4    4    0    0 -0.14624288694E+03 -0.28535792853E+01 -0.63861962901E+02  0.15960412025E+03  0.00000000000E+00 0.  1.
         12    1    4    4    0    0 -0.43238266846E+02 -0.45593895037E+02 -0.80115583835E+01  0.63344581869E+02  0.00000000000E+00 0. -1.
         -5    1    5    5    0  502  0.17808122366E+03  0.13137283197E+03  0.10421687899E+03  0.24465279697E+03  0.47000000000E+01 0.  1.
         13    1    6    6    0    0  0.29702730635E+02  0.26032730615E+02 -0.33432235657E+02  0.51746204223E+02  0.00000000000E+00 0. -1.
        -14    1    6    6    0    0  0.24332258340E+02 -0.90282996836E+00  0.47596258734E+02  0.53462863217E+02  0.00000000000E+00 0.  1.
</event>
<event>
12    1  0.1030140E-001  0.1846600E+03  0.7818608E-02  0.1163600E+00
         21   -1    0    0  501  502  0.00000000000E+00  0.00000000000E+00  0.56143872961E+02  0.56143872961E+02  0.00000000000E+00 0.  1.
         21   -1    0    0  502  503 -0.00000000000E+00 -0.00000000000E+00 -0.82645084473E+03  0.82645084473E+03  0.00000000000E+00 0.  1.
         -6    2    1    2    0  503 -0.34881217046E+02  0.54207327813E+02 -0.61480712567E+03  0.64194011806E+03  0.17304386644E+03 0.  0.
        -24    2    3    3    0    0 -0.72814521058E+02  0.32358362031E+02 -0.24623197529E+03  0.27074469199E+03  0.79520340263E+02 0.  0.
          6    2    1    2  501    0  0.34881217046E+02 -0.54207327813E+02 -0.15549984610E+03  0.24065459963E+03  0.17198633810E+03 0.  0.
         24    2    5    5    0    0  0.42311827600E+02 -0.74707008385E+02 -0.17471723637E+03  0.21121230070E+03  0.81933481708E+02 0.  0.
          5    1    5    5  501    0 -0.74306105540E+01  0.20499680572E+02  0.19217390279E+02  0.29442298923E+02  0.47000000000E+01 0. -1.
        -11    1    6    6    0    0 -0.25759036017E+01 -0.71670745338E+02 -0.12537943332E+03  0.14444145290E+03  0.00000000000E+00 0.  1.
         12    1    6    6    0    0  0.44887731201E+02 -0.30362630467E+01 -0.49337803052E+02  0.66770847798E+02  0.00000000000E+00 0. -1.
         -5    1    3    3    0  503  0.37933304013E+02  0.21848965782E+02 -0.36857515038E+03  0.37119542607E+03  0.47000000000E+01 0.  1.
         11    1    4    4    0    0 -0.52431605825E+02  0.34145906876E+02 -0.24185892573E+03  0.24982144864E+03  0.00000000000E+00 0. -1.
        -12    1    4    4    0    0 -0.20382915233E+02 -0.17875448451E+01 -0.43730495654E+01  0.20923243355E+02  0.00000000000E+00 0.  1.
</event>
<event>
12    1  0.1030140E-001  0.1723042E+03  0.7818608E-02  0.1175614E+00
         21   -1    0    0  503  502  0.00000000000E+00  0.00000000000E+00  0.46725441539E+03  0.46725441539E+03  0.00000000000E+00 0. -1.
         21   -1    0    0  501  503 -0.00000000000E+00 -0.00000000000E+00 -0.68017181932E+02  0.68017181932E+02  0.00000000000E+00 0. -1.
          6    2    1    2  501    0 -0.10122949739E+02 -0.72182845191E+01  0.27021232825E+03  0.32047375899E+03  0.17185502647E+03 0.  0.
         24    2    3    3    0    0 -0.31442642246E+02  0.57714830758E+02  0.17073272356E+03  0.19968832735E+03  0.80038264250E+02 0.  0.
         -6    2    1    2    0  502  0.10122949739E+02  0.72182845191E+01  0.12902490521E+03  0.21479783833E+03  0.17127786618E+03 0.  0.
        -24    2    5    5    0    0  0.56850750616E+02 -0.26573562170E+02  0.93367978395E+02  0.14683547590E+03  0.94365860040E+02 0.  0.
          5    1    3    3  501    0  0.21319692507E+02 -0.64933115277E+02  0.99479604681E+02  0.12078543164E+03  0.47000000000E+01 0. -1.
        -11    1    4    4    0    0 -0.18776410940E+02  0.27484676206E+02  0.87419000751E+01  0.34414849279E+02  0.00000000000E+00 0.  1.
         12    1    4    4    0    0 -0.12666231306E+02  0.30230154552E+02  0.16199082349E+03  0.16527347807E+03  0.00000000000E+00 0. -1.
         -5    1    5    5    0  502 -0.46727800877E+02  0.33791846689E+02  0.35656926817E+02  0.67962362433E+02  0.47000000000E+01 0.  1.
         13    1    6    6    0    0 -0.35208747537E+01  0.24377337031E+02  0.13012937040E+00  0.24630632420E+02  0.00000000000E+00 0. -1.
        -14    1    6    6    0    0  0.60371625370E+02 -0.50950899201E+02  0.93237849024E+02  0.12220484348E+03  0.00000000000E+00 0.  1.
</event>
<event>
12    1  0.1030140E-001  0.2322001E+03  0.7818608E-02  0.1125146E+00
         21   -1    0    0  503  502  0.00000000000E+00  0.00000000000E+00  0.23442507912E+03  0.23442507912E+03  0.00000000000E+00 0. -1.
         21   -1    0    0  501  503 -0.00000000000E+00 -0.00000000000E+00 -0.32874079707E+03  0.32874079707E+03  0.00000000000E+00 0. -1.
          6    2    1    2  501    0 -0.10138057537E+03 -0.12117328192E+03 -0.20170429367E+03  0.30757361409E+03  0.17016439313E+03 0.  0.
         24    2    3    3    0    0 -0.93088508047E+02 -0.13923755183E+03 -0.11403366377E+03  0.21755525166E+03  0.79208868709E+02 0.  0.
         -6    2    1    2    0  502  0.10138057537E+03  0.12117328192E+03  0.10738857572E+03  0.25559226209E+03  0.16980610393E+03 0.  0.
        -24    2    5    5    0    0  0.52629017111E+01  0.80245211145E+02  0.19405619764E+02  0.11892915549E+03  0.85443395890E+02 0.  0.
          5    1    3    3  501    0 -0.82920673221E+01  0.18064269914E+02 -0.87670629900E+02  0.90018362433E+02  0.47000000000E+01 0. -1.
        -11    1    4    4    0    0 -0.87427703735E+01 -0.31689358867E+02  0.85413816065E+01  0.33964786161E+02  0.00000000000E+00 0.  1.
         12    1    4    4    0    0 -0.84345737674E+02 -0.10754819296E+03 -0.12257504538E+03  0.18359046550E+03  0.00000000000E+00 0. -1.
         -5    1    5    5    0  502  0.96117673658E+02  0.40928070772E+02  0.87982955956E+02  0.13666310660E+03  0.47000000000E+01 0.  1.
         11    1    6    6    0    0  0.25925052712E+02  0.87305449308E+02  0.28274830226E+02  0.95361500938E+02  0.00000000000E+00 0. -1.
        -12    1    6    6    0    0 -0.20662151001E+02 -0.70602381623E+01 -0.88692104617E+01  0.23567654553E+02  0.00000000000E+00 0.  1.
</event>
<event>
12    1  0.1030140E-001  0.2116035E+03  0.7818608E-02  0.1141284E+00
         21   -1    0    0  501  502  0.00000000000E+00  0.00000000000E+00  0.34527612116E+02  0.34527612116E+02  0.00000000000E+00 0. -1.
         21   -1    0    0  502  503 -0.00000000000E+00 -0.00000000000E+00 -0.15253127380E+04  0.15253127380E+04  0.00000000000E+00 0. -1.
         -6    2    1    2    0  503  0.11368929672E+03 -0.10166313170E+02 -0.10591951839E+04  0.10791679971E+04  0.17228034814E+03 0.  0.
        -24    2    3    3    0    0  0.10377129344E+03 -0.32851071066E+02 -0.10413318977E+04  0.10482786458E+04  0.51655822226E+02 0.  0.
          6    2    1    2  501    0 -0.11368929672E+03  0.10166313170E+02 -0.43158994203E+03  0.48067235301E+03  0.17817806481E+03 0.  0.
         24    2    5    5    0    0 -0.18349530588E+02  0.56239191290E+02 -0.14925403217E+03  0.17909643040E+03  0.79367583768E+02 0.  0.
          5    1    5    5  501    0 -0.95339766130E+02 -0.46072878120E+02 -0.28233590986E+03  0.30157592261E+03  0.47000000000E+01 0. -1.
        -11    1    6    6    0    0 -0.32871573697E+02  0.18429926415E+02 -0.12784563712E+03  0.13328431819E+03  0.00000000000E+00 0.  1.
         12    1    6    6    0    0  0.14522043109E+02  0.37809264875E+02 -0.21408395050E+02  0.45812112210E+02  0.00000000000E+00 0. -1.
         -5    1    3    3    0  503  0.99180032780E+01  0.22684757896E+02 -0.17863286211E+02  0.30889351306E+02  0.47000000000E+01 0.  1.
         13    1    4    4    0    0  0.61872673622E+02 -0.41153466031E+02 -0.53294155284E+03  0.53809714202E+03  0.00000000000E+00 0. -1.
        -14    1    4    4    0    0  0.41898619817E+02  0.83023949649E+01 -0.50839034483E+03  0.51018150380E+03  0.00000000000E+00 0.  1.
</event>
<event>
12    1  0.1030140E-001  0.1849515E+03  0.7818608E-02  0.1163278E+00
         21   -1    0    0  503  502  0.00000000000E+00  0.00000000000E+00  0.25773140542E+03  0.25773140542E+03  0.00000000000E+00 0.  1.
         21   -1    0    0  501  503 -0.00000000000E+00 -0.00000000000E+00 -0.18756599589E+03  0.18756599589E+03  0.00000000000E+00 0.  1.
          6    2    1    2  501    0  0.39220116614E+02  0.54627484183E+02 -0.85869310458E+02  0.20391317174E+03  0.17229237811E+03 0.  0.
         24    2    3    3    0    0 -0.27242697141E+01  0.35118580239E+01 -0.10952987600E+03  0.13352815100E+03  0.76244465897E+02 0.  0.
         -6    2    1    2    0  502 -0.39220116614E+02 -0.54627484183E+02  0.15603471998E+03  0.24138422957E+03  0.17145592107E+03 0.  0.
        -24    2    5    5    0    0  0.45738739780E+02 -0.32683759984E+02  0.84812888051E+02  0.12827289656E+03  0.78105374524E+02 0.  0.
          5    1    3    3  501    0  0.41944386328E+02  0.51115626159E+02  0.23660565545E+02  0.70385020736E+02  0.47000000000E+01 0. -1.
        -13    1    4    4    0    0  0.22754227324E+02 -0.20457901218E+02 -0.86228217293E+02  0.91496371736E+02  0.00000000000E+00 0.  1.
         14    1    4    4    0    0 -0.25478497039E+02  0.23969759242E+02 -0.23301658710E+02  0.42031779264E+02  0.00000000000E+00 0. -1.
         -5    1    5    5    0  502 -0.84958856394E+02 -0.21943724199E+02  0.71221831932E+02  0.11311133301E+03  0.47000000000E+01 0.  1.
         11    1    6    6    0    0 -0.11955928031E+02  0.12563750901E+02  0.36654076309E+02  0.40550133931E+02  0.00000000000E+00 0. -1.
        -12    1    6    6    0    0  0.57694667811E+02 -0.45247510885E+02  0.48158811742E+02  0.87722762631E+02  0.00000000000E+00 0.  1.
</event>
<event>
12    1  0.1030140E-001  0.1946330E+03  0.7818608E-02  0.1155196E+00
         21   -1    0    0  501  502  0.00000000000E+00  0.00000000000E+00  0.86922787109E+03  0.86922787109E+03  0.00000000000E+00 0. -1.
         21   -1    0    0  502  503 -0.00000000000E+00 -0.00000000000E+00 -0.49353081017E+02  0.49353081017E+02  0.00000000000E+00 0.  1.
         -6    2    1    2    0  503 -0.50539487488E+02 -0.74141838819E+02  0.24516847276E+03  0.31303290698E+03  0.17271586134E+03 0.  0.
        -24    2    3    3    0    0 -0.85887605750E+02 -0.16295071801E+02  0.10865255546E+03  0.16053889531E+03  0.79530804804E+02 0.  0.
          6    2    1    2  501    0  0.50539487488E+02  0.74141838819E+02  0.57470631731E+03  0.60554804512E+03  0.16837408273E+03 0.  0.
         24    2    5    5    0    0  0.29079382210E+02  0.39382325726E+02  0.14847265705E+03  0.17733550092E+03  0.83708852266E+02 0.  0.
          5    1    5    5  501    0  0.21460105278E+02  0.34759513093E+02  0.42623366026E+03  0.42821254420E+03  0.47000000000E+01 0. -1.
        -11    1    6    6    0    0  0.38994142683E+02  0.49346444794E+02  0.15051920750E+03  0.16313076535E+03  0.00000000000E+00 0.  1.
         12    1    6    6    0    0 -0.99147604729E+01 -0.99641190675E+01 -0.20465504497E+01  0.14204735575E+02  0.00000000000E+00 0. -1.
         -5    1    3    3    0  503  0.35348118262E+02 -0.57846767018E+02  0.13651591730E+03  0.15249401167E+03  0.47000000000E+01 0.  1.
         13    1    4    4    0    0 -0.71872085598E+02  0.23694214131E+02  0.73260776281E+02  0.10532878910E+03  0.00000000000E+00 0. -1.
        -14    1    4    4    0    0 -0.14015520152E+02 -0.39989285932E+02  0.35391779178E+02  0.55210106212E+02  0.00000000000E+00 0.  1.
</event>
<event>
12    1  0.1030140E-001  0.1997137E+03  0.7818608E-02  0.1150464E+00
         21   -1    0    0  503  502  0.00000000000E+00  0.00000000000E+00  0.43435016828E+02  0.43435016828E+02  0.00000000000E+00 0. -1.
         21   -1    0    0  501  503 -0.00000000000E+00 -0.00000000000E+00 -0.95941155398E+03  0.95941155398E+03  0.00000000000E+00 0. -1.
          6    2    1    2  501    0 -0.78183290342E+02  0.67420195733E+02 -0.57668459858E+03  0.61028736896E+03  0.17096033691E+03 0.  0.
         24    2    3    3    0    0  0.23232979312E+02  0.31311001305E+02 -0.23587156498E+03  0.25284541907E+03  0.82311971471E+02 0.  0.
         -6    2    1    2    0  502  0.78183290342E+02 -0.67420195733E+02 -0.33929193858E+03  0.39255920185E+03  0.16830210246E+03 0.  0.
        -24    2    5    5    0    0  0.76113820564E+02 -0.81543798232E+01 -0.30181997669E+03  0.32225303165E+03  0.83017531213E+02 0.  0.
          5    1    3    3  501    0 -0.10141626965E+03  0.36109194428E+02 -0.34081303359E+03  0.35744194989E+03  0.47000000000E+01 0. -1.
        -13    1    4    4    0    0  0.17017414668E+02  0.28534584408E+02 -0.24164567587E+03  0.24391893649E+03  0.00000000000E+00 0.  1.
         14    1    4    4    0    0  0.62155646447E+01  0.27764168964E+01  0.57741108938E+01  0.89264825799E+01  0.00000000000E+00 0. -1.
         -5    1    5    5    0  502  0.20694697782E+01 -0.59265815910E+02 -0.37471961896E+02  0.70306170205E+02  0.47000000000E+01 0.  1.
         11    1    6    6    0    0  0.52824282112E+02  0.31481466464E+02 -0.12163352680E+03  0.13629454264E+03  0.00000000000E+00 0. -1.
        -12    1    6    6    0    0  0.23289538451E+02 -0.39635846287E+02 -0.18018644988E+03  0.18595848901E+03  0.00000000000E+00 0.  1.
</event>
<event>
12    1  0.1030140E-001  0.1770263E+03  0.7818608E-02  0.1170950E+00
         21   -1    0    0  503  502  0.00000000000E+00  0.00000000000E+00  0.23052273345E+04  0.23052273345E+04  0.00000000000E+00 0.  1.
         21   -1    0    0  501  503 -0.00000000000E+00 -0.00000000000E+00 -0.18942943729E+02  0.18942943729E+02  0.00000000000E+00 0.  1.
          6    2    1    2  501    0 -0.22384468778E+02 -0.34750256781E+02  0.52363789472E+03  0.55275217050E+03  0.17213271744E+03 0.  0.
         24    2    3    3    0    0 -0.43678540114E+02 -0.45945696763E+02  0.17388902961E+03  0.20214536224E+03  0.81280569258E+02 0.  0.
         -6    2    1    2    0  502  0.22384468778E+02  0.34750256781E+02  0.17626464961E+04  0.17714181077E+04  0.17114554500E+03 0.  0.
        -24    2    5    5    0    0  0.51661330645E+02 -0.18116248070E+02  0.13627882120E+04  0.13669916753E+04  0.92073002963E+02 0.  0.
          5    1    3    3  501    0  0.21294071336E+02  0.11195439983E+02  0.34974886511E+03  0.35060680826E+03  0.47000000000E+01 0. -1.
        -11    1    4    4    0    0 -0.44108498003E+02 -0.21559921352E+02  0.17061339386E+03  0.17753681300E+03  0.00000000000E+00 0.  1.
         12    1    4    4    0    0  0.42995788875E+00 -0.24385775412E+02  0.32756357487E+01  0.24608549242E+02  0.00000000000E+00 0. -1.
         -5    1    5    5    0  502 -0.29276861867E+02  0.52866504851E+02  0.39985828403E+03  0.40442643247E+03  0.47000000000E+01 0.  1.
         13    1    6    6    0    0  0.36927046886E+02 -0.90316479516E+01  0.17518276351E+03  0.17926008504E+03  0.00000000000E+00 0. -1.
        -14    1    6    6    0    0  0.14734283759E+02 -0.90846001185E+01  0.11876054485E+04  0.11877315902E+04  0.00000000000E+00 0.  1.
</event>
<event>
12    1  0.1030140E-001  0.1954711E+03  0.7818608E-02  0.1153655E+00
         21   -1    0    0  501  502  0.00000000000E+00  0.00000000000E+00  0.94831602664E+03  0.94831602664E+03  0.00000000000E+00 0.  1.
         21   -1    0    0  502  503 -0.00000000000E+00 -0.00000000000E+00 -0.43669122800E+02  0.43669122800E+02  0.00000000000E+00 0. -1.
         -6    2    1    2    0  503 -0.87642185861E+02  0.27514295646E+02  0.31347485562E+03  0.36933488798E+03  0.17234728069E+03 0.  0.
        -24    2    3    3    0    0  0.17280830508E+02 -0.21676197352E+01  0.74486897440E+02  0.10660462778E+03  0.74249061251E+02 0.  0.
          6    2    1    2  501    0  0.87642185861E+02 -0.27514295646E+02  0.59117204822E+03  0.62265026146E+03  0.17254207689E+03 0.  0.
         24    2    5    5    0    0  0.85048331339E+02  0.43676975555E+02  0.37198662652E+03  0.39213070858E+03  0.79066715149E+02 0.  0.
          5    1    5    5  501    0  0.25938545223E+01 -0.71191271201E+02  0.21918542170E+03  0.23051955288E+03  0.47000000000E+01 0. -1.
        -13    1    6    6    0    0  0.10932999552E+02  0.22350513669E+02  0.22283413380E+03  0.22421892678E+03  0.00000000000E+00 0.  1.
         14    1    6    6    0    0  0.74115331787E+02  0.21326461886E+02  0.14915249273E+03  0.16791178180E+03  0.00000000000E+00 0. -1.
         -5    1    3    3    0  503 -0.10492301637E+03  0.29681915382E+02  0.23898795818E+03  0.26273026019E+03  0.47000000000E+01 0.  1.
         13    1    4    4    0    0  0.30688360308E+02  0.28705553682E+02  0.47841666952E+02  0.63675814618E+02  0.00000000000E+00 0. -1.
        -14    1    4    4    0    0 -0.13407529800E+02 -0.30873173417E+02  0.26645230488E+02  0.42928813167E+02  0.00000000000E+00 0.  1.
</event>
<event>
12    1  0.1030140E-001  0.2018784E+03  0.7818608E-02  0.1148166E+00
         21   -1    0    0  501  502  0.00000000000E+00  0.00000000000E+00  0.53097430635E+03  0.53097430635E+03  0.00000000000E+00 0.  1.
         21   -1    0    0  502  503 -0.00000000000E+00 -0.00000000000E+00 -0.79848674773E+02  0.79848674773E+02  0.00000000000E+00 0.  1.
         -6    2    1    2    0  503 -0.10377149620E+03 -0.19097073659E+02  0.16540130815E+03  0.26097549688E+03  0.17209705281E+03 0.  0.
        -24    2    3    3    0    0 -0.10472932908E+03 -0.45427570392E+01  0.19029398718E+03  0.23174398912E+03  0.80651137150E+02 0.  0.
          6    2    1    2  501    0  0.10377149620E+03  0.19097073659E+02  0.28572432342E+03  0.34984748424E+03  0.17210941749E+03 0.  0.
         24    2    5    5    0    0  0.13422119378E+03  0.20272245865E+02  0.27643633473E+03  0.31764621336E+03  0.77818872321E+02 0.  0.
          5    1    5    5  501    0 -0.30449697584E+02 -0.11751722062E+01  0.92879886966E+01  0.32201270887E+02  0.47000000000E+01 0. -1.
        -11    1    6    6    0    0  0.10923709658E+03 -0.36789561691E+01  0.14411859869E+03  0.18087688762E+03  0.00000000000E+00 0.  1.
         12    1    6    6    0    0  0.24984097205E+02  0.23951202034E+02  0.13231773604E+03  0.13676932573E+03  0.00000000000E+00 0. -1.
         -5    1    3    3    0  503  0.95783288585E+00 -0.14554316620E+02 -0.24892679034E+02  0.29231507755E+02  0.47000000000E+01 0.  1.
         11    1    4    4    0    0  0.24739637176E+01  0.72389482313E+01 -0.46525458101E+01  0.89537171324E+01  0.00000000000E+00 0. -1.
        -12    1    4    4    0    0 -0.10720329280E+03 -0.11781705271E+02  0.19494653299E+03  0.22279027199E+03  0.00000000000E+00 0.  1.
</event>
<event>
12    1  0.1030140E-001  0.1792314E+03  0.7818608E-02  0.1168863E+00
         21   -1    0    0  503  502  0.00000000000E+00  0.00000000000E+00  0.64764201810E+02  0.64764201810E+02  0.00000000000E+00 0. -1.
         21   -1    0    0  501  503 -0.00000000000E+00 -0.00000000000E+00 -0.49822080269E+03  0.49822080269E+03  0.00000000000E+00 0. -1.
          6    2    1    2  501    0 -0.39412552816E+02  0.20455916208E+02 -0.24622811264E+03  0.30379706708E+03  0.17231535244E+03 0.  0.
         24    2    3    3    0    0 -0.18290010199E+02  0.14962593008E+02 -0.26264313645E+03  0.27608639380E+03  0.81754975723E+02 0.  0.
         -6    2    1    2    0  502  0.39412552816E+02 -0.20455916208E+02 -0.18722848824E+03  0.25918793742E+03  0.17364356098E+03 0.  0.
        -24    2    5    5    0    0 -0.73747372774E+01 -0.74850066580E+02 -0.12662915424E+03  0.16515526549E+03  0.74728841816E+02 0.  0.
          5    1    3    3  501    0 -0.21122542617E+02  0.54933232002E+01  0.16415023816E+02  0.27710673273E+02  0.47000000000E+01 0. -1.
        -11    1    4    4    0    0 -0.31220635585E+02  0.85889060477E+00 -0.32230446497E+02  0.44880591137E+02  0.00000000000E+00 0.  1.
         12    1    4    4    0    0  0.12930625386E+02  0.14103702403E+02 -0.23041268996E+03  0.23120580267E+03  0.00000000000E+00 0. -1.
         -5    1    5    5    0  502  0.46787290094E+02  0.54394150372E+02 -0.60599334004E+02  0.94032671932E+02  0.47000000000E+01 0.  1.
         11    1    6    6    0    0 -0.52175914978E+01 -0.66929281197E+02 -0.13662092435E+03  0.15222361483E+03  0.00000000000E+00 0. -1.
        -12    1    6    6    0    0 -0.21571457796E+01 -0.79207853825E+01  0.99917701060E+01  0.12931650662E+02  0.00000000000E+00 0.  1.
</event>
<event>
12    1  0.1030140E-001  0.1729051E+03  0.7818608E-02  0.1175707E+00
         21   -1    0    0  501  502  0.00000000000E+00  0.00000000000E+00  0.38897619159E+03  0.38897619159E+03  0.00000000000E+00 0. -1.
         21   -1    0    0  502  503 -0.00000000000E+00 -0.00000000000E+00 -0.90353808636E+02  0.90353808636E+02  0.00000000000E+00 0. -1.
         -6    2    1    2    0  503 -0.42559564754E+01 -0.23427094630E+02  0.52988387079E+02  0.18084233336E+03  0.17125781279E+03 0.  0.
        -24    2    3    3    0    0 -0.24963262216E+02  0.10389158582E+02 -0.28654698815E+02  0.89957708879E+02  0.80871494026E+02 0.  0.
          6    2    1    2  501    0  0.42559564754E+01  0.23427094630E+02  0.24563399587E+03  0.29848766687E+03  0.16790439368E+03 0.  0.
         24    2    5    5    0    0  0.34263344378E+02  0.37507608833E+02  0.63003262517E+02  0.11281381579E+03  0.78592292602E+02 0.  0.
          5    1    5    5  501    0 -0.30007387902E+02 -0.14080514203E+02  0.18263073336E+03  0.18567385108E+03  0.47000000000E+01 0. -1.
        -11    1    6    6    0    0  0.34243157678E+02 -0.60730047012E+01  0.59721801120E+02  0.69109831159E+02  0.00000000000E+00 0.  1.
         12    1    6    6    0    0  0.20186699996E-01  0.43580613534E+02  0.32814613974E+01  0.43703984628E+02  0.00000000000E+00 0. -1.
         -5    1    3    3    0  503  0.20707305741E+02 -0.33816253212E+02  0.81643085894E+02  0.90884624479E+02  0.47000000000E+01 0.  1.
         13    1    4    4    0    0  0.35220473100E+01 -0.26091478648E+02 -0.34399030534E+02  0.43318164515E+02  0.00000000000E+00 0. -1.
        -14    1    4    4    0    0 -0.28485309526E+02  0.36480637230E+02  0.57443317198E+01  0.46639544363E+02  0.00000000000E+00 0.  1.
</event>
<event>
12    1  0.1030140E-001  0.1780426E+03  0.7818608E-02  0.1169992E+00
         21   -1    0    0  503  502  0.00000000000E+00  0.00000000000E+00  0.89388089496E+03  0.89388089496E+03  0.00000000000E+00 0. -1.
         21   -1    0    0  501  503 -0.00000000000E+00 -0.00000000000E+00 -0.59090104307E+02  0.59090104307E+02  0.00000000000E+00 0.  1.
          6    2    1    2  501    0  0.47157615164E+02 -0.64402435422E+01  0.11544947111E+03  0.21219745883E+03  0.17156300228E+03 0.  0.
         24    2    3    3    0    0  0.32621652213E+02 -0.71794376522E+02  0.89232964296E+02  0.14014295067E+03  0.73884504550E+02 0.  0.
         -6    2    1    2    0  502 -0.47157615164E+02  0.64402435422E+01  0.71934131954E+03  0.74077354043E+03  0.17037660285E+03 0.  0.
        -24    2    5    5    0    0 -0.94989776133E+02 -0.20954545970E+02  0.51755795115E+03  0.53154398259E+03  0.72184638684E+02 0.  0.
          5    1    3    3  501    0  0.14535962951E+02  0.65354132980E+02  0.26216506810E+02  0.72054508158E+02  0.47000000000E+01 0. -1.
        -13    1    4    4    0    0 -0.13914227619E+02 -0.48919794448E+02  0.22455633308E+02  0.55596829823E+02  0.00000000000E+00 0.  1.
         14    1    4    4    0    0  0.46535879832E+02 -0.22874582074E+02  0.66777330988E+02  0.84546120849E+02  0.00000000000E+00 0. -1.
         -5    1    5    5    0  502  0.47832160968E+02  0.27394789513E+02  0.20178336839E+03  0.20922955784E+03  0.47000000000E+01 0.  1.
         13    1    6    6    0    0 -0.54266093785E+02  0.70194919572E+01  0.13286366379E+03  0.14369006701E+03  0.00000000000E+00 0. -1.
        -14    1    6    6    0    0 -0.40723682347E+02 -0.27974037928E+02  0.38469428736E+03  0.38785391558E+03  0.00000000000E+00 0.  1.
</event>
<event>
12    1  0.1030140E-001  0.1817590E+03  0.7818608E-02  0.1166901E+00
         21   -1    0    0  503  502  0.00000000000E+00  0.00000000000E+00  0.12219170876E+03  0.12219170876E+03  0.00000000000E+00 0. -1.
         21   -1    0    0  501  503 -0.00000000000E+00 -0.00000000000E+00 -0.27998325494E+03  0.27998325494E+03  0.00000000000E+00 0. -1.
          6    2    1    2  501    0  0.57200904555E+02  0.19568841209E+02 -0.32510038088E+02  0.18142219675E+03  0.16793518949E+03 0.  0.
         24    2    3    3    0    0  0.68516324418E+02  0.19737319160E+02 -0.79079361470E+02  0.13326766434E+03  0.80141602610E+02 0.  0.
         -6    2    1    2    0  502 -0.57200904555E+02 -0.19568841209E+02 -0.12528150809E+03  0.22075276695E+03  0.17141016545E+03 0.  0.
        -24    2    5    5    0    0 -0.92853600942E+01 -0.85038761076E+02 -0.58063969681E+02  0.11528951611E+03  0.51014107382E+02 0.  0.
          5    1    3    3  501    0 -0.11315419863E+02 -0.16847795130E+00  0.46569323382E+02  0.48154532411E+02  0.47000000000E+01 0. -1.
        -11    1    4    4    0    0  0.51937599006E+01 -0.27648877693E+02 -0.19027131354E+02  0.33962734094E+02  0.00000000000E+00 0.  1.
         12    1    4    4    0    0  0.63322564517E+02  0.47386196853E+02 -0.60052230115E+02  0.99304930246E+02  0.00000000000E+00 0. -1.
         -5    1    5    5    0  502 -0.47915544461E+02  0.65469919868E+02 -0.67217538406E+02  0.10546325084E+03  0.47000000000E+01 0.  1.
         11    1    6    6    0    0 -0.10890566687E+02 -0.69138516621E+02 -0.18166127720E+02  0.72310076198E+02  0.00000000000E+00 0. -1.
        -12    1    6    6    0    0  0.16052065928E+01 -0.15900244455E+02 -0.39897841961E+02  0.42979439911E+02  0.00000000000E+00 0.  1.
</event>
<event>
12    1  0.1030140E-001  0.5879684E+03  0.7818608E-02  0.9930739E-01
         21   -1    0    0  501  502  0.00000000000E+00  0.00000000000E+00  0.25390005696E+03  0.25390005696E+03  0.00000000000E+00 0.  1.
         21   -1    0    0  502  503 -0.00000000000E+00 -0.00000000000E+00 -0.13668547782E+04  0.13668547782E+04  0.00000000000E+00 0. -1.
         -6    2    1    2    0  503  0.26592834392E+03  0.49577005185E+03 -0.60780816316E+03  0.84559044652E+03  0.17054797458E+03 0.  0.
        -24    2    3    3    0    0  0.24626268349E+03  0.42577491297E+03 -0.58649791418E+03  0.76968080037E+03  0.80617276878E+02 0.  0.
          6    2    1    2  501    0 -0.26592834392E+03 -0.49577005185E+03 -0.50514655803E+03  0.77516438859E+03  0.17088287172E+03 0.  0.
         24    2    5    5    0    0 -0.14858572419E+03 -0.20364346090E+03 -0.27653239524E+03  0.38607087673E+03  0.95037780093E+02 0.  0.
          5    1    5    5  501    0 -0.11734261974E+03 -0.29212659095E+03 -0.22861416279E+03  0.38909351186E+03  0.47000000000E+01 0. -1.
        -13    1    6    6    0    0 -0.17412035674E+02 -0.99042131169E+02 -0.87240234593E+02  0.13312919013E+03  0.00000000000E+00 0.  1.
         14    1    6    6    0    0 -0.13117368851E+03 -0.10460132973E+03 -0.18929216064E+03  0.25294168660E+03  0.00000000000E+00 0. -1.
         -5    1    3    3    0  503  0.19665660432E+02  0.69995138881E+02 -0.21310248985E+02  0.75909646153E+02  0.47000000000E+01 0.  1.
         13    1    4    4    0    0  0.12161956298E+02  0.88799195167E+01 -0.30765689554E+01  0.15369821995E+02  0.00000000000E+00 0. -1.
        -14    1    4    4    0    0  0.23410072719E+03  0.41689499345E+03 -0.58342134522E+03  0.75431097838E+03  0.00000000000E+00 0.  1.
</event>
<event>
12    1  0.1030140E-001  0.1986923E+03  0.7818608E-02  0.1151072E+00
         21   -1    0    0  501  502  0.00000000000E+00  0.00000000000E+00  0.82533130417E+03  0.82533130417E+03  0.00000000000E+00 0. -1.
         21   -1    0    0  502  503 -0.00000000000E+00 -0.00000000000E+00 -0.69200993094E+02  0.69200993094E+02  0.00000000000E+00 0. -1.
         -6    2    1    2    0  503 -0.35413476239E+02  0.88273062669E+02  0.12736975581E+03  0.23512463030E+03  0.17324632517E+03 0.  0.
        -24    2    3    3    0    0  0.34717398771E+02  0.35289061100E+01  0.45005075760E+02  0.97625749501E+02  0.79294256826E+02 0.  0.
          6    2    1    2  501    0  0.35413476239E+02 -0.88273062669E+02  0.62876055527E+03  0.65940766697E+03  0.17444881055E+03 0.  0.
         24    2    5    5    0    0 -0.30963956944E+02 -0.69261392829E+02  0.23173114209E+03  0.25639172168E+03  0.79255823548E+02 0.  0.
          5    1    5    5  501    0  0.66377433183E+02 -0.19011669839E+02  0.39702941318E+03  0.40301594529E+03  0.47000000000E+01 0. -1.
        -13    1    6    6    0    0 -0.51950143371E+01 -0.41583437771E+02  0.30992507504E+02  0.52122029816E+02  0.00000000000E+00 0.  1.
         14    1    6    6    0    0 -0.25768942607E+02 -0.27677955059E+02  0.20073863458E+03  0.20426969186E+03  0.00000000000E+00 0. -1.
         -5    1    3    3    0  503 -0.70130875009E+02  0.84744156559E+02  0.82364680048E+02  0.13749888080E+03  0.47000000000E+01 0.  1.
         11    1    4    4    0    0  0.36045144273E+02  0.31502740061E+02  0.40923809140E+01  0.48046047065E+02  0.00000000000E+00 0. -1.
        -12    1    4    4    0    0 -0.13277455025E+01 -0.27973833951E+02  0.40912694846E+02  0.49579702435E+02  0.00000000000E+00 0.  1.
</event>
<event>
12    1  0.1030140E-001  0.2342268E+03  0.7818608E-02  0.1124070E+00
         21   -1    0    0  503  502  0.00000000000E+00  0.00000000000E+00  0.25985571130E+04  0.25985571130E+04  0.00000000000E+00 0.  1.
         21   -1    0    0  501  503 -0.00000000000E+00 -0.00000000000E+00 -0.21770616254E+02  0.21770616254E+02  0.00000000000E+00 0. -1.
          6    2    1    2  501    0  0.13501664203E+03  0.84361604918E+02  0.15417181864E+04  0.15590885461E+04  0.16886608357E+03 0.  0.
         24    2    3    3    0    0  0.42891380021E+02 -0.15455185798E+02  0.78347059780E+03  0.78875618194E+03  0.78940507169E+02 0.  0.
         -6    2    1    2    0  502 -0.13501664203E+03 -0.84361604918E+02  0.10350683104E+04  0.10612391832E+04  0.17180169629E+03 0.  0.
        -24    2    5    5    0    0 -0.11515124142E+03 -0.12310026202E+03  0.83443737465E+03  0.85588539079E+03  0.88547089420E+02 0.  0.
          5    1    3    3  501    0  0.92125262012E+02  0.99816790717E+02  0.75824758862E+03  0.77033236415E+03  0.47000000000E+01 0. -1.
        -13    1    4    4    0    0  0.17396889915E+02  0.28142457755E+02  0.47754460110E+03  0.47868935203E+03  0.00000000000E+00 0.  1.
         14    1    4    4    0    0  0.25494490106E+02 -0.43597643553E+02  0.30592599670E+03  0.31006682991E+03  0.00000000000E+00 0. -1.
         -5    1    5    5    0  502 -0.19865400617E+02  0.38738657100E+02  0.20063093573E+03  0.20535379243E+03  0.47000000000E+01 0.  1.
         11    1    6    6    0    0 -0.28275025401E+02 -0.40015767529E+02  0.96558636611E+02  0.10827884843E+03  0.00000000000E+00 0. -1.
        -12    1    6    6    0    0 -0.86876216014E+02 -0.83084494490E+02  0.73787873804E+03  0.74760654236E+03  0.00000000000E+00 0.  1.
</event>
