<event>
12    1  0.1681255E-001  0.2195468E+03  0.7818608E-02  0.1134279E+00
         21   -1    0    0  503  502  0.00000000000E+00  0.00000000000E+00  0.77755820478E+03  0.77755820478E+03  0.00000000000E+00 0. -1.
         21   -1    0    0  501  503 -0.00000000000E+00 -0.00000000000E+00 -0.16926383449E+03  0.16926383449E+03  0.00000000000E+00 0. -1.
          6    2    1    2  501    0  0.13118586796E+03  0.34496135711E+02 -0.72807394288E+02  0.23130433544E+03  0.17262984562E+03 0.  0.
         24    2    3    3    0    0  0.83939633029E+02  0.74391063852E+02 -0.93261695943E+02  0.16600287709E+03  0.79242153531E+02 0.  0.
         -6    2    1    2    0  502 -0.13118586796E+03 -0.34496135711E+02  0.68110176458E+03  0.71551770383E+03  0.17223894868E+03 0.  0.
        -24    2    5    5    0    0 -0.67071249984E+02 -0.33554421953E+02  0.60976364276E+03  0.61948235258E+03  0.79512472771E+02 0.  0.
          5    1    3    3  501    0  0.47246234933E+02 -0.39894928142E+02  0.20454301655E+02  0.65301458353E+02  0.47000000000E+01 0. -1.
        -11    1    4    4    0    0  0.23308785015E+01  0.18426120283E+02  0.11539862234E+02  0.21866031273E+02  0.00000000000E+00 0.  1.
         12    1    4    4    0    0  0.81608754528E+02  0.55964943570E+02 -0.10480155818E+03  0.14413684581E+03  0.00000000000E+00 0. -1.
         -5    1    5    5    0  502 -0.64114617978E+02 -0.94171375784E+00  0.71338121822E+02  0.96035351243E+02  0.47000000000E+01 0.  1.
         13    1    6    6    0    0 -0.33153487514E+02 -0.58404107574E+02  0.36221622510E+03  0.36838945050E+03  0.00000000000E+00 0. -1.
        -14    1    6    6    0    0 -0.33917762470E+02  0.24849685621E+02  0.24754741765E+03  0.25109290208E+03  0.00000000000E+00 0.  1.
</event>
<event>
12    1  0.1681255E-001  0.2492590E+03  0.7818608E-02  0.1113914E+00
         21   -1    0    0  503  502  0.00000000000E+00  0.00000000000E+00  0.43799273675E+03  0.43799273675E+03  0.00000000000E+00 0.  1.
         21   -1    0    0  501  503 -0.00000000000E+00 -0.00000000000E+00 -0.15948637740E+03  0.15948637740E+03  0.00000000000E+00 0.  1.
          6    2    1    2  501    0  0.83657334713E+01 -0.18052818256E+03  0.38292447590E+02  0.25131037643E+03  0.17038246261E+03 0.  0.
         24    2    3    3    0    0 -0.24951586813E+02 -0.14627294060E+03 -0.26081677340E+02  0.17100107813E+03  0.80887329000E+02 0.  0.
         -6    2    1    2    0  502 -0.83657334713E+01  0.18052818256E+03  0.24021391177E+03  0.34616873772E+03  0.17166729849E+03 0.  0.
        -24    2    5    5    0    0 -0.24102241556E+02  0.10196729828E+03  0.23517358298E+03  0.26575141906E+03  0.65870741871E+02 0.  0.
          5    1    3    3  501    0  0.33317320284E+02 -0.34255241959E+02  0.64374124930E+02  0.80309298298E+02  0.47000000000E+01 0. -1.
        -11    1    4    4    0    0 -0.15786072000E+02 -0.15519391834E+02  0.22167708819E+02  0.31328244546E+02  0.00000000000E+00 0.  1.
         12    1    4    4    0    0 -0.91655148132E+01 -0.13075354877E+03 -0.48249386158E+02  0.13967283359E+03  0.00000000000E+00 0. -1.
         -5    1    5    5    0  502  0.15736508085E+02  0.78560884283E+02  0.50403287869E+01  0.80417318659E+02  0.47000000000E+01 0.  1.
         11    1    6    6    0    0  0.11444517269E+02  0.82144071177E+02  0.16328067956E+03  0.18313712274E+03  0.00000000000E+00 0. -1.
        -12    1    6    6    0    0 -0.35546758825E+02  0.19823227105E+02  0.71892903415E+02  0.82614296325E+02  0.00000000000E+00 0.  1.
</event>
<event>
12    1  0.1681255E-001  0.1835301E+03  0.7818608E-02  0.1164493E+00
         21   -1    0    0  501  502  0.00000000000E+00  0.00000000000E+00  0.24371496659E+02  0.24371496659E+02  0.00000000000E+00 0.  1.
         21   -1    0    0  502  503 -0.00000000000E+00 -0.00000000000E+00 -0.14904435859E+04  0.14904435859E+04  0.00000000000E+00 0.  1.
         -6    2    1    2    0  503  0.93876168434E+01  0.64482085080E+02 -0.93865755073E+03  0.95638031435E+03  0.17128701493E+03 0.  0.
        -24    2    3    3    0    0  0.52398714604E+02  0.90123253907E+02 -0.73598630644E+03  0.74756185891E+03  0.79404429615E+02 0.  0.
          6    2    1    2  501    0 -0.93876168434E+01 -0.64482085080E+02 -0.52741453853E+03  0.55843476823E+03  0.17157280749E+03 0.  0.
         24    2    5    5    0    0 -0.67278814676E+00 -0.50177268110E+02 -0.53199314703E+03  0.54044505774E+03  0.80906990280E+02 0.  0.
          5    1    5    5  501    0 -0.87148286967E+01 -0.14304816970E+02  0.45786084940E+01  0.17989710490E+02  0.47000000000E+01 0. -1.
        -11    1    6    6    0    0 -0.19112260955E+02 -0.55716614341E+02 -0.21664981632E+03  0.22451450408E+03  0.00000000000E+00 0.  1.
         12    1    6    6    0    0  0.18439472808E+02  0.55393462306E+01 -0.31534333071E+03  0.31593055366E+03  0.00000000000E+00 0. -1.
         -5    1    3    3    0  503 -0.43011097761E+02 -0.25641168827E+02 -0.20267124428E+03  0.20881845543E+03  0.47000000000E+01 0.  1.
         13    1    4    4    0    0 -0.17394221975E+02  0.30551556607E+02 -0.29801343758E+03  0.30007993193E+03  0.00000000000E+00 0. -1.
        -14    1    4    4    0    0  0.69792936579E+02  0.59571697301E+02 -0.43797286886E+03  0.44748192698E+03  0.00000000000E+00 0.  1.
</event>
<event>
12    1  0.1681255E-001  0.1855792E+03  0.7818608E-02  0.1163546E+00
         21   -1    0    0  501  502  0.00000000000E+00  0.00000000000E+00  0.74562448650E+02  0.74562448650E+02  0.00000000000E+00 0. -1.
         21   -1    0    0  502  503 -0.00000000000E+00 -0.00000000000E+00 -0.51437133908E+03  0.51437133908E+03  0.00000000000E+00 0. -1.
         -6    2    1    2    0  503  0.13863234033E+02  0.51959394073E+02 -0.32093865209E+03  0.36854826118E+03  0.17301512803E+03 0.  0.
        -24    2    3    3    0    0 -0.57073684905E+02  0.19573792826E+02 -0.15289162513E+03  0.18323024559E+03  0.80974903439E+02 0.  0.
          6    2    1    2  501    0 -0.13863234033E+02 -0.51959394073E+02 -0.11887023834E+03  0.22038552655E+03  0.17761666267E+03 0.  0.
         24    2    5    5    0    0 -0.72238140500E+02 -0.58201483154E+02 -0.10238740941E+03  0.15922698642E+03  0.79147267887E+02 0.  0.
          5    1    5    5  501    0  0.58374906468E+02  0.62420890806E+01 -0.16482828934E+02  0.61158540130E+02  0.47000000000E+01 0. -1.
        -11    1    6    6    0    0 -0.39532487114E+02 -0.65978663243E+02 -0.36236618598E+02  0.85024079343E+02  0.00000000000E+00 0.  1.
         12    1    6    6    0    0 -0.32705653386E+02  0.77771800889E+01 -0.66150790808E+02  0.74202907073E+02  0.00000000000E+00 0. -1.
         -5    1    3    3    0  503  0.70936918937E+02  0.32385601248E+02 -0.16804702695E+03  0.18531801560E+03  0.47000000000E+01 0.  1.
         11    1    4    4    0    0  0.29795909990E+01  0.37379337765E+02 -0.46104089760E+02  0.59427939110E+02  0.00000000000E+00 0. -1.
        -12    1    4    4    0    0 -0.60053275904E+02 -0.17805544939E+02 -0.10678753537E+03  0.12380230648E+03  0.00000000000E+00 0.  1.
</event>
<event>
12    1  0.1681255E-001  0.2628593E+03  0.7818608E-02  0.1105464E+00
         21   -1    0    0  503  502  0.00000000000E+00  0.00000000000E+00  0.82468725895E+02  0.82468725895E+02  0.00000000000E+00 0. -1.
         21   -1    0    0  501  503 -0.00000000000E+00 -0.00000000000E+00 -0.10727639219E+04  0.10727639219E+04  0.00000000000E+00 0. -1.
          6    2    1    2  501    0  0.19820393670E+03 -0.72290616258E+01 -0.76565084229E+03  0.80945803183E+03  0.17223249732E+03 0.  0.
         24    2    3    3    0    0  0.45011022929E+02  0.13986215698E+02 -0.17743163449E+03  0.20122938794E+03  0.82399485661E+02 0.  0.
         -6    2    1    2    0  502 -0.19820393670E+03  0.72290616258E+01 -0.22464435367E+03  0.34577461593E+03  0.17250489711E+03 0.  0.
        -24    2    5    5    0    0 -0.12694773038E+03 -0.58037887130E+02 -0.10454682084E+03  0.19155811574E+03  0.79248667903E+02 0.  0.
          5    1    3    3  501    0  0.15319291377E+03 -0.21215277324E+02 -0.58821920780E+03  0.60822864389E+03  0.47000000000E+01 0. -1.
        -13    1    4    4    0    0  0.10781743864E+02 -0.33143720951E+02 -0.48238034697E+02  0.59511849498E+02  0.00000000000E+00 0.  1.
         14    1    4    4    0    0  0.34229279066E+02  0.47129936649E+02 -0.12919359980E+03  0.14171753844E+03  0.00000000000E+00 0. -1.
         -5    1    5    5    0  502 -0.71256206321E+02  0.65266948756E+02 -0.12009753283E+03  0.15421650019E+03  0.47000000000E+01 0.  1.
         13    1    6    6    0    0 -0.10494461687E+03 -0.26605328683E+02 -0.10814070078E+03  0.15302165628E+03  0.00000000000E+00 0. -1.
        -14    1    6    6    0    0 -0.22003113507E+02 -0.31432558447E+02  0.35938799364E+01  0.38536459457E+02  0.00000000000E+00 0.  1.
</event>
<event>
12    1  0.1681255E-001  0.1831693E+03  0.7818608E-02  0.1164897E+00
         21   -1    0    0  501  502  0.00000000000E+00  0.00000000000E+00  0.43945628709E+02  0.43945628709E+02  0.00000000000E+00 0.  1.
         21   -1    0    0  502  503 -0.00000000000E+00 -0.00000000000E+00 -0.78698580039E+03  0.78698580039E+03  0.00000000000E+00 0.  1.
         -6    2    1    2    0  503 -0.56271501962E+02  0.29427484466E+02 -0.29585583606E+03  0.34768737686E+03  0.17124070055E+03 0.  0.
        -24    2    3    3    0    0 -0.49458517196E+02 -0.84591563323E+01 -0.29406364265E+03  0.30886578146E+03  0.80043380619E+02 0.  0.
          6    2    1    2  501    0  0.56271501962E+02 -0.29427484466E+02 -0.44718433562E+03  0.48324405223E+03  0.17180956091E+03 0.  0.
         24    2    5    5    0    0  0.92658174992E+02  0.15378414947E+02 -0.33832055329E+03  0.35993561092E+03  0.79188472578E+02 0.  0.
          5    1    5    5  501    0 -0.36386673030E+02 -0.44805899413E+02 -0.10886378233E+03  0.12330844131E+03  0.47000000000E+01 0. -1.
        -11    1    6    6    0    0  0.30251786702E+02  0.44622110056E+02 -0.15205665888E+03  0.16133050181E+03  0.00000000000E+00 0.  1.
         12    1    6    6    0    0  0.62406388290E+02 -0.29243695109E+02 -0.18626389442E+03  0.19860510911E+03  0.00000000000E+00 0. -1.
         -5    1    3    3    0  503 -0.68129847658E+01  0.37886640798E+02 -0.17921934107E+01  0.38821595403E+02  0.47000000000E+01 0.  1.
         11    1    4    4    0    0  0.15907279128E+02  0.56260648088E+01 -0.13871988477E+03  0.13974226478E+03  0.00000000000E+00 0. -1.
        -12    1    4    4    0    0 -0.65365796324E+02 -0.14085221141E+02 -0.15534375788E+03  0.16912351668E+03  0.00000000000E+00 0.  1.
</event>
<event>
12    1  0.1681255E-001  0.2032039E+03  0.7818608E-02  0.1147188E+00
         21   -1    0    0  503  502  0.00000000000E+00  0.00000000000E+00  0.48451036633E+02  0.48451036633E+02  0.00000000000E+00 0. -1.
         21   -1    0    0  501  503 -0.00000000000E+00 -0.00000000000E+00 -0.88482415391E+03  0.88482415391E+03  0.00000000000E+00 0. -1.
          6    2    1    2  501    0  0.82647128634E+01  0.10848707686E+03 -0.32583347738E+03  0.38400427740E+03  0.17162190640E+03 0.  0.
         24    2    3    3    0    0 -0.92502823703E+01  0.22404256033E+02 -0.26602975722E+03  0.27762945874E+03  0.75622524588E+02 0.  0.
         -6    2    1    2    0  502 -0.82647128634E+01 -0.10848707686E+03 -0.51053963989E+03  0.54927091314E+03  0.17090951055E+03 0.  0.
        -24    2    5    5    0    0 -0.25448548123E+02  0.50503013404E+01 -0.26617930364E+03  0.27923372242E+03  0.80292688968E+02 0.  0.
          5    1    3    3  501    0  0.17514995234E+02  0.86082820822E+02 -0.59803720167E+02  0.10637481866E+03  0.47000000000E+01 0. -1.
        -13    1    4    4    0    0  0.18781137961E+01  0.23351726335E+02 -0.26541180281E+03  0.26644371921E+03  0.00000000000E+00 0.  1.
         14    1    4    4    0    0 -0.11128396166E+02 -0.94747030200E+00 -0.61795440161E+00  0.11185739531E+02  0.00000000000E+00 0. -1.
         -5    1    5    5    0  502  0.17183835259E+02 -0.11353737820E+03 -0.24436033625E+03  0.27003719072E+03  0.47000000000E+01 0.  1.
         13    1    6    6    0    0  0.29285646781E+02  0.32923821788E+01 -0.85385937976E+02  0.90328551919E+02  0.00000000000E+00 0. -1.
        -14    1    6    6    0    0 -0.54734194904E+02  0.17579191616E+01 -0.18079336567E+03  0.18890517050E+03  0.00000000000E+00 0.  1.
</event>
<event>
12    1  0.1681255E-001  0.1932272E+03  0.7818608E-02  0.1155678E+00
         21   -1    0    0  503  502  0.00000000000E+00  0.00000000000E+00  0.94272556119E+03  0.94272556119E+03  0.00000000000E+00 0.  1.
         21   -1    0    0  501  503 -0.00000000000E+00 -0.00000000000E+00 -0.46644109827E+02  0.46644109827E+02  0.00000000000E+00 0.  1.
          6    2    1    2  501    0 -0.70871759050E+02  0.53714113162E+02  0.25424402794E+03  0.31907718469E+03  0.17106201175E+03 0.  0.
         24    2    3    3    0    0 -0.10713689577E+03  0.43123738583E+02  0.24142900284E+03  0.27890715801E+03  0.78506484507E+02 0.  0.
         -6    2    1    2    0  502  0.70871759050E+02 -0.53714113162E+02  0.64183742343E+03  0.67029248633E+03  0.17154803098E+03 0.  0.
        -24    2    5    5    0    0 -0.27092541581E+02 -0.41042662411E+02  0.32476779676E+03  0.33815876624E+03  0.80366183361E+02 0.  0.
          5    1    3    3  501    0  0.36265136724E+02  0.10590374579E+02  0.12815025095E+02  0.40170026681E+02  0.47000000000E+01 0. -1.
        -11    1    4    4    0    0 -0.76773026934E+02  0.36275206569E+02  0.23094860888E+03  0.24606350445E+03  0.00000000000E+00 0.  1.
         12    1    4    4    0    0 -0.30363868841E+02  0.68485320144E+01  0.10480393960E+02  0.32843653562E+02  0.00000000000E+00 0. -1.
         -5    1    5    5    0  502  0.97964300631E+02 -0.12671450751E+02  0.31706962667E+03  0.33213372009E+03  0.47000000000E+01 0.  1.
         13    1    6    6    0    0 -0.18547765964E+02 -0.60078775991E+02  0.15738071015E+03  0.16947615429E+03  0.00000000000E+00 0. -1.
        -14    1    6    6    0    0 -0.85447756168E+01  0.19036113580E+02  0.16738708661E+03  0.16868261195E+03  0.00000000000E+00 0.  1.
</event>
<event>
12    1  0.1681255E-001  0.2811474E+03  0.7818608E-02  0.1095099E+00
         21   -1    0    0  501  502  0.00000000000E+00  0.00000000000E+00  0.10351926463E+03  0.10351926463E+03  0.00000000000E+00 0. -1.
         21   -1    0    0  502  503 -0.00000000000E+00 -0.00000000000E+00 -0.88144720850E+03  0.88144720850E+03  0.00000000000E+00 0. -1.
         -6    2    1    2    0  503  0.16150657208E+03 -0.15179520043E+03 -0.56944401002E+03  0.63495303574E+03  0.17254773644E+03 0.  0.
        -24    2    3    3    0    0  0.91700036323E+02 -0.12057817814E+03 -0.51040653600E+03  0.53823195090E+03  0.78935462694E+02 0.  0.
          6    2    1    2  501    0 -0.16150657208E+03  0.15179520043E+03 -0.20848393385E+03  0.35001343739E+03  0.17296733790E+03 0.  0.
         24    2    5    5    0    0 -0.29904732276E+02 -0.89927536816E+01 -0.24206626362E+02  0.72250901250E+02  0.60490241696E+02 0.  0.
          5    1    5    5  501    0 -0.13160183980E+03  0.16078795411E+03 -0.18427730749E+03  0.27776253614E+03  0.47000000000E+01 0. -1.
        -11    1    6    6    0    0 -0.23733148431E+02 -0.27116567342E+02 -0.35031273244E+02  0.50256946424E+02  0.00000000000E+00 0.  1.
         12    1    6    6    0    0 -0.61715838453E+01  0.18123813660E+02  0.10824646882E+02  0.21993954826E+02  0.00000000000E+00 0. -1.
         -5    1    3    3    0  503  0.69806535754E+02 -0.31217022287E+02 -0.59037474020E+02  0.96721084843E+02  0.47000000000E+01 0.  1.
         11    1    4    4    0    0  0.10444866403E+03 -0.11047772217E+03 -0.48299034942E+03  0.50635415289E+03  0.00000000000E+00 0. -1.
        -12    1    4    4    0    0 -0.12748627712E+02 -0.10100455973E+02 -0.27416186582E+02  0.31877798013E+02  0.00000000000E+00 0.  1.
</event>
<event>
12    1  0.1681255E-001  0.2245253E+03  0.7818608E-02  0.1130730E+00
         21   -1    0    0  503  502  0.00000000000E+00  0.00000000000E+00  0.76690984406E+02  0.76690984406E+02  0.00000000000E+00 0.  1.
         21   -1    0    0  501  503 -0.00000000000E+00 -0.00000000000E+00 -0.65550404791E+03  0.65550404791E+03  0.00000000000E+00 0.  1.
          6    2    1    2  501    0  0.13076100768E+02  0.14249530263E+03 -0.27571438601E+03  0.35557000576E+03  0.17301939389E+03 0.  0.
         24    2    3    3    0    0  0.52102259757E+02  0.15570564135E+03 -0.21400313175E+03  0.28122000215E+03  0.79551599536E+02 0.  0.
         -6    2    1    2    0  502 -0.13076100768E+02 -0.14249530263E+03 -0.30309867749E+03  0.37662502655E+03  0.17176060855E+03 0.  0.
        -24    2    5    5    0    0 -0.15854103517E+02 -0.72447505805E+00 -0.11793822976E+03  0.14335872755E+03  0.79940110473E+02 0.  0.
          5    1    3    3  501    0 -0.39026158989E+02 -0.13210338724E+02 -0.61711254264E+02  0.74350003615E+02  0.47000000000E+01 0. -1.
        -13    1    4    4    0    0  0.66779522963E+02  0.87492843088E+02 -0.10718784088E+03  0.15363507253E+03  0.00000000000E+00 0.  1.
         14    1    4    4    0    0 -0.14677263206E+02  0.68212798263E+02 -0.10681529086E+03  0.12758492961E+03  0.00000000000E+00 0. -1.
         -5    1    5    5    0  502  0.27780027492E+01 -0.14177082757E+03 -0.18516044773E+03  0.23326629901E+03  0.47000000000E+01 0.  1.
         11    1    6    6    0    0 -0.40301925809E+02  0.20120817646E+02 -0.90572133568E+02  0.10115534541E+03  0.00000000000E+00 0. -1.
        -12    1    6    6    0    0  0.24447822292E+02 -0.20845292704E+02 -0.27366096193E+02  0.42203382134E+02  0.00000000000E+00 0.  1.
</event>
<event>
12    1  0.1681255E-001  0.2052622E+03  0.7818608E-02  0.1148254E+00
         21   -1    0    0  501  502  0.00000000000E+00  0.00000000000E+00  0.38814703758E+03  0.38814703758E+03  0.00000000000E+00 0.  1.
         21   -1    0    0  502  503 -0.00000000000E+00 -0.00000000000E+00 -0.13497259154E+03  0.13497259154E+03  0.00000000000E+00 0.  1.
         -6    2    1    2    0  503  0.32290305630E+02 -0.77819596076E+02  0.26011305030E+03  0.33134778948E+03  0.18717373021E+03 0.  0.
        -24    2    3    3    0    0  0.40045267595E+02 -0.39300958660E+01  0.61959640382E+02  0.11967194877E+03  0.94145149506E+02 0.  0.
          6    2    1    2  501    0 -0.32290305630E+02  0.77819596076E+02 -0.69386042576E+01  0.19177183964E+03  0.17213291632E+03 0.  0.
         24    2    5    5    0    0  0.14906243459E+02  0.91792523855E+02  0.33104129656E+02  0.12814584263E+03  0.81715421148E+02 0.  0.
          5    1    5    5  501    0 -0.47196549089E+02 -0.13972927779E+02 -0.40042733913E+02  0.63625997013E+02  0.47000000000E+01 0. -1.
        -11    1    6    6    0    0 -0.25101009593E+02  0.22429106851E+02  0.34305953955E+02  0.48062708970E+02  0.00000000000E+00 0.  1.
         12    1    6    6    0    0  0.40007253052E+02  0.69363417004E+02 -0.12018242997E+01  0.80083133660E+02  0.00000000000E+00 0. -1.
         -5    1    3    3    0  503 -0.77549619647E+01 -0.73889500210E+02  0.19815340992E+03  0.21167584071E+03  0.47000000000E+01 0.  1.
         13    1    4    4    0    0 -0.29985329418E+02  0.60531301854E+00  0.30468155774E+02  0.42752718048E+02  0.00000000000E+00 0. -1.
        -14    1    4    4    0    0  0.70030597013E+02 -0.45354088845E+01  0.31491484608E+02  0.76919230720E+02  0.00000000000E+00 0.  1.
</event>
<event>
12    1  0.1681255E-001  0.2698294E+03  0.7818608E-02  0.1102253E+00
         21   -1    0    0  503  502  0.00000000000E+00  0.00000000000E+00  0.34994332510E+03  0.34994332510E+03  0.00000000000E+00 0.  1.
         21   -1    0    0  501  503 -0.00000000000E+00 -0.00000000000E+00 -0.26604135161E+03  0.26604135161E+03  0.00000000000E+00 0.  1.
          6    2    1    2  501    0  0.16560646832E+02 -0.20851314341E+03  0.19100249556E+03  0.32567725168E+03  0.16072253405E+03 0.  0.
         24    2    3    3    0    0  0.22339401614E+02 -0.14329429649E+03  0.56067912224E+02  0.17562284894E+03  0.81654577449E+02 0.  0.
         -6    2    1    2    0  502 -0.16560646832E+02  0.20851314341E+03 -0.10710052208E+03  0.29030742503E+03  0.17045789275E+03 0.  0.
        -24    2    5    5    0    0 -0.49604050042E+02  0.16332222405E+03 -0.13101601518E+03  0.22924903905E+03  0.79089917316E+02 0.  0.
          5    1    3    3  501    0 -0.57787547824E+01 -0.65218846920E+02  0.13493458334E+03  0.15005440274E+03  0.47000000000E+01 0. -1.
        -13    1    4    4    0    0 -0.26799665916E+02 -0.89569354486E+02  0.28050140687E+02  0.97609946977E+02  0.00000000000E+00 0.  1.
         14    1    4    4    0    0  0.49139067531E+02 -0.53724942005E+02  0.28017771537E+02  0.78012901966E+02  0.00000000000E+00 0. -1.
         -5    1    5    5    0  502  0.33043403210E+02  0.45190919362E+02  0.23915493104E+02  0.61058385983E+02  0.47000000000E+01 0.  1.
         13    1    6    6    0    0 -0.16685283356E+02  0.11764329884E+03 -0.12525975077E+03  0.17265094731E+03  0.00000000000E+00 0. -1.
        -14    1    6    6    0    0 -0.32918766686E+02  0.45678925209E+02 -0.57562644055E+01  0.56598091738E+02  0.00000000000E+00 0.  1.
</event>
<event>
12    1  0.1681255E-001  0.1896659E+03  0.7818608E-02  0.1159244E+00
         21   -1    0    0  503  502  0.00000000000E+00  0.00000000000E+00  0.40351013650E+03  0.40351013650E+03  0.00000000000E+00 0.  1.
         21   -1    0    0  501  503 -0.00000000000E+00 -0.00000000000E+00 -0.10480292103E+03  0.10480292103E+03  0.00000000000E+00 0.  1.
          6    2    1    2  501    0 -0.76135465220E+02 -0.17170777458E+02  0.48773464485E+02  0.19583665125E+03  0.17286323632E+03 0.  0.
         24    2    3    3    0    0 -0.10555066924E+03  0.87759282286E+01  0.68643501279E+00  0.13360371650E+03  0.81434152395E+02 0.  0.
         -6    2    1    2    0  502  0.76135465220E+02  0.17170777458E+02  0.24993375099E+03  0.31247640629E+03  0.17053791350E+03 0.  0.
        -24    2    5    5    0    0  0.76598026542E+02 -0.47926743452E+02  0.12847211621E+03  0.17458906128E+03  0.76236639920E+02 0.  0.
          5    1    3    3  501    0  0.29415204023E+02 -0.25946705687E+02  0.48087029472E+02  0.62232934747E+02  0.47000000000E+01 0. -1.
        -11    1    4    4    0    0 -0.62510026627E+02  0.21856681686E+02  0.36941464831E+02  0.75828027715E+02  0.00000000000E+00 0.  1.
         12    1    4    4    0    0 -0.43040642616E+02 -0.13080753457E+02 -0.36255029818E+02  0.57775688788E+02  0.00000000000E+00 0. -1.
         -5    1    5    5    0  502 -0.46256132248E+00  0.65097520911E+02  0.12146163478E+03  0.13788734501E+03  0.47000000000E+01 0.  1.
         13    1    6    6    0    0  0.57145127599E+01  0.16011526218E+01 -0.98278119074E+01  0.11480646005E+02  0.00000000000E+00 0. -1.
        -14    1    6    6    0    0  0.70883513782E+02 -0.49527896074E+02  0.13829992812E+03  0.16310841527E+03  0.00000000000E+00 0.  1.
</event>
<event>
12    1  0.1681255E-001  0.4065470E+03  0.7818608E-02  0.1041606E+00
         21   -1    0    0  503  502  0.00000000000E+00  0.00000000000E+00  0.84982665351E+03  0.84982665351E+03  0.00000000000E+00 0. -1.
         21   -1    0    0  501  503 -0.00000000000E+00 -0.00000000000E+00 -0.21332311126E+03  0.21332311126E+03  0.00000000000E+00 0. -1.
          6    2    1    2  501    0  0.19143663524E+01  0.36779879478E+03  0.47756401161E+03  0.62663831953E+03  0.17125589065E+03 0.  0.
         24    2    3    3    0    0 -0.18022872874E+02  0.16857160390E+03  0.32465450213E+03  0.37466138570E+03  0.78926539230E+02 0.  0.
         -6    2    1    2    0  502 -0.19143663524E+01 -0.36779879478E+03  0.15893953064E+03  0.43651144523E+03  0.17320753211E+03 0.  0.
        -24    2    5    5    0    0 -0.52115887274E+02 -0.31277609274E+03  0.99235576713E+02  0.34093769069E+03  0.76458219649E+02 0.  0.
          5    1    3    3  501    0  0.19937239227E+02  0.19922719087E+03  0.15290950948E+03  0.25197693383E+03  0.47000000000E+01 0. -1.
        -13    1    4    4    0    0  0.22624235030E+02  0.77770791479E+02  0.98021890583E+02  0.12715519278E+03  0.00000000000E+00 0.  1.
         14    1    4    4    0    0 -0.40647107904E+02  0.90800812424E+02  0.22663261155E+03  0.24750619292E+03  0.00000000000E+00 0. -1.
         -5    1    5    5    0  502  0.50201520922E+02 -0.55022702039E+02  0.59703953928E+02  0.95573754542E+02  0.47000000000E+01 0.  1.
         11    1    6    6    0    0 -0.23484908947E+02 -0.16112988580E+03  0.90670945296E+02  0.18637489468E+03  0.00000000000E+00 0. -1.
        -12    1    6    6    0    0 -0.28630978327E+02 -0.15164620694E+03  0.85646314170E+01  0.15456279601E+03  0.00000000000E+00 0.  1.
</event>
<event>
12    1  0.1681255E-001  0.1848429E+03  0.7818608E-02  0.1163595E+00
         21   -1    0    0  501  502  0.00000000000E+00  0.00000000000E+00  0.57685337264E+02  0.57685337264E+02  0.00000000000E+00 0.  1.
         21   -1    0    0  502  503 -0.00000000000E+00 -0.00000000000E+00 -0.59799912301E+03  0.59799912301E+03  0.00000000000E+00 0. -1.
         -6    2    1    2    0  503 -0.21434976815E+02 -0.61047639756E+02 -0.31363648385E+03  0.36319602643E+03  0.17133953734E+03 0.  0.
        -24    2    3    3    0    0 -0.12346748554E+02 -0.80910669841E+01 -0.51631425234E+02  0.95696988606E+02  0.79209860445E+02 0.  0.
          6    2    1    2  501    0  0.21434976815E+02  0.61047639756E+02 -0.22667730190E+03  0.29248843385E+03  0.17314910393E+03 0.  0.
         24    2    5    5    0    0 -0.20998322564E+02 -0.22773891997E+02 -0.73450466734E+02  0.11269080568E+03  0.79653417469E+02 0.  0.
          5    1    5    5  501    0  0.42433299379E+02  0.83821531753E+02 -0.15322683516E+03  0.17979762817E+03  0.47000000000E+01 0. -1.
        -13    1    6    6    0    0  0.93172457572E+01 -0.17344365402E+02 -0.78982931572E+02  0.81399886729E+02  0.00000000000E+00 0.  1.
         14    1    6    6    0    0 -0.30315568321E+02 -0.54295265955E+01  0.55324648384E+01  0.31290918952E+02  0.00000000000E+00 0. -1.
         -5    1    3    3    0  503 -0.90882282606E+01 -0.52956572772E+02 -0.26200505862E+03  0.26749903782E+03  0.47000000000E+01 0.  1.
         13    1    4    4    0    0 -0.84593953090E+01 -0.28055694431E+02 -0.65039291292E+02  0.71335774831E+02  0.00000000000E+00 0. -1.
        -14    1    4    4    0    0 -0.38873532452E+01  0.19964627447E+02  0.13407866058E+02  0.24361213775E+02  0.00000000000E+00 0.  1.
</event>
<event>
12    1  0.1681255E-001  0.2074604E+03  0.7818608E-02  0.1143620E+00
         21   -1    0    0  503  502  0.00000000000E+00  0.00000000000E+00  0.53692133876E+02  0.53692133876E+02  0.00000000000E+00 0.  1.
         21   -1    0    0  501  503 -0.00000000000E+00 -0.00000000000E+00 -0.23226447397E+04  0.23226447397E+04  0.00000000000E+00 0.  1.
          6    2    1    2  501    0  0.57789115749E+02 -0.99824850749E+02 -0.20960307687E+04  0.21062595121E+04  0.17227758422E+03 0.  0.
         24    2    3    3    0    0  0.83869299849E+02 -0.53481182535E+02 -0.18566506524E+04  0.18609987495E+04  0.79185883091E+02 0.  0.
         -6    2    1    2    0  502 -0.57789115749E+02  0.99824850749E+02 -0.17292183708E+03  0.27007736149E+03  0.17243908119E+03 0.  0.
        -24    2    5    5    0    0 -0.12325456774E+02 -0.14328024143E+02 -0.45895463737E+02  0.93284791909E+02  0.78983856890E+02 0.  0.
          5    1    3    3  501    0 -0.26080184100E+02 -0.46343668214E+02 -0.23938011629E+03  0.24526076258E+03  0.47000000000E+01 0. -1.
        -11    1    4    4    0    0  0.59225968291E+02 -0.62591753331E+02 -0.93206014667E+03  0.93603502067E+03  0.00000000000E+00 0.  1.
         12    1    4    4    0    0  0.24643331557E+02  0.91105707963E+01 -0.92459050576E+03  0.92496372882E+03  0.00000000000E+00 0. -1.
         -5    1    5    5    0  502 -0.45463658975E+02  0.11415287489E+03 -0.12702637335E+03  0.17679256958E+03  0.47000000000E+01 0.  1.
         13    1    6    6    0    0 -0.11206352726E+02 -0.33954394411E+02 -0.59472644675E+02  0.69393650329E+02  0.00000000000E+00 0. -1.
        -14    1    6    6    0    0 -0.11191040475E+01  0.19626370269E+02  0.13577180938E+02  0.23891141580E+02  0.00000000000E+00 0.  1.
</event>
<event>
12    1  0.1681255E-001  0.1799046E+03  0.7818608E-02  0.1168494E+00
         21   -1    0    0  501  502  0.00000000000E+00  0.00000000000E+00  0.29847733147E+03  0.29847733147E+03  0.00000000000E+00 0.  1.
         21   -1    0    0  502  503 -0.00000000000E+00 -0.00000000000E+00 -0.10836117509E+03  0.10836117509E+03  0.00000000000E+00 0.  1.
         -6    2    1    2    0  503 -0.36204037143E+02 -0.39696900998E+02  0.11882325270E+03  0.21560296190E+03  0.17169477436E+03 0.  0.
        -24    2    3    3    0    0  0.25514245919E+02 -0.38617162063E+02  0.12257240187E+03  0.15358313911E+03  0.80134418123E+02 0.  0.
          6    2    1    2  501    0  0.36204037143E+02  0.39696900998E+02  0.71292903673E+02  0.19123554466E+03  0.16912060541E+03 0.  0.
         24    2    5    5    0    0  0.88391947938E+02  0.21491236950E+02  0.59118925244E+02  0.13444364394E+03  0.79404259005E+02 0.  0.
          5    1    5    5  501    0 -0.52187910796E+02  0.18205664047E+02  0.12173978428E+02  0.56791900720E+02  0.47000000000E+01 0. -1.
        -11    1    6    6    0    0  0.54139785753E+02  0.46939201312E+01 -0.10226990036E+02  0.55296840893E+02  0.00000000000E+00 0.  1.
         12    1    6    6    0    0  0.34252162185E+02  0.16797316819E+02  0.69345915280E+02  0.79146803048E+02  0.00000000000E+00 0. -1.
         -5    1    3    3    0  503 -0.61718283062E+02 -0.10797389348E+01 -0.37491491614E+01  0.62019822796E+02  0.47000000000E+01 0.  1.
         13    1    4    4    0    0  0.30955938092E+02  0.15983075561E+02  0.30022429984E+02  0.45989945745E+02  0.00000000000E+00 0. -1.
        -14    1    4    4    0    0 -0.54416921729E+01 -0.54600237624E+02  0.92549971881E+02  0.10759319336E+03  0.00000000000E+00 0.  1.
</event>
<event>
12    1  0.1681255E-001  0.2942157E+03  0.7818608E-02  0.1088219E+00
         21   -1    0    0  503  502  0.00000000000E+00  0.00000000000E+00  0.32657446707E+03  0.32657446707E+03  0.00000000000E+00 0.  1.
         21   -1    0    0  501  503 -0.00000000000E+00 -0.00000000000E+00 -0.49904029992E+03  0.49904029992E+03  0.00000000000E+00 0.  1.
          6    2    1    2  501    0 -0.21062480624E+03  0.11346130398E+03 -0.36907640944E+03  0.47175233141E+03  0.17057722496E+03 0.  0.
         24    2    3    3    0    0 -0.17442021008E+03  0.21829429794E+02 -0.21496728141E+03  0.28877996603E+03  0.79271703729E+02 0.  0.
         -6    2    1    2    0  502  0.21062480624E+03 -0.11346130398E+03  0.19661057660E+03  0.35386243559E+03  0.17125019120E+03 0.  0.
        -24    2    5    5    0    0  0.15328985441E+03 -0.17653572109E+02  0.75353711184E+02  0.18896326762E+03  0.78863848798E+02 0.  0.
          5    1    3    3  501    0 -0.36204596160E+02  0.91631874182E+02 -0.15410912804E+03  0.18297236538E+03  0.47000000000E+01 0. -1.
        -13    1    4    4    0    0 -0.64978474025E+02  0.47224438988E+02 -0.95315277604E+02  0.12464891443E+03  0.00000000000E+00 0.  1.
         14    1    4    4    0    0 -0.10944173606E+03 -0.25395009194E+02 -0.11965200380E+03  0.16413105159E+03  0.00000000000E+00 0. -1.
         -5    1    5    5    0  502  0.57334951832E+02 -0.95807731866E+02  0.12125686541E+03  0.16489916797E+03  0.47000000000E+01 0.  1.
         11    1    6    6    0    0  0.11045141475E+03 -0.40219784166E+02  0.27150630105E+02  0.12064121507E+03  0.00000000000E+00 0. -1.
        -12    1    6    6    0    0  0.42838439660E+02  0.22566212056E+02  0.48203081079E+02  0.68322052549E+02  0.00000000000E+00 0.  1.
</event>
<event>
12    1  0.1681255E-001  0.2089868E+03  0.7818608E-02  0.1143750E+00
         21   -1    0    0  501  502  0.00000000000E+00  0.00000000000E+00  0.40484132559E+02  0.40484132559E+02  0.00000000000E+00 0. -1.
         21   -1    0    0  502  503 -0.00000000000E+00 -0.00000000000E+00 -0.10459315387E+04  0.10459315387E+04  0.00000000000E+00 0. -1.
         -6    2    1    2    0  503  0.70916696749E+02  0.82468084647E+02 -0.53430770047E+03  0.57372485084E+03  0.17845257866E+03 0.  0.
        -24    2    3    3    0    0  0.10476347963E+03  0.76142694910E+02 -0.50768579123E+03  0.52994778700E+03  0.79540541091E+02 0.  0.
          6    2    1    2  501    0 -0.70916696749E+02 -0.82468084647E+02 -0.47113970568E+03  0.51269082042E+03  0.17043794242E+03 0.  0.
         24    2    5    5    0    0 -0.33402741756E+02 -0.11855861155E+03 -0.32560228983E+03  0.35805236349E+03  0.83742201578E+02 0.  0.
          5    1    5    5  501    0 -0.37513954992E+02  0.36090526908E+02 -0.14553741585E+03  0.15463845694E+03  0.47000000000E+01 0. -1.
        -13    1    6    6    0    0  0.62381621961E+01 -0.11028291532E+02 -0.13539885130E+03  0.13599039237E+03  0.00000000000E+00 0.  1.
         14    1    6    6    0    0 -0.39640903953E+02 -0.10753032002E+03 -0.19020343853E+03  0.22206197112E+03  0.00000000000E+00 0. -1.
         -5    1    3    3    0  503 -0.33846782883E+02  0.63253897368E+01 -0.26621909232E+02  0.43777063835E+02  0.47000000000E+01 0.  1.
         11    1    4    4    0    0  0.12515465328E+02  0.53063599107E+02 -0.14216993771E+03  0.15226514247E+03  0.00000000000E+00 0. -1.
        -12    1    4    4    0    0  0.92248014304E+02  0.23079095803E+02 -0.36551585352E+03  0.37768264453E+03  0.00000000000E+00 0.  1.
</event>
<event>
12    1  0.1681255E-001  0.2746561E+03  0.7818608E-02  0.1099464E+00
         21   -1    0    0  501  502  0.00000000000E+00  0.00000000000E+00  0.32094944318E+03  0.32094944318E+03  0.00000000000E+00 0.  1.
         21   -1    0    0  502  503 -0.00000000000E+00 -0.00000000000E+00 -0.34533351280E+03  0.34533351280E+03  0.00000000000E+00 0.  1.
         -6    2    1    2    0  503  0.57624791757E+02 -0.19825643312E+03  0.18032120897E+03  0.32373336720E+03  0.17222463452E+03 0.  0.
        -24    2    3    3    0    0  0.18070810382E+02 -0.12657964908E+03  0.18839577379E+03  0.24133574945E+03  0.80006341203E+02 0.  0.
          6    2    1    2  501    0 -0.57624791757E+02  0.19825643312E+03 -0.20470527859E+03  0.34254958878E+03  0.18113459027E+03 0.  0.
         24    2    5    5    0    0  0.24026626063E+02  0.11560713740E+03 -0.52920933139E+02  0.15134697990E+03  0.78504739889E+02 0.  0.
          5    1    5    5  501    0 -0.81651417820E+02  0.82649295720E+02 -0.15178434545E+03  0.19120260887E+03  0.47000000000E+01 0. -1.
        -13    1    6    6    0    0 -0.17218171530E+02  0.92693633279E+02 -0.40107773786E+02  0.10245588611E+03  0.00000000000E+00 0.  1.
         14    1    6    6    0    0  0.41244797593E+02  0.22913504117E+02 -0.12813159353E+02  0.48891093790E+02  0.00000000000E+00 0. -1.
         -5    1    3    3    0  503  0.39553981375E+02 -0.71676784039E+02 -0.80745648257E+01  0.82397617744E+02  0.47000000000E+01 0.  1.
         11    1    4    4    0    0 -0.89408291798E+01 -0.62846700869E+02  0.33724948608E+02  0.71881975454E+02  0.00000000000E+00 0. -1.
        -12    1    4    4    0    0  0.27011639562E+02 -0.63732948208E+02  0.15467082519E+03  0.16945377400E+03  0.00000000000E+00 0.  1.
</event>
<event>
12    1  0.1681255E-001  0.1960726E+03  0.7818608E-02  0.1155653E+00
         21   -1    0    0  503  502  0.00000000000E+00  0.00000000000E+00  0.84516982712E+02  0.84516982712E+02  0.00000000000E+00 0.  1.
         21   -1    0    0  501  503 -0.00000000000E+00 -0.00000000000E+00 -0.67187164381E+03  0.67187164381E+03  0.00000000000E+00 0.  1.
          6    2    1    2  501    0 -0.57227200383E+02 -0.24938835054E+02 -0.52675936049E+03  0.56206752090E+03  0.18586978302E+03 0.  0.
         24    2    3    3    0    0 -0.39226957100E+02 -0.34239160201E+02 -0.11233294160E+03  0.14711951033E+03  0.79463112811E+02 0.  0.
         -6    2    1    2    0  502  0.57227200383E+02  0.24938835054E+02 -0.60595300612E+02  0.19432110562E+03  0.17375846361E+03 0.  0.
        -24    2    5    5    0    0  0.57496554526E+01  0.18803242619E+02 -0.99557817858E+02  0.12929994847E+03  0.80125508467E+02 0.  0.
          5    1    3    3  501    0 -0.18000243283E+02  0.93003251465E+01 -0.41442641889E+03  0.41494801057E+03  0.47000000000E+01 0. -1.
        -13    1    4    4    0    0 -0.53147548514E+02 -0.39511555488E+02 -0.49857187674E+02  0.82894897870E+02  0.00000000000E+00 0.  1.
         14    1    4    4    0    0  0.13920591414E+02  0.52723952877E+01 -0.62475753926E+02  0.64224612463E+02  0.00000000000E+00 0. -1.
         -5    1    5    5    0  502  0.51477544930E+02  0.61355924350E+01  0.38962517246E+02  0.65021157147E+02  0.47000000000E+01 0.  1.
         11    1    6    6    0    0  0.24214601721E+02 -0.18811943389E+02 -0.74286984650E+02  0.80366611469E+02  0.00000000000E+00 0. -1.
        -12    1    6    6    0    0 -0.18464946269E+02  0.37615186008E+02 -0.25270833207E+02  0.48933337001E+02  0.00000000000E+00 0.  1.
</event>
<event>
12    1  0.1681255E-001  0.2141031E+03  0.7818608E-02  0.1138561E+00
         21   -1    0    0  503  502  0.00000000000E+00  0.00000000000E+00  0.56350033806E+03  0.56350033806E+03  0.00000000000E+00 0.  1.
         21   -1    0    0  501  503 -0.00000000000E+00 -0.00000000000E+00 -0.83345160212E+02  0.83345160212E+02  0.00000000000E+00 0.  1.
          6    2    1    2  501    0  0.12315618210E+03 -0.25518373310E+02  0.18468350892E+03  0.28195696869E+03  0.17196831441E+03 0.  0.
         24    2    3    3    0    0  0.29713671252E+02 -0.73427064626E+02  0.10075030299E+03  0.14744444661E+03  0.72902710551E+02 0.  0.
         -6    2    1    2    0  502 -0.12315618210E+03  0.25518373310E+02  0.29547166893E+03  0.36488852958E+03  0.17326713282E+03 0.  0.
        -24    2    5    5    0    0 -0.99038497635E+01  0.11412720498E+02  0.53559762620E+02  0.97365594797E+02  0.79894145274E+02 0.  0.
          5    1    3    3  501    0  0.93442510851E+02  0.47908691316E+02  0.83933205932E+02  0.13451252208E+03  0.47000000000E+01 0. -1.
        -11    1    4    4    0    0  0.82395744508E+01  0.27672073957E+01 -0.87451278513E+01  0.12329853407E+02  0.00000000000E+00 0.  1.
         12    1    4    4    0    0  0.21474096801E+02 -0.76194272022E+02  0.10949543084E+03  0.13511459321E+03  0.00000000000E+00 0. -1.
         -5    1    5    5    0  502 -0.11325233234E+03  0.14105652812E+02  0.24191190631E+03  0.26752293479E+03  0.47000000000E+01 0.  1.
         13    1    6    6    0    0 -0.13103909786E+02  0.16774321868E+02  0.73474105771E+02  0.76495323679E+02  0.00000000000E+00 0. -1.
        -14    1    6    6    0    0  0.32000600229E+01 -0.53616013705E+01 -0.19914343151E+02  0.20870271119E+02  0.00000000000E+00 0.  1.
</event>
<event>
12    1  0.1681255E-001  0.1770344E+03  0.7818608E-02  0.1170933E+00
         21   -1    0    0  501  502  0.00000000000E+00  0.00000000000E+00  0.59318640340E+02  0.59318640340E+02  0.00000000000E+00 0.  1.
         21   -1    0    0  502  503 -0.00000000000E+00 -0.00000000000E+00 -0.60825246842E+03  0.60825246842E+03  0.00000000000E+00 0.  1.
         -6    2    1    2    0  503  0.26022668507E+02 -0.31950294129E+02 -0.39812741226E+03  0.43571393194E+03  0.17217198819E+03 0.  0.
        -24    2    3    3    0    0 -0.49779244989E+02 -0.36894710176E+02 -0.23065857788E+03  0.25176209632E+03  0.79634042470E+02 0.  0.
          6    2    1    2  501    0 -0.26022668507E+02  0.31950294129E+02 -0.15080641582E+03  0.23185717682E+03  0.17122258852E+03 0.  0.
         24    2    5    5    0    0  0.31835604882E+02  0.16241982498E+02 -0.14802332530E+03  0.17165612661E+03  0.79231390469E+02 0.  0.
          5    1    5    5  501    0 -0.57858273389E+02  0.15708311631E+02 -0.27830905162E+01  0.60201050212E+02  0.47000000000E+01 0. -1.
        -11    1    6    6    0    0 -0.11692465982E+02  0.16844293191E+02 -0.36047319533E+01  0.20819175447E+02  0.00000000000E+00 0.  1.
         12    1    6    6    0    0  0.43528070864E+02 -0.60231069290E+00 -0.14441859335E+03  0.15083695116E+03  0.00000000000E+00 0. -1.
         -5    1    3    3    0  503  0.75801913497E+02  0.49444160473E+01 -0.16746883438E+03  0.18395183562E+03  0.47000000000E+01 0.  1.
         11    1    4    4    0    0 -0.46156098083E+02  0.17929948795E+01 -0.54840270373E+02  0.71701153934E+02  0.00000000000E+00 0. -1.
        -12    1    4    4    0    0 -0.36231469061E+01 -0.38687705056E+02 -0.17581830751E+03  0.18006094238E+03  0.00000000000E+00 0.  1.
</event>
<event>
12    1  0.1681255E-001  0.2019159E+03  0.7818608E-02  0.1148552E+00
         21   -1    0    0  501  502  0.00000000000E+00  0.00000000000E+00  0.67364526161E+03  0.67364526161E+03  0.00000000000E+00 0. -1.
         21   -1    0    0  502  503 -0.00000000000E+00 -0.00000000000E+00 -0.18615535574E+03  0.18615535574E+03  0.00000000000E+00 0.  1.
         -6    2    1    2    0  503  0.10104527310E+03  0.26850294530E+02 -0.10987286483E+03  0.22987401653E+03  0.17273949033E+03 0.  0.
        -24    2    3    3    0    0  0.30966619105E+02  0.31589683099E+02  0.84250018669E+01  0.92215181674E+02  0.80472476646E+02 0.  0.
          6    2    1    2  501    0 -0.10104527310E+03 -0.26850294530E+02  0.59736277070E+03  0.62992660083E+03  0.17039412280E+03 0.  0.
         24    2    5    5    0    0 -0.58838286483E+02  0.20830902031E+02  0.52116613021E+03  0.53051360245E+03  0.77036852687E+02 0.  0.
          5    1    5    5  501    0 -0.42206986619E+02 -0.47681196561E+02  0.76196640485E+02  0.99412998377E+02  0.47000000000E+01 0. -1.
        -11    1    6    6    0    0  0.16246843710E+02  0.10348812901E+02  0.17987047271E+03  0.18089899063E+03  0.00000000000E+00 0.  1.
         12    1    6    6    0    0 -0.75085130193E+02  0.10482089130E+02  0.34129565750E+03  0.34961461182E+03  0.00000000000E+00 0. -1.
         -5    1    3    3    0  503  0.70078653997E+02 -0.47393885692E+01 -0.11829786669E+03  0.13765883486E+03  0.47000000000E+01 0.  1.
         11    1    4    4    0    0  0.30949919549E+02 -0.14100116489E+02  0.26463700475E+02  0.43093366635E+02  0.00000000000E+00 0. -1.
        -12    1    4    4    0    0  0.16699555548E-01  0.45689799588E+02 -0.18038698608E+02  0.49121815039E+02  0.00000000000E+00 0.  1.
</event>
<event>
12    1  0.1681255E-001  0.1914942E+03  0.7818608E-02  0.1158811E+00
         21   -1    0    0  503  502  0.00000000000E+00  0.00000000000E+00  0.93094091496E+03  0.93094091496E+03  0.00000000000E+00 0. -1.
         21   -1    0    0  501  503 -0.00000000000E+00 -0.00000000000E+00 -0.90339744948E+02  0.90339744948E+02  0.00000000000E+00 0. -1.
          6    2    1    2  501    0 -0.45076824518E+02 -0.70796170968E+02  0.34685844282E+02  0.19461024377E+03  0.17212211147E+03 0.  0.
         24    2    3    3    0    0  0.32061467986E+02 -0.82531562661E+02  0.28728259441E+02  0.11621624907E+03  0.69580939146E+02 0.  0.
         -6    2    1    2    0  502  0.45076824518E+02  0.70796170968E+02  0.80591532573E+03  0.82667041614E+03  0.16383054274E+03 0.  0.
        -24    2    5    5    0    0  0.77893920228E+02  0.28438923901E+02  0.37082085645E+03  0.38826377231E+03  0.79777278163E+02 0.  0.
          5    1    3    3  501    0 -0.77138292504E+02  0.11735391693E+02  0.59575848411E+01  0.78393994704E+02  0.47000000000E+01 0. -1.
        -11    1    4    4    0    0  0.88366363795E+01 -0.31790527080E+01  0.32120600231E+02  0.33465287654E+02  0.00000000000E+00 0.  1.
         12    1    4    4    0    0  0.23224831606E+02 -0.79352509953E+02 -0.33923407894E+01  0.82750961414E+02  0.00000000000E+00 0. -1.
         -5    1    5    5    0  502 -0.32817095710E+02  0.42357247067E+02  0.43509446928E+03  0.43840664383E+03  0.47000000000E+01 0.  1.
         13    1    6    6    0    0  0.63706568621E+02 -0.69617022449E+01  0.30938767777E+03  0.31595526161E+03  0.00000000000E+00 0. -1.
        -14    1    6    6    0    0  0.14187351607E+02  0.35400626146E+02  0.61433178678E+02  0.72308510700E+02  0.00000000000E+00 0.  1.
</event>
<event>
12    1  0.1681255E-001  0.1964459E+03  0.7818608E-02  0.1152941E+00
         21   -1    0    0  501  502  0.00000000000E+00  0.00000000000E+00  0.10656587734E+04  0.10656587734E+04  0.00000000000E+00 0. -1.
         21   -1    0    0  502  503 -0.00000000000E+00 -0.00000000000E+00 -0.39198794075E+02  0.39198794075E+02  0.00000000000E+00 0. -1.
         -6    2    1    2    0  503  0.92245396621E+02  0.10493841002E+02  0.35809331192E+03  0.40843827319E+03  0.17312327707E+03 0.  0.
        -24    2    3    3    0    0  0.62329950168E+02  0.74349336407E+02  0.22388177132E+03  0.25675674544E+03  0.79925792362E+02 0.  0.
          6    2    1    2  501    0 -0.92245396621E+02 -0.10493841002E+02  0.66836666739E+03  0.69641929428E+03  0.17223965127E+03 0.  0.
         24    2    5    5    0    0 -0.10714937188E+03  0.13943341797E+02  0.64644455679E+03  0.66006034332E+03  0.78190070632E+02 0.  0.
          5    1    5    5  501    0  0.14903975254E+02 -0.24437182800E+02  0.21922110596E+02  0.36358950955E+02  0.47000000000E+01 0. -1.
        -11    1    6    6    0    0  0.32106721634E+01 -0.70292389710E+01  0.58540574537E+01  0.96947720408E+01  0.00000000000E+00 0.  1.
         12    1    6    6    0    0 -0.11036004404E+03  0.20972580768E+02  0.64059049934E+03  0.65036557128E+03  0.00000000000E+00 0. -1.
         -5    1    3    3    0  503  0.29915446454E+02 -0.63855495405E+02  0.13421154060E+03  0.15168152775E+03  0.47000000000E+01 0.  1.
         13    1    4    4    0    0  0.53547694894E+02  0.38935397752E+02  0.61626615160E+02  0.90449767952E+02  0.00000000000E+00 0. -1.
        -14    1    4    4    0    0  0.87822552744E+01  0.35413938655E+02  0.16225515616E+03  0.16630697749E+03  0.00000000000E+00 0.  1.
</event>
<event>
12    1  0.1681255E-001  0.1843810E+03  0.7818608E-02  0.1163751E+00
         21   -1    0    0  501  502  0.00000000000E+00  0.00000000000E+00  0.17959824989E+04  0.17959824989E+04  0.00000000000E+00 0. -1.
         21   -1    0    0  502  503 -0.00000000000E+00 -0.00000000000E+00 -0.25759727480E+02  0.25759727480E+02  0.00000000000E+00 0.  1.
         -6    2    1    2    0  503 -0.57909619443E+02 -0.28617338517E+02  0.41333674793E+03  0.45238616648E+03  0.17214383621E+03 0.  0.
        -24    2    3    3    0    0 -0.10502722386E+03 -0.27681499652E+02  0.33476754057E+03  0.36064656334E+03  0.78737883203E+02 0.  0.
          6    2    1    2  501    0  0.57909619443E+02  0.28617338517E+02  0.13568860235E+04  0.13693560599E+04  0.17269586547E+03 0.  0.
         24    2    5    5    0    0  0.57054952144E+02 -0.12543416479E+01  0.41982005312E+03  0.43180191716E+03  0.83349731423E+02 0.  0.
          5    1    5    5  501    0  0.85466729865E+00  0.29871680165E+02  0.93706597034E+03  0.93755414270E+03  0.47000000000E+01 0. -1.
        -11    1    6    6    0    0  0.23284702375E+02  0.40850467792E+02  0.19973210541E+03  0.20519223185E+03  0.00000000000E+00 0.  1.
         12    1    6    6    0    0  0.33770249769E+02 -0.42104809440E+02  0.22008794771E+03  0.22660968531E+03  0.00000000000E+00 0. -1.
         -5    1    3    3    0  503  0.47117604415E+02 -0.93583886556E+00  0.78569207356E+02  0.91739603143E+02  0.47000000000E+01 0.  1.
         13    1    4    4    0    0  0.83134124270E+00  0.73094160446E+01  0.10500211737E+03  0.10525950477E+03  0.00000000000E+00 0. -1.
        -14    1    4    4    0    0 -0.10585856510E+03 -0.34990915696E+02  0.22976542320E+03  0.25538705857E+03  0.00000000000E+00 0.  1.
</event>
<event>
12    1  0.1681255E-001  0.1797185E+03  0.7818608E-02  0.1168493E+00
         21   -1    0    0  503  502  0.00000000000E+00  0.00000000000E+00  0.29929799297E+03  0.29929799297E+03  0.00000000000E+00 0.  1.
         21   -1    0    0  501  503 -0.00000000000E+00 -0.00000000000E+00 -0.11107559569E+03  0.11107559569E+03  0.00000000000E+00 0.  1.
          6    2    1    2  501    0 -0.33381574994E+02 -0.31462297752E+02  0.54707743403E+02  0.18786079811E+03  0.17376575194E+03 0.  0.
         24    2    3    3    0    0 -0.22039204233E+02  0.50047275297E+02  0.36218868441E+02  0.10338365107E+03  0.79911930213E+02 0.  0.
         -6    2    1    2    0  502  0.33381574994E+02  0.31462297752E+02  0.13351465388E+03  0.22251279055E+03  0.17199294587E+03 0.  0.
        -24    2    5    5    0    0  0.77307937174E+02  0.30986905812E+01  0.12838746036E+03  0.16976435342E+03  0.79689878167E+02 0.  0.
          5    1    3    3  501    0 -0.11342370761E+02 -0.81509573049E+02  0.18488874963E+02  0.84477147031E+02  0.47000000000E+01 0. -1.
        -13    1    4    4    0    0 -0.22482707189E+02  0.40307191445E+02  0.61150767533E+02  0.76613041804E+02  0.00000000000E+00 0.  1.
         14    1    4    4    0    0  0.44350295612E+00  0.97400838527E+01 -0.24931899092E+02  0.26770609270E+02  0.00000000000E+00 0. -1.
         -5    1    5    5    0  502 -0.43926362180E+02  0.28363607171E+02  0.51271935197E+01  0.52748437128E+02  0.47000000000E+01 0.  1.
         13    1    6    6    0    0  0.13937050263E+02  0.22507812440E+02  0.13862401684E+01  0.26509708650E+02  0.00000000000E+00 0. -1.
        -14    1    6    6    0    0  0.63370886911E+02 -0.19409121859E+02  0.12700122019E+03  0.14325464477E+03  0.00000000000E+00 0.  1.
</event>
<event>
12    1  0.1681255E-001  0.2764702E+03  0.7818608E-02  0.1097684E+00
         21   -1    0    0  501  502  0.00000000000E+00  0.00000000000E+00  0.30200077883E+03  0.30200077883E+03  0.00000000000E+00 0. -1.
         21   -1    0    0  502  503 -0.00000000000E+00 -0.00000000000E+00 -0.26155409336E+03  0.26155409336E+03  0.00000000000E+00 0. -1.
         -6    2    1    2    0  503  0.19192541502E+03  0.99349935769E+02  0.71903656905E+02  0.28566750989E+03  0.17242394169E+03 0.  0.
        -24    2    3    3    0    0  0.13761368215E+03  0.10876175100E+03 -0.32664405990E+01  0.19233487813E+03  0.78837755659E+02 0.  0.
          6    2    1    2  501    0 -0.19192541502E+03 -0.99349935769E+02 -0.31456971432E+02  0.27788736229E+03  0.17183151749E+03 0.  0.
         24    2    5    5    0    0 -0.86120966376E+02 -0.10373074795E+03  0.24088794922E+02  0.15821616682E+03  0.79216137754E+02 0.  0.
          5    1    5    5  501    0 -0.10580444864E+03  0.43808121827E+01 -0.55545766354E+02  0.11967119548E+03  0.47000000000E+01 0. -1.
        -11    1    6    6    0    0 -0.43449536424E+02 -0.32169045272E+02  0.47183399245E+02  0.71756413327E+02  0.00000000000E+00 0.  1.
         12    1    6    6    0    0 -0.42671429952E+02 -0.71561702680E+02 -0.23094604322E+02  0.86459753489E+02  0.00000000000E+00 0. -1.
         -5    1    3    3    0  503  0.54311732871E+02 -0.94118152295E+01  0.75170097504E+02  0.93332631764E+02  0.47000000000E+01 0.  1.
         13    1    4    4    0    0  0.82811702945E+02  0.10271803970E+03  0.18154783791E+02  0.13318547217E+03  0.00000000000E+00 0. -1.
        -14    1    4    4    0    0  0.54801979200E+02  0.60437113015E+01 -0.21421224390E+02  0.59149405956E+02  0.00000000000E+00 0.  1.
</event>
<event>
12    1  0.1681255E-001  0.2285083E+03  0.7818608E-02  0.1128065E+00
         21   -1    0    0  503  502  0.00000000000E+00  0.00000000000E+00  0.10444748184E+04  0.10444748184E+04  0.00000000000E+00 0.  1.
         21   -1    0    0  501  503 -0.00000000000E+00 -0.00000000000E+00 -0.73531499520E+02  0.73531499520E+02  0.00000000000E+00 0.  1.
          6    2    1    2  501    0 -0.10346446455E+03 -0.10531638101E+03  0.16466416259E+03  0.27997163022E+03  0.17167816330E+03 0.  0.
         24    2    3    3    0    0 -0.11102105796E+03 -0.12689795367E+03  0.10142058721E+03  0.21255719401E+03  0.80409323209E+02 0.  0.
         -6    2    1    2    0  502  0.10346446455E+03  0.10531638101E+03  0.80627915633E+03  0.83803468774E+03  0.17441222545E+03 0.  0.
        -24    2    5    5    0    0  0.49054121624E+01 -0.60692278542E+01  0.28055555427E+03  0.29165749529E+03  0.79320721943E+02 0.  0.
          5    1    3    3  501    0  0.75565934084E+01  0.21581572663E+02  0.63243575382E+02  0.67414436211E+02  0.47000000000E+01 0. -1.
        -13    1    4    4    0    0 -0.45425150036E+02 -0.37453891520E+02 -0.46835609616E+01  0.59060765225E+02  0.00000000000E+00 0.  1.
         14    1    4    4    0    0 -0.65595907924E+02 -0.89444062153E+02  0.10610414817E+03  0.15349642879E+03  0.00000000000E+00 0. -1.
         -5    1    5    5    0  502  0.98559052389E+02  0.11138560886E+03  0.52572360205E+03  0.54637719245E+03  0.47000000000E+01 0.  1.
         11    1    6    6    0    0  0.39245140407E+02  0.11666760729E+02  0.15201980695E+03  0.15743670492E+03  0.00000000000E+00 0. -1.
        -12    1    6    6    0    0 -0.34339728245E+02 -0.17735988583E+02  0.12853574733E+03  0.13422079037E+03  0.00000000000E+00 0.  1.
</event>
<event>
12    1  0.1681255E-001  0.1888358E+03  0.7818608E-02  0.1159794E+00
         21   -1    0    0  501  502  0.00000000000E+00  0.00000000000E+00  0.50212768423E+02  0.50212768423E+02  0.00000000000E+00 0.  1.
         21   -1    0    0  502  503 -0.00000000000E+00 -0.00000000000E+00 -0.71292384482E+03  0.71292384482E+03  0.00000000000E+00 0.  1.
         -6    2    1    2    0  503 -0.96607145275E+01  0.77410721137E+02 -0.36903321870E+03  0.41398671053E+03  0.17062746215E+03 0.  0.
        -24    2    3    3    0    0 -0.99028371443E+01  0.41722152396E+02 -0.76371626307E+02  0.11911957058E+03  0.80734395431E+02 0.  0.
          6    2    1    2  501    0  0.96607145275E+01 -0.77410721137E+02 -0.29367785770E+03  0.34914990271E+03  0.17196866375E+03 0.  0.
         24    2    5    5    0    0  0.69002005399E+01 -0.65574937042E+02 -0.62345883593E+02  0.11745122238E+03  0.74566046584E+02 0.  0.
          5    1    5    5  501    0  0.27605139876E+01 -0.11835784095E+02 -0.23133197410E+03  0.23169868033E+03  0.47000000000E+01 0. -1.
        -11    1    6    6    0    0 -0.13387192566E+02 -0.62365021773E+02 -0.70750148339E+02  0.95258576283E+02  0.00000000000E+00 0.  1.
         12    1    6    6    0    0  0.20287393106E+02 -0.32099152695E+01  0.84042647461E+01  0.22192646102E+02  0.00000000000E+00 0. -1.
         -5    1    3    3    0  503  0.24212261682E+00  0.35688568741E+02 -0.29266159239E+03  0.29486713995E+03  0.47000000000E+01 0.  1.
         11    1    4    4    0    0  0.23844198045E+02  0.40931763127E+02 -0.16087043172E+02  0.50027472165E+02  0.00000000000E+00 0. -1.
        -12    1    4    4    0    0 -0.33747035190E+02  0.79038926871E+00 -0.60284583135E+02  0.69092098413E+02  0.00000000000E+00 0.  1.
</event>
<event>
12    1  0.1681255E-001  0.2289797E+03  0.7818608E-02  0.1127390E+00
         21   -1    0    0  503  502  0.00000000000E+00  0.00000000000E+00  0.36227548794E+03  0.36227548794E+03  0.00000000000E+00 0.  1.
         21   -1    0    0  501  503 -0.00000000000E+00 -0.00000000000E+00 -0.14958027323E+03  0.14958027323E+03  0.00000000000E+00 0.  1.
          6    2    1    2  501    0  0.13059947441E+03  0.74297065830E+02  0.15290295951E+03  0.27519812011E+03  0.17256423030E+03 0.  0.
         24    2    3    3    0    0  0.11272007353E+03  0.91559930641E+02  0.56518615706E+02  0.17555018382E+03  0.80836113466E+02 0.  0.
         -6    2    1    2    0  502 -0.13059947441E+03 -0.74297065830E+02  0.59792255199E+02  0.23665764105E+03  0.17278729288E+03 0.  0.
        -24    2    5    5    0    0 -0.12096936953E+03  0.73500680882E+01  0.57305878969E+02  0.15427277919E+03  0.76344710169E+02 0.  0.
          5    1    3    3  501    0  0.17879400872E+02 -0.17262864811E+02  0.96384343809E+02  0.99647936298E+02  0.47000000000E+01 0. -1.
        -11    1    4    4    0    0 -0.41142185632E+01  0.34012719147E+02  0.18708390828E+01  0.34311687470E+02  0.00000000000E+00 0.  1.
         12    1    4    4    0    0  0.11683429210E+03  0.57547211495E+02  0.54647776623E+02  0.14123849635E+03  0.00000000000E+00 0. -1.
         -5    1    5    5    0  502 -0.96301048763E+01 -0.81647133919E+02  0.24863762303E+01  0.82384861861E+02  0.47000000000E+01 0.  1.
         11    1    6    6    0    0  0.65707371827E+01  0.12578369636E+02  0.12735937877E+02  0.19068143157E+02  0.00000000000E+00 0. -1.
        -12    1    6    6    0    0 -0.12754010671E+03 -0.52283015481E+01  0.44569941091E+02  0.13520463604E+03  0.00000000000E+00 0.  1.
</event>
<event>
12    1  0.1681255E-001  0.1977177E+03  0.7818608E-02  0.1152186E+00
         21   -1    0    0  501  502  0.00000000000E+00  0.00000000000E+00  0.29382186739E+03  0.29382186739E+03  0.00000000000E+00 0.  1.
         21   -1    0    0  502  503 -0.00000000000E+00 -0.00000000000E+00 -0.18610167155E+03  0.18610167155E+03  0.00000000000E+00 0.  1.
         -6    2    1    2    0  503 -0.89619768787E+02  0.38952338313E+02 -0.75926071562E+02  0.21179483847E+03  0.17188163847E+03 0.  0.
        -24    2    3    3    0    0  0.21729254644E+02  0.15108286051E+01 -0.15028083007E+02  0.79389677399E+02  0.74849412077E+02 0.  0.
          6    2    1    2  501    0  0.89619768787E+02 -0.38952338313E+02  0.18364626739E+03  0.26812870047E+03  0.16916873491E+03 0.  0.
         24    2    5    5    0    0 -0.98343314234E+01 -0.36874783721E+02  0.11055637352E+03  0.14459871679E+03  0.85027133448E+02 0.  0.
          5    1    5    5  501    0  0.99454100211E+02 -0.20775545914E+01  0.73089893874E+02  0.12352998368E+03  0.47000000000E+01 0. -1.
        -11    1    6    6    0    0  0.31601679695E+02  0.17218210453E+01  0.18905909378E+02  0.36865488423E+02  0.00000000000E+00 0.  1.
         12    1    6    6    0    0 -0.41436011118E+02 -0.38596604767E+02  0.91650464142E+02  0.10773322837E+03  0.00000000000E+00 0. -1.
         -5    1    3    3    0  503 -0.11134902343E+03  0.37441509708E+02 -0.60897988555E+02  0.13240516107E+03  0.47000000000E+01 0.  1.
         13    1    4    4    0    0  0.40663369946E+02 -0.56311822283E+01 -0.32731069988E+02  0.52502788604E+02  0.00000000000E+00 0. -1.
        -14    1    4    4    0    0 -0.18934115302E+02  0.71420108333E+01  0.17702986981E+02  0.26886888795E+02  0.00000000000E+00 0.  1.
</event>
<event>
12    1  0.1681255E-001  0.2638169E+03  0.7818608E-02  0.1105325E+00
         21   -1    0    0  503  502  0.00000000000E+00  0.00000000000E+00  0.27987131220E+03  0.27987131220E+03  0.00000000000E+00 0.  1.
         21   -1    0    0  501  503 -0.00000000000E+00 -0.00000000000E+00 -0.29254203315E+03  0.29254203315E+03  0.00000000000E+00 0.  1.
          6    2    1    2  501    0  0.12813775875E+03 -0.15014971827E+03 -0.12069701414E+03  0.28733605661E+03  0.17038197408E+03 0.  0.
         24    2    3    3    0    0  0.13964840012E+03 -0.16400550478E+03 -0.13139712831E+03  0.26586374589E+03  0.83778546158E+02 0.  0.
         -6    2    1    2    0  502 -0.12813775875E+03  0.15014971827E+03  0.10802629319E+03  0.28507728874E+03  0.17502901880E+03 0.  0.
        -24    2    5    5    0    0 -0.15157722869E+03  0.11250360530E+03  0.60644879268E+02  0.22001019292E+03  0.95362288918E+02 0.  0.
          5    1    3    3  501    0 -0.11510641372E+02  0.13855786507E+02  0.10700114166E+02  0.21472310721E+02  0.47000000000E+01 0. -1.
        -11    1    4    4    0    0  0.34307620579E+02 -0.36617936115E+02 -0.76877586951E+02  0.91804408666E+02  0.00000000000E+00 0.  1.
         12    1    4    4    0    0  0.10534077954E+03 -0.12738756866E+03 -0.54519541356E+02  0.17405933722E+03  0.00000000000E+00 0. -1.
         -5    1    5    5    0  502  0.23439469936E+02  0.37646112971E+02  0.47381413926E+02  0.65067095819E+02  0.47000000000E+01 0.  1.
         11    1    6    6    0    0 -0.20029596230E+02 -0.17394184506E+02  0.55589567035E+01  0.27104323999E+02  0.00000000000E+00 0. -1.
        -12    1    6    6    0    0 -0.13154763246E+03  0.12989778981E+03  0.55085922564E+02  0.19290586893E+03  0.00000000000E+00 0.  1.
</event>
<event>
12    1  0.1681255E-001  0.1985863E+03  0.7818608E-02  0.1151212E+00
         21   -1    0    0  501  502  0.00000000000E+00  0.00000000000E+00  0.11965263829E+03  0.11965263829E+03  0.00000000000E+00 0.  1.
         21   -1    0    0  502  503 -0.00000000000E+00 -0.00000000000E+00 -0.37603575991E+03  0.37603575991E+03  0.00000000000E+00 0.  1.
         -6    2    1    2    0  503  0.91841793560E+02 -0.36316647175E+02 -0.21763289509E+03  0.29461938588E+03  0.17228665533E+03 0.  0.
        -24    2    3    3    0    0  0.78658053485E+02 -0.24223458298E+02 -0.47599581609E+02  0.12358291634E+03  0.78950311792E+02 0.  0.
          6    2    1    2  501    0 -0.91841793560E+02  0.36316647175E+02 -0.38750226526E+02  0.20106901232E+03  0.17080208943E+03 0.  0.
         24    2    5    5    0    0 -0.40742571491E+02 -0.82212669900E+00 -0.84303162428E+02  0.12304607345E+03  0.79829067208E+02 0.  0.
          5    1    5    5  501    0 -0.51099222069E+02  0.37138773874E+02  0.45552935902E+02  0.78022938872E+02  0.47000000000E+01 0. -1.
        -13    1    6    6    0    0 -0.30526437704E+02  0.17706858449E+02 -0.93527560943E+02  0.99963997974E+02  0.00000000000E+00 0.  1.
         14    1    6    6    0    0 -0.10216133787E+02 -0.18528985148E+02  0.92243985149E+01  0.23082075472E+02  0.00000000000E+00 0. -1.
         -5    1    3    3    0  503  0.13183740075E+02 -0.12093188877E+02 -0.17003331348E+03  0.17103646954E+03  0.47000000000E+01 0.  1.
         11    1    4    4    0    0  0.15783690697E+02 -0.22777923105E+02  0.17731897118E+02  0.32899526568E+02  0.00000000000E+00 0. -1.
        -12    1    4    4    0    0  0.62874362788E+02 -0.14455351929E+01 -0.65331478727E+02  0.90683389773E+02  0.00000000000E+00 0.  1.
</event>
<event>
12    1  0.1681255E-001  0.3121572E+03  0.7818608E-02  0.1079713E+00
         21   -1    0    0  503  502  0.00000000000E+00  0.00000000000E+00  0.33915132985E+03  0.33915132985E+03  0.00000000000E+00 0. -1.
         21   -1    0    0  501  503 -0.00000000000E+00 -0.00000000000E+00 -0.30224538082E+03  0.30224538082E+03  0.00000000000E+00 0.  1.
          6    2    1    2  501    0 -0.41848811529E+02 -0.25411860237E+03  0.96773000992E+02  0.32681362618E+03  0.17639315588E+03 0.  0.
         24    2    3    3    0    0 -0.58973315881E+02 -0.19115744947E+03  0.62616985769E+01  0.21513667561E+03  0.78902204342E+02 0.  0.
         -6    2    1    2    0  502  0.41848811529E+02  0.25411860237E+03 -0.59867051967E+02  0.31458308449E+03  0.17044314607E+03 0.  0.
        -24    2    5    5    0    0 -0.36141237425E+02  0.18503728510E+03 -0.44794965244E+02  0.20920787901E+03  0.78843907890E+02 0.  0.
          5    1    3    3  501    0  0.17124504353E+02 -0.62961152895E+02  0.90511302415E+02  0.11167695057E+03  0.47000000000E+01 0. -1.
        -13    1    4    4    0    0 -0.42442264526E+02 -0.72029124801E+02 -0.31094832550E+02  0.89198818653E+02  0.00000000000E+00 0.  1.
         14    1    4    4    0    0 -0.16531051355E+02 -0.11912832467E+03  0.37356531127E+02  0.12593785696E+03  0.00000000000E+00 0. -1.
         -5    1    5    5    0  502  0.77990048953E+02  0.69081317270E+02 -0.15072086722E+02  0.10537520548E+03  0.47000000000E+01 0.  1.
         11    1    6    6    0    0 -0.55735150057E+02  0.82346791498E+02 -0.28191282402E+02  0.10335448430E+03  0.00000000000E+00 0. -1.
        -12    1    6    6    0    0  0.19593912633E+02  0.10269049360E+03 -0.16603682843E+02  0.10585339471E+03  0.00000000000E+00 0.  1.
</event>
<event>
12    1  0.1681255E-001  0.3141376E+03  0.7818608E-02  0.1078437E+00
         21   -1    0    0  501  502  0.00000000000E+00  0.00000000000E+00  0.36934039968E+03  0.36934039968E+03  0.00000000000E+00 0.  1.
         21   -1    0    0  502  503 -0.00000000000E+00 -0.00000000000E+00 -0.34380220084E+03  0.34380220084E+03  0.00000000000E+00 0. -1.
         -6    2    1    2    0  503 -0.23420451737E+03  0.12074252452E+03 -0.15602424722E+03  0.35031019897E+03  0.17012688383E+03 0.  0.
        -24    2    3    3    0    0 -0.23306760582E+03  0.79039185012E+02 -0.16595358582E+03  0.30716923400E+03  0.79023060069E+02 0.  0.
          6    2    1    2  501    0  0.23420451737E+03 -0.12074252452E+03  0.18156244606E+03  0.36283240155E+03  0.17103191693E+03 0.  0.
         24    2    5    5    0    0  0.11840064035E+03 -0.18685089754E+02  0.14425658892E+03  0.20396114895E+03  0.80139519721E+02 0.  0.
          5    1    5    5  501    0  0.11580387702E+03 -0.10205743476E+03  0.37305857141E+02  0.15887125260E+03  0.47000000000E+01 0. -1.
        -11    1    6    6    0    0 -0.30399774521E+00 -0.13395366160E+02  0.51518900573E+02  0.53232747115E+02  0.00000000000E+00 0.  1.
         12    1    6    6    0    0  0.11870463809E+03 -0.52897235944E+01  0.92737688350E+02  0.15072840184E+03  0.00000000000E+00 0. -1.
         -5    1    3    3    0  503 -0.11369115508E+01  0.41703339507E+02  0.99293385940E+01  0.43140964974E+02  0.47000000000E+01 0.  1.
         11    1    4    4    0    0 -0.58642975990E+02  0.39559998797E+02 -0.13167180141E+02  0.71953921162E+02  0.00000000000E+00 0. -1.
        -12    1    4    4    0    0 -0.17442462983E+03  0.39479186215E+02 -0.15278640568E+03  0.23521531284E+03  0.00000000000E+00 0.  1.
</event>
<event>
12    1  0.1681255E-001  0.1913649E+03  0.7818608E-02  0.1157306E+00
         21   -1    0    0  501  502  0.00000000000E+00  0.00000000000E+00  0.75911962236E+02  0.75911962236E+02  0.00000000000E+00 0. -1.
         21   -1    0    0  502  503 -0.00000000000E+00 -0.00000000000E+00 -0.59277836220E+03  0.59277836220E+03  0.00000000000E+00 0.  1.
         -6    2    1    2    0  503 -0.48149284992E+02 -0.70991595492E+02 -0.40304535968E+03  0.44603420417E+03  0.17071259195E+03 0.  0.
        -24    2    3    3    0    0 -0.93051283271E+02 -0.76267511868E+02 -0.32467129082E+03  0.35543282773E+03  0.80285573167E+02 0.  0.
          6    2    1    2  501    0  0.48149284992E+02  0.70991595492E+02 -0.11382104028E+03  0.22265612026E+03  0.17106244008E+03 0.  0.
         24    2    5    5    0    0  0.62262411472E+02  0.23877850851E+02 -0.13335547414E+03  0.16952826148E+03  0.80680786509E+02 0.  0.
          5    1    5    5  501    0 -0.14113126480E+02  0.47113744641E+02  0.19534433862E+02  0.53127858789E+02  0.47000000000E+01 0. -1.
        -11    1    6    6    0    0  0.27079856087E+02  0.50580290755E+02 -0.95247988859E+02  0.11119291254E+03  0.00000000000E+00 0.  1.
         12    1    6    6    0    0  0.35182555385E+02 -0.26702439904E+02 -0.38107485284E+02  0.58335348931E+02  0.00000000000E+00 0. -1.
         -5    1    3    3    0  503  0.44901998279E+02  0.52759163762E+01 -0.78374068863E+02  0.90601376442E+02  0.47000000000E+01 0.  1.
         13    1    4    4    0    0  0.54053851620E+01  0.10724687889E+02 -0.42674765244E+02  0.44332524265E+02  0.00000000000E+00 0. -1.
        -14    1    4    4    0    0 -0.98456668433E+02 -0.86992199757E+02 -0.28199652558E+03  0.31110030346E+03  0.00000000000E+00 0.  1.
</event>
<event>
12    1  0.1681255E-001  0.1844846E+03  0.7818608E-02  0.1164217E+00
         21   -1    0    0  501  502  0.00000000000E+00  0.00000000000E+00  0.59709101358E+02  0.59709101358E+02  0.00000000000E+00 0.  1.
         21   -1    0    0  502  503 -0.00000000000E+00 -0.00000000000E+00 -0.58028744003E+03  0.58028744003E+03  0.00000000000E+00 0.  1.
         -6    2    1    2    0  503  0.46219184548E+01 -0.67125982144E+02 -0.31650583032E+03  0.36489629787E+03  0.16865974020E+03 0.  0.
        -24    2    3    3    0    0 -0.40603652867E+02  0.45253217739E+01 -0.21227598640E+03  0.23048940810E+03  0.79969604731E+02 0.  0.
          6    2    1    2  501    0 -0.46219184548E+01  0.67125982144E+02 -0.20407250835E+03  0.27510024351E+03  0.17177687769E+03 0.  0.
         24    2    5    5    0    0  0.18086394447E+02  0.54154656350E+02 -0.22190485266E+03  0.24310016115E+03  0.81216256039E+02 0.  0.
          5    1    5    5  501    0 -0.22708312901E+02  0.12971325794E+02  0.17832344316E+02  0.32000082367E+02  0.47000000000E+01 0. -1.
        -11    1    6    6    0    0  0.47338557916E+02  0.51396480079E+02 -0.15397423239E+03  0.16908755563E+03  0.00000000000E+00 0.  1.
         12    1    6    6    0    0 -0.29252163469E+02  0.27581762710E+01 -0.67930620278E+02  0.74012605516E+02  0.00000000000E+00 0. -1.
         -5    1    3    3    0  503  0.45225571322E+02 -0.71651303918E+02 -0.10422984392E+03  0.13440688978E+03  0.47000000000E+01 0.  1.
         13    1    4    4    0    0 -0.91082274801E+01  0.30383729287E+02 -0.16523575667E+03  0.16825274469E+03  0.00000000000E+00 0. -1.
        -14    1    4    4    0    0 -0.31495425387E+02 -0.25858407513E+02 -0.47040229729E+02  0.62236663410E+02  0.00000000000E+00 0.  1.
</event>
<event>
12    1  0.1681255E-001  0.2661098E+03  0.7818608E-02  0.1104946E+00
         21   -1    0    0  503  502  0.00000000000E+00  0.00000000000E+00  0.15180711147E+03  0.15180711147E+03  0.00000000000E+00 0.  1.
         21   -1    0    0  501  503 -0.00000000000E+00 -0.00000000000E+00 -0.45838511450E+03  0.45838511450E+03  0.00000000000E+00 0. -1.
          6    2    1    2  501    0 -0.62286238192E+02 -0.17981970014E+03 -0.10901341750E+03  0.27876168309E+03  0.17207396881E+03 0.  0.
         24    2    3    3    0    0  0.59487663238E+01 -0.12908727501E+03 -0.15748540260E+02  0.15246749428E+03  0.79368809377E+02 0.  0.
         -6    2    1    2    0  502  0.62286238192E+02  0.17981970014E+03 -0.19756458553E+03  0.33143054288E+03  0.18601005153E+03 0.  0.
        -24    2    5    5    0    0  0.51206217277E+02  0.77997307444E+02 -0.17250268135E+02  0.12400366522E+03  0.79835334165E+02 0.  0.
          5    1    3    3  501    0 -0.68235004516E+02 -0.50732425124E+02 -0.93264877242E+02  0.12629418881E+03  0.47000000000E+01 0. -1.
        -13    1    4    4    0    0  0.45317434983E+01 -0.83340994530E+02 -0.48181406006E+02  0.96372744867E+02  0.00000000000E+00 0.  1.
         14    1    4    4    0    0  0.14170228255E+01 -0.45746280482E+02  0.32432865746E+02  0.56094749417E+02  0.00000000000E+00 0. -1.
         -5    1    5    5    0  502  0.11080020915E+02  0.10182239269E+03 -0.18031431739E+03  0.20742687766E+03  0.47000000000E+01 0.  1.
         11    1    6    6    0    0  0.54827160842E+02  0.32089145979E+02 -0.37420421171E+02  0.73729361697E+02  0.00000000000E+00 0. -1.
        -12    1    6    6    0    0 -0.36209435647E+01  0.45908161465E+02  0.20170153036E+02  0.50274303524E+02  0.00000000000E+00 0.  1.
</event>
<event>
12    1  0.1681255E-001  0.2215799E+03  0.7818608E-02  0.1132871E+00
         21   -1    0    0  503  502  0.00000000000E+00  0.00000000000E+00  0.93663493271E+02  0.93663493271E+02  0.00000000000E+00 0. -1.
         21   -1    0    0  501  503 -0.00000000000E+00 -0.00000000000E+00 -0.94818587393E+03  0.94818587393E+03  0.00000000000E+00 0.  1.
          6    2    1    2  501    0 -0.12509541183E+03  0.60958713322E+02 -0.77598317307E+03  0.80676201914E+03  0.17131912867E+03 0.  0.
         24    2    3    3    0    0 -0.72163183807E+02  0.63639741479E+02 -0.71560868294E+03  0.72628731669E+03  0.78357753257E+02 0.  0.
         -6    2    1    2    0  502  0.12509541183E+03 -0.60958713322E+02 -0.78539207592E+02  0.23508734806E+03  0.17243209475E+03 0.  0.
        -24    2    5    5    0    0  0.57618171106E+02 -0.15552867032E+02  0.26110169989E+02  0.10246589007E+03  0.79093440537E+02 0.  0.
          5    1    3    3  501    0 -0.52932228023E+02 -0.26810281566E+01 -0.60374490128E+02  0.80474702445E+02  0.47000000000E+01 0. -1.
        -13    1    4    4    0    0 -0.80436772236E+02  0.74858952290E+02 -0.64890797666E+03  0.65814550006E+03  0.00000000000E+00 0.  1.
         14    1    4    4    0    0  0.82735884290E+01 -0.11219210811E+02 -0.66700706277E+02  0.68141816637E+02  0.00000000000E+00 0. -1.
         -5    1    5    5    0  502  0.67477240724E+02 -0.45405846290E+02 -0.10464937758E+03  0.13262145800E+03  0.47000000000E+01 0.  1.
         13    1    6    6    0    0  0.44671816607E+02  0.13751534940E+02  0.45325638370E+02  0.65108289839E+02  0.00000000000E+00 0. -1.
        -14    1    6    6    0    0  0.12946354500E+02 -0.29304401972E+02 -0.19215468381E+02  0.37357600229E+02  0.00000000000E+00 0.  1.
</event>
<event>
12    1  0.1681255E-001  0.2022468E+03  0.7818608E-02  0.1148313E+00
         21   -1    0    0  501  502  0.00000000000E+00  0.00000000000E+00  0.44064145352E+03  0.44064145352E+03  0.00000000000E+00 0. -1.
         21   -1    0    0  502  503 -0.00000000000E+00 -0.00000000000E+00 -0.93299356346E+02  0.93299356346E+02  0.00000000000E+00 0.  1.
         -6    2    1    2    0  503 -0.10295444515E+03 -0.69932602641E+01  0.14108457254E+03  0.24659401030E+03  0.17394029390E+03 0.  0.
        -24    2    3    3    0    0 -0.70650008637E+02 -0.40436361359E+02  0.16894975988E+02  0.11390202290E+03  0.77856968641E+02 0.  0.
          6    2    1    2  501    0  0.10295444515E+03  0.69932602641E+01  0.20625752463E+03  0.28734679957E+03  0.17139863852E+03 0.  0.
         24    2    5    5    0    0  0.62210929200E+02 -0.22747725788E+02  0.38373396251E+02  0.11198508508E+03  0.81734221727E+02 0.  0.
          5    1    5    5  501    0  0.40743515950E+02  0.29740986052E+02  0.16788412838E+03  0.17536171448E+03  0.47000000000E+01 0. -1.
        -13    1    6    6    0    0  0.17514259354E+02  0.29442237429E+02  0.23880022794E+02  0.41759431439E+02  0.00000000000E+00 0.  1.
         14    1    6    6    0    0  0.44696669845E+02 -0.52189963216E+02  0.14493373458E+02  0.70225653646E+02  0.00000000000E+00 0. -1.
         -5    1    3    3    0  503 -0.32304436513E+02  0.33443101095E+02  0.12418959656E+03  0.13269198741E+03  0.47000000000E+01 0.  1.
         13    1    4    4    0    0  0.48398247127E+01 -0.18929994199E+02  0.28500663845E+02  0.34555121520E+02  0.00000000000E+00 0. -1.
        -14    1    4    4    0    0 -0.75489833349E+02 -0.21506367160E+02 -0.11605687857E+02  0.79346901377E+02  0.00000000000E+00 0.  1.
</event>
<event>
12    1  0.1681255E-001  0.2426567E+03  0.7818608E-02  0.1118765E+00
         21   -1    0    0  503  502  0.00000000000E+00  0.00000000000E+00  0.17847314137E+03  0.17847314137E+03  0.00000000000E+00 0. -1.
         21   -1    0    0  501  503 -0.00000000000E+00 -0.00000000000E+00 -0.61841367827E+03  0.61841367827E+03  0.00000000000E+00 0.  1.
          6    2    1    2  501    0 -0.80117096651E+01  0.16585660048E+03  0.53903364170E+02  0.24857159092E+03  0.17694536934E+03 0.  0.
         24    2    3    3    0    0 -0.45593249372E+01  0.12699832399E+03 -0.32701664321E+02  0.15346951118E+03  0.79587249430E+02 0.  0.
         -6    2    1    2    0  502  0.80117096651E+01 -0.16585660048E+03 -0.49384390107E+03  0.54831522872E+03  0.17086600600E+03 0.  0.
        -24    2    5    5    0    0  0.14835813762E+02 -0.11130875907E+03 -0.46682856009E+03  0.48688271252E+03  0.80722549596E+02 0.  0.
          5    1    3    3  501    0 -0.34523847279E+01  0.38858276489E+02  0.86605028491E+02  0.95102079746E+02  0.47000000000E+01 0. -1.
        -11    1    4    4    0    0  0.36497246422E+02  0.42814808860E+02 -0.10955222516E+02  0.57316435291E+02  0.00000000000E+00 0.  1.
         12    1    4    4    0    0 -0.41056571359E+02  0.84183515128E+02 -0.21746441805E+02  0.96153075886E+02  0.00000000000E+00 0. -1.
         -5    1    5    5    0  502 -0.68241040970E+01 -0.54547841404E+02 -0.27015340973E+02  0.61432516199E+02  0.47000000000E+01 0.  1.
         11    1    6    6    0    0  0.33775129434E+01  0.12704540069E+02 -0.32706698749E+02  0.35249696099E+02  0.00000000000E+00 0. -1.
        -12    1    6    6    0    0  0.11458300819E+02 -0.12401329914E+03 -0.43412186134E+03  0.45163301642E+03  0.00000000000E+00 0.  1.
</event>
<event>
12    1  0.1681255E-001  0.2934137E+03  0.7818608E-02  0.1088593E+00
         21   -1    0    0  503  502  0.00000000000E+00  0.00000000000E+00  0.13853451739E+04  0.13853451739E+04  0.00000000000E+00 0. -1.
         21   -1    0    0  501  503 -0.00000000000E+00 -0.00000000000E+00 -0.86624801571E+02  0.86624801571E+02  0.00000000000E+00 0.  1.
          6    2    1    2  501    0 -0.23584405745E+03  0.25381863432E+02  0.10408608631E+04  0.10814263345E+04  0.17269893535E+03 0.  0.
         24    2    3    3    0    0 -0.57598244865E+02  0.16122721033E+02  0.22473288188E+03  0.24599574307E+03  0.80196866944E+02 0.  0.
         -6    2    1    2    0  502  0.23584405745E+03 -0.25381863432E+02  0.25785950925E+03  0.39054364096E+03  0.17252869487E+03 0.  0.
        -24    2    5    5    0    0  0.24940874177E+03 -0.17056045278E+01  0.25113305188E+03  0.36204976222E+03  0.76187866606E+02 0.  0.
          5    1    3    3  501    0 -0.17824581259E+03  0.92591423990E+01  0.81612798118E+03  0.83543059142E+03  0.47000000000E+01 0. -1.
        -11    1    4    4    0    0 -0.11874102288E+02  0.24724121818E+02  0.17782349476E+03  0.17992629544E+03  0.00000000000E+00 0.  1.
         12    1    4    4    0    0 -0.45724142576E+02 -0.86014007855E+01  0.46909387121E+02  0.66069447628E+02  0.00000000000E+00 0. -1.
         -5    1    5    5    0  502 -0.13564684324E+02 -0.23676258904E+02  0.67264573719E+01  0.28493878733E+02  0.47000000000E+01 0.  1.
         13    1    6    6    0    0  0.67643065471E+02 -0.33542546886E+02  0.85733648088E+02  0.11424073342E+03  0.00000000000E+00 0. -1.
        -14    1    6    6    0    0  0.18176567630E+03  0.31836942359E+02  0.16539940379E+03  0.24780902880E+03  0.00000000000E+00 0.  1.
</event>
<event>
12    1  0.1681255E-001  0.1907163E+03  0.7818608E-02  0.1161080E+00
         21   -1    0    0  501  502  0.00000000000E+00  0.00000000000E+00  0.96718128334E+03  0.96718128334E+03  0.00000000000E+00 0.  1.
         21   -1    0    0  502  503 -0.00000000000E+00 -0.00000000000E+00 -0.58118592427E+02  0.58118592427E+02  0.00000000000E+00 0.  1.
         -6    2    1    2    0  503 -0.12492846740E+02  0.79080070463E+02  0.12029940776E+03  0.21380728818E+03  0.15758134473E+03 0.  0.
        -24    2    3    3    0    0  0.27190077319E+02  0.60079885946E+02  0.13246442958E+03  0.16791808216E+03  0.79377353256E+02 0.  0.
          6    2    1    2  501    0  0.12492846740E+02 -0.79080070463E+02  0.78876328315E+03  0.81149258759E+03  0.17309816318E+03 0.  0.
         24    2    5    5    0    0 -0.45277167679E+02 -0.13890834666E+02  0.51489645663E+03  0.52406931139E+03  0.85365712621E+02 0.  0.
          5    1    5    5  501    0  0.57770014419E+02 -0.65189235797E+02  0.27386682652E+03  0.28742327619E+03  0.47000000000E+01 0. -1.
        -13    1    6    6    0    0 -0.53601704989E+02  0.72875593353E+01  0.16947076272E+03  0.17789488671E+03  0.00000000000E+00 0.  1.
         14    1    6    6    0    0  0.83245373105E+01 -0.21178394001E+02  0.34542569391E+03  0.34617442469E+03  0.00000000000E+00 0. -1.
         -5    1    3    3    0  503 -0.39682924060E+02  0.19000184517E+02 -0.12165021823E+02  0.45889206024E+02  0.47000000000E+01 0.  1.
         11    1    4    4    0    0  0.14229995878E+02 -0.18397133135E+01  0.91350256919E+02  0.92470248010E+02  0.00000000000E+00 0. -1.
        -12    1    4    4    0    0  0.12960081441E+02  0.61919599260E+02  0.41114172664E+02  0.75447834146E+02  0.00000000000E+00 0.  1.
</event>
<event>
12    1  0.1681255E-001  0.1852500E+03  0.7818608E-02  0.1163728E+00
         21   -1    0    0  501  502  0.00000000000E+00  0.00000000000E+00  0.14526840184E+04  0.14526840184E+04  0.00000000000E+00 0. -1.
         21   -1    0    0  502  503 -0.00000000000E+00 -0.00000000000E+00 -0.41811979992E+02  0.41811979992E+02  0.00000000000E+00 0. -1.
         -6    2    1    2    0  503 -0.12852782988E+02 -0.59960308212E+02  0.21011829272E+03  0.28012008429E+03  0.17480598416E+03 0.  0.
        -24    2    3    3    0    0  0.28406275041E+02 -0.78763707205E+01  0.27456083562E+02  0.85691127940E+02  0.75631866337E+02 0.  0.
          6    2    1    2  501    0  0.12852782988E+02  0.59960308212E+02  0.12007537457E+04  0.12143759141E+04  0.17070111413E+03 0.  0.
         24    2    5    5    0    0  0.39089514380E+01  0.63926371144E+02  0.37482049824E+03  0.38837134933E+03  0.78993912745E+02 0.  0.
          5    1    5    5  501    0  0.89438315500E+01 -0.39660629320E+01  0.82593324743E+03  0.82600456475E+03  0.47000000000E+01 0. -1.
        -11    1    6    6    0    0  0.93170606128E+01  0.82154755989E+02  0.30483466509E+03  0.31584867356E+03  0.00000000000E+00 0.  1.
         12    1    6    6    0    0 -0.54081091748E+01 -0.18228384846E+02  0.69985833153E+02  0.72522675771E+02  0.00000000000E+00 0. -1.
         -5    1    3    3    0  503 -0.41259058029E+02 -0.52083937491E+02  0.18266220915E+03  0.19442895635E+03  0.47000000000E+01 0.  1.
         11    1    4    4    0    0  0.20921816924E+02 -0.55807983256E+01 -0.24759319676E+02  0.32892121309E+02  0.00000000000E+00 0. -1.
        -12    1    4    4    0    0  0.74844581177E+01 -0.22955723949E+01  0.52215403238E+02  0.52799006631E+02  0.00000000000E+00 0.  1.
</event>
<event>
12    1  0.1681255E-001  0.2386992E+03  0.7818608E-02  0.1120868E+00
         21   -1    0    0  501  502  0.00000000000E+00  0.00000000000E+00  0.10506104175E+03  0.10506104175E+03  0.00000000000E+00 0.  1.
         21   -1    0    0  502  503 -0.00000000000E+00 -0.00000000000E+00 -0.16730364234E+04  0.16730364234E+04  0.00000000000E+00 0.  1.
         -6    2    1    2    0  503  0.84175204328E+02 -0.14106631572E+03 -0.15164174683E+04  0.15350893321E+04  0.17318241520E+03 0.  0.
        -24    2    3    3    0    0 -0.10861483602E+02 -0.45397813838E+02 -0.85499914478E+03  0.86004805708E+03  0.80499624740E+02 0.  0.
          6    2    1    2  501    0 -0.84175204328E+02  0.14106631572E+03 -0.51557913379E+02  0.24300813308E+03  0.17149216850E+03 0.  0.
         24    2    5    5    0    0 -0.17750309071E+02  0.50682961706E+02 -0.80929665722E+02  0.12696414475E+03  0.81770698772E+02 0.  0.
          5    1    5    5  501    0 -0.66424895256E+02  0.90383354015E+02  0.29371752343E+02  0.11604398833E+03  0.47000000000E+01 0. -1.
        -11    1    6    6    0    0  0.18520517286E+02  0.92684626838E+01  0.81415329993E+01  0.22253056433E+02  0.00000000000E+00 0.  1.
         12    1    6    6    0    0 -0.36270826357E+02  0.41414499022E+02 -0.89071198721E+02  0.10471108831E+03  0.00000000000E+00 0. -1.
         -5    1    3    3    0  503  0.95036687929E+02 -0.95668501883E+02 -0.66141832349E+03  0.67504127500E+03  0.47000000000E+01 0.  1.
         13    1    4    4    0    0 -0.37235831888E+02 -0.13738388327E+02 -0.20894234455E+03  0.21267852227E+03  0.00000000000E+00 0. -1.
        -14    1    4    4    0    0  0.26374348286E+02 -0.31659425511E+02 -0.64605680023E+03  0.64736953481E+03  0.00000000000E+00 0.  1.
</event>
<event>
12    1  0.1681255E-001  0.2638766E+03  0.7818608E-02  0.1105082E+00
         21   -1    0    0  501  502  0.00000000000E+00  0.00000000000E+00  0.74818176362E+03  0.74818176362E+03  0.00000000000E+00 0.  1.
         21   -1    0    0  502  503 -0.00000000000E+00 -0.00000000000E+00 -0.22591731779E+03  0.22591731779E+03  0.00000000000E+00 0.  1.
         -6    2    1    2    0  503  0.13836077562E+03 -0.14190007705E+03 -0.11284283536E+03  0.28699193119E+03  0.17421689636E+03 0.  0.
        -24    2    3    3    0    0  0.10614212114E+03 -0.34534080981E+02 -0.10810540648E+03  0.17469753221E+03  0.79835432117E+02 0.  0.
          6    2    1    2  501    0 -0.13836077562E+03  0.14190007705E+03  0.63510728118E+03  0.68710715022E+03  0.17168471446E+03 0.  0.
         24    2    5    5    0    0 -0.50442752750E+02  0.62862164341E+02  0.47386768404E+03  0.48711498018E+03  0.78957576760E+02 0.  0.
          5    1    5    5  501    0 -0.87918022872E+02  0.79037912711E+02  0.16123959714E+03  0.19999217004E+03  0.47000000000E+01 0. -1.
        -11    1    6    6    0    0 -0.49253988231E+02  0.53646190362E+02  0.19601616249E+03  0.20910811810E+03  0.00000000000E+00 0.  1.
         12    1    6    6    0    0 -0.11887645196E+01  0.92159739790E+01  0.27785152155E+03  0.27800686208E+03  0.00000000000E+00 0. -1.
         -5    1    3    3    0  503  0.32218654484E+02 -0.10736599607E+03 -0.47374288756E+01  0.11229439898E+03  0.47000000000E+01 0.  1.
         11    1    4    4    0    0  0.55634277360E+00  0.18517456674E+02 -0.96329173738E+01  0.20880584668E+02  0.00000000000E+00 0. -1.
        -12    1    4    4    0    0  0.10558577836E+03 -0.53051537655E+02 -0.98472489110E+02  0.15381694754E+03  0.00000000000E+00 0.  1.
</event>
<event>
12    1  0.1681255E-001  0.1771338E+03  0.7818608E-02  0.1172458E+00
         21   -1    0    0  503  502  0.00000000000E+00  0.00000000000E+00  0.33312540398E+02  0.33312540398E+02  0.00000000000E+00 0.  1.
         21   -1    0    0  501  503 -0.00000000000E+00 -0.00000000000E+00 -0.10322639035E+04  0.10322639035E+04  0.00000000000E+00 0.  1.
          6    2    1    2  501    0  0.16672537293E+02  0.34060995528E+02 -0.69697663929E+03  0.71913336956E+03  0.17302671062E+03 0.  0.
         24    2    3    3    0    0  0.43134072948E+02  0.30722767788E+01 -0.18762342063E+03  0.20813111426E+03  0.79031801340E+02 0.  0.
         -6    2    1    2    0  502 -0.16672537293E+02 -0.34060995528E+02 -0.30197472378E+03  0.34644307430E+03  0.16551720458E+03 0.  0.
        -24    2    5    5    0    0 -0.53338519763E+01 -0.53553138977E+02 -0.30551309415E+03  0.32313814980E+03  0.90463387572E+02 0.  0.
          5    1    3    3  501    0 -0.26461535656E+02  0.30988718749E+02 -0.50935321866E+03  0.51100225530E+03  0.47000000000E+01 0. -1.
        -11    1    4    4    0    0  0.55890770351E+02  0.15380258631E+02 -0.17950746166E+03  0.18863525481E+03  0.00000000000E+00 0.  1.
         12    1    4    4    0    0 -0.12756697403E+02 -0.12307981852E+02 -0.81159589708E+01  0.19495859456E+02  0.00000000000E+00 0. -1.
         -5    1    5    5    0  502 -0.11338685316E+02  0.19492143449E+02  0.35383703703E+01  0.23304924497E+02  0.47000000000E+01 0.  1.
         11    1    6    6    0    0  0.40019175910E+02 -0.11973469698E+02 -0.15511037684E+03  0.16063663163E+03  0.00000000000E+00 0. -1.
        -12    1    6    6    0    0 -0.45353027886E+02 -0.41579669278E+02 -0.15040271730E+03  0.16250151817E+03  0.00000000000E+00 0.  1.
</event>
<event>
12    1  0.1681255E-001  0.2197493E+03  0.7818608E-02  0.1134103E+00
         21   -1    0    0  503  502  0.00000000000E+00  0.00000000000E+00  0.11473986070E+03  0.11473986070E+03  0.00000000000E+00 0. -1.
         21   -1    0    0  501  503 -0.00000000000E+00 -0.00000000000E+00 -0.73122160568E+03  0.73122160568E+03  0.00000000000E+00 0. -1.
          6    2    1    2  501    0 -0.59761564497E+02 -0.12266075191E+03 -0.32593850550E+02  0.22215336684E+03  0.17225752424E+03 0.  0.
         24    2    3    3    0    0 -0.26808032728E+02  0.67923972657E+00 -0.41872287187E+02  0.94064069165E+02  0.79847534015E+02 0.  0.
         -6    2    1    2    0  502  0.59761564497E+02  0.12266075191E+03 -0.58388789442E+03  0.62380809953E+03  0.17203013439E+03 0.  0.
        -24    2    5    5    0    0  0.37621196307E+02  0.14025030871E+03 -0.33878324682E+03  0.37703296568E+03  0.79336406388E+02 0.  0.
          5    1    3    3  501    0 -0.32953531769E+02 -0.12333999164E+03  0.92784366371E+01  0.12808929768E+03  0.47000000000E+01 0. -1.
        -13    1    4    4    0    0 -0.18091627679E+02  0.27385862630E+02 -0.54217274928E+02  0.63378272024E+02  0.00000000000E+00 0.  1.
         14    1    4    4    0    0 -0.87164050487E+01 -0.26706622904E+02  0.12344987740E+02  0.30685797142E+02  0.00000000000E+00 0. -1.
         -5    1    5    5    0  502  0.22140368190E+02 -0.17589556795E+02 -0.24510464760E+03  0.24677513386E+03  0.47000000000E+01 0.  1.
         13    1    6    6    0    0 -0.60474145230E+01  0.14324832915E+02 -0.11887395608E+03  0.11988656928E+03  0.00000000000E+00 0. -1.
        -14    1    6    6    0    0  0.43668610830E+02  0.12592547579E+03 -0.21990929074E+03  0.25714639640E+03  0.00000000000E+00 0.  1.
</event>
<event>
12    1  0.1681255E-001  0.1953469E+03  0.7818608E-02  0.1153818E+00
         21   -1    0    0  503  502  0.00000000000E+00  0.00000000000E+00  0.29074489374E+03  0.29074489374E+03  0.00000000000E+00 0. -1.
         21   -1    0    0  501  503 -0.00000000000E+00 -0.00000000000E+00 -0.13521782105E+03  0.13521782105E+03  0.00000000000E+00 0. -1.
          6    2    1    2  501    0  0.60663897509E+02 -0.69668764558E+02  0.40069407512E+02  0.19941407347E+03  0.17212370570E+03 0.  0.
         24    2    3    3    0    0  0.10691322265E+03 -0.50571683375E+02  0.13761856697E+02  0.14268774964E+03  0.78628702521E+02 0.  0.
         -6    2    1    2    0  502 -0.60663897509E+02  0.69668764558E+02  0.11545766518E+03  0.22654864132E+03  0.17163906670E+03 0.  0.
        -24    2    5    5    0    0 -0.80190953948E+02  0.63917976524E+02  0.14258638658E+03  0.19230780282E+03  0.78328261632E+02 0.  0.
          5    1    3    3  501    0 -0.46249325141E+02 -0.19097081183E+02  0.26307550816E+02  0.56726323833E+02  0.47000000000E+01 0. -1.
        -13    1    4    4    0    0  0.43459722889E+02  0.13056898001E+02  0.25517729284E+02  0.52061354255E+02  0.00000000000E+00 0.  1.
         14    1    4    4    0    0  0.63453499761E+02 -0.63628581376E+02 -0.11755872587E+02  0.90626395383E+02  0.00000000000E+00 0. -1.
         -5    1    5    5    0  502  0.19527056438E+02  0.57507880339E+01 -0.27128721402E+02  0.34240838498E+02  0.47000000000E+01 0.  1.
         13    1    6    6    0    0 -0.33001775684E+02  0.44142849740E+02  0.12759769271E+03  0.13899237233E+03  0.00000000000E+00 0. -1.
        -14    1    6    6    0    0 -0.47189178263E+02  0.19775126784E+02  0.14988693870E+02  0.53315430491E+02  0.00000000000E+00 0.  1.
</event>
<event>
12    1  0.1681255E-001  0.2161262E+03  0.7818608E-02  0.1137407E+00
         21   -1    0    0  501  502  0.00000000000E+00  0.00000000000E+00  0.10519620102E+04  0.10519620102E+04  0.00000000000E+00 0. -1.
         21   -1    0    0  502  503 -0.00000000000E+00 -0.00000000000E+00 -0.44322903237E+02  0.44322903237E+02  0.00000000000E+00 0.  1.
         -6    2    1    2    0  503  0.12552251750E+03 -0.24263223035E+01  0.56914227562E+03  0.60879672307E+03  0.17592251331E+03 0.  0.
        -24    2    3    3    0    0  0.15317627337E+03 -0.15981080252E+02  0.53514153721E+03  0.56268162914E+03  0.80720414234E+02 0.  0.
          6    2    1    2  501    0 -0.12552251750E+03  0.24263223035E+01  0.43849683134E+03  0.48748819036E+03  0.17205660465E+03 0.  0.
         24    2    5    5    0    0 -0.47350861158E+02  0.10500994453E+02  0.87485280520E+02  0.12775605808E+03  0.79470504785E+02 0.  0.
          5    1    5    5  501    0 -0.78171656347E+02 -0.80746721497E+01  0.35101155082E+03  0.35973213228E+03  0.47000000000E+01 0. -1.
        -11    1    6    6    0    0 -0.27588762723E+01  0.14727886588E+02  0.81145965594E+02  0.82517814888E+02  0.00000000000E+00 0.  1.
         12    1    6    6    0    0 -0.44591984885E+02 -0.42268921348E+01  0.63393149265E+01  0.45238243189E+02  0.00000000000E+00 0. -1.
         -5    1    3    3    0  503 -0.27653755862E+02  0.13554757949E+02  0.34000738405E+02  0.46115093932E+02  0.47000000000E+01 0.  1.
         13    1    4    4    0    0  0.13725205194E+03 -0.41842414952E+02  0.44489651401E+03  0.46746317676E+03  0.00000000000E+00 0. -1.
        -14    1    4    4    0    0  0.15924221425E+02  0.25861334700E+02  0.90245023202E+02  0.95218452377E+02  0.00000000000E+00 0.  1.
</event>
<event>
12    1  0.1681255E-001  0.1976324E+03  0.7818608E-02  0.1152018E+00
         21   -1    0    0  503  502  0.00000000000E+00  0.00000000000E+00  0.48605408904E+02  0.48605408904E+02  0.00000000000E+00 0.  1.
         21   -1    0    0  501  503 -0.00000000000E+00 -0.00000000000E+00 -0.90507308196E+03  0.90507308196E+03  0.00000000000E+00 0.  1.
          6    2    1    2  501    0  0.18857207071E+02  0.92426032590E+02 -0.26583861655E+03  0.33125325952E+03  0.17366745848E+03 0.  0.
         24    2    3    3    0    0 -0.33776268671E+02  0.10721787980E+03 -0.22090897509E+03  0.26033186505E+03  0.79595192112E+02 0.  0.
         -6    2    1    2    0  502 -0.18857207071E+02 -0.92426032590E+02 -0.59062905650E+03  0.62242523134E+03  0.17225655420E+03 0.  0.
        -24    2    5    5    0    0 -0.72173617154E+02 -0.70571651588E+02 -0.48367699573E+03  0.50084773813E+03  0.81948957073E+02 0.  0.
          5    1    3    3  501    0  0.52633475742E+02 -0.14791847211E+02 -0.44929641455E+02  0.70921394472E+02  0.47000000000E+01 0. -1.
        -11    1    4    4    0    0 -0.15453230530E+02  0.10816184147E+03 -0.14118796145E+03  0.17852682359E+03  0.00000000000E+00 0.  1.
         12    1    4    4    0    0 -0.18323038142E+02 -0.94396167245E+00 -0.79721013645E+02  0.81805041452E+02  0.00000000000E+00 0. -1.
         -5    1    5    5    0  502  0.53316410082E+02 -0.21854381002E+02 -0.10695206077E+03  0.12157749321E+03  0.47000000000E+01 0.  1.
         11    1    6    6    0    0 -0.18950274441E+02 -0.66710857784E+01 -0.28176086565E+03  0.28247619670E+03  0.00000000000E+00 0. -1.
        -12    1    6    6    0    0 -0.53223342713E+02 -0.63900565810E+02 -0.20191613008E+03  0.21837154143E+03  0.00000000000E+00 0.  1.
</event>
<event>
12    1  0.1681255E-001  0.1800346E+03  0.7818608E-02  0.1168051E+00
         21   -1    0    0  503  502  0.00000000000E+00  0.00000000000E+00  0.50324645594E+02  0.50324645594E+02  0.00000000000E+00 0.  1.
         21   -1    0    0  501  503 -0.00000000000E+00 -0.00000000000E+00 -0.77350835194E+03  0.77350835194E+03  0.00000000000E+00 0. -1.
          6    2    1    2  501    0  0.15843915592E+01  0.53669309025E+02 -0.53373793554E+03  0.56328379052E+03  0.17184161254E+03 0.  0.
         24    2    3    3    0    0  0.64436564236E+01  0.26008094432E+02 -0.10864445308E+03  0.13723764974E+03  0.79451958036E+02 0.  0.
         -6    2    1    2    0  502 -0.15843915592E+01 -0.53669309025E+02 -0.18944577080E+03  0.26054920701E+03  0.17062615324E+03 0.  0.
        -24    2    5    5    0    0 -0.51430684851E+02 -0.18317438002E+02 -0.17028372814E+03  0.19633330852E+03  0.81052921513E+02 0.  0.
          5    1    3    3  501    0 -0.48592648644E+01  0.27661214593E+02 -0.42509348246E+03  0.42604614078E+03  0.47000000000E+01 0. -1.
        -13    1    4    4    0    0  0.31673913388E+02 -0.73508016337E+01 -0.17434132407E+02  0.36894715702E+02  0.00000000000E+00 0.  1.
         14    1    4    4    0    0 -0.25230256964E+02  0.33358896066E+02 -0.91210320673E+02  0.10034293403E+03  0.00000000000E+00 0. -1.
         -5    1    5    5    0  502  0.49846293292E+02 -0.35351871023E+02 -0.19162042660E+02  0.64215898488E+02  0.47000000000E+01 0.  1.
         11    1    6    6    0    0  0.44342310754E+01 -0.10708813950E+02 -0.12068790483E+03  0.12124319145E+03  0.00000000000E+00 0. -1.
        -12    1    6    6    0    0 -0.55864915926E+02 -0.76086240517E+01 -0.49595823314E+02  0.75090117070E+02  0.00000000000E+00 0.  1.
</event>
<event>
12    1  0.1681255E-001  0.2060294E+03  0.7818608E-02  0.1145228E+00
         21   -1    0    0  503  502  0.00000000000E+00  0.00000000000E+00  0.16105279544E+04  0.16105279544E+04  0.00000000000E+00 0. -1.
         21   -1    0    0  501  503 -0.00000000000E+00 -0.00000000000E+00 -0.30001681278E+02  0.30001681278E+02  0.00000000000E+00 0.  1.
          6    2    1    2  501    0  0.11007571178E+03 -0.22649572856E+02  0.10837374222E+04  0.11027125071E+04  0.16987762515E+03 0.  0.
         24    2    3    3    0    0  0.11620307034E+03 -0.57044251489E+02  0.10054672295E+04  0.10168704923E+04  0.79398036891E+02 0.  0.
         -6    2    1    2    0  502 -0.11007571178E+03  0.22649572856E+02  0.49678885097E+03  0.53781712864E+03  0.17268015502E+03 0.  0.
        -24    2    5    5    0    0 -0.12359082878E+03  0.48839996297E+02  0.28802886115E+03  0.32693464948E+03  0.79155555583E+02 0.  0.
          5    1    3    3  501    0 -0.61273585657E+01  0.34394678633E+02  0.78270192637E+02  0.85842014752E+02  0.47000000000E+01 0. -1.
        -11    1    4    4    0    0  0.59853505722E+02 -0.18636531503E+02  0.22934393296E+03  0.23775702311E+03  0.00000000000E+00 0.  1.
         12    1    4    4    0    0  0.56349564620E+02 -0.38407719986E+02  0.77612329658E+03  0.77911346919E+03  0.00000000000E+00 0. -1.
         -5    1    5    5    0  502  0.13515117000E+02 -0.26190423441E+02  0.20875998982E+03  0.21088247916E+03  0.47000000000E+01 0.  1.
         13    1    6    6    0    0 -0.30834685045E+02  0.93122870582E+01  0.16380488847E+03  0.16694172030E+03  0.00000000000E+00 0. -1.
        -14    1    6    6    0    0 -0.92756143732E+02  0.39527709239E+02  0.12422397268E+03  0.15999292918E+03  0.00000000000E+00 0.  1.
</event>
<event>
12    1  0.1681255E-001  0.2129609E+03  0.7818608E-02  0.1139527E+00
         21   -1    0    0  503  502  0.00000000000E+00  0.00000000000E+00  0.84119722668E+03  0.84119722668E+03  0.00000000000E+00 0.  1.
         21   -1    0    0  501  503 -0.00000000000E+00 -0.00000000000E+00 -0.77252231980E+02  0.77252231980E+02  0.00000000000E+00 0.  1.
          6    2    1    2  501    0 -0.12407418153E+03 -0.13053746013E+02  0.12849054959E+03  0.24872108371E+03  0.17259071047E+03 0.  0.
         24    2    3    3    0    0 -0.10517038674E+03 -0.72578872478E+02  0.87358136355E+02  0.17379071899E+03  0.79014347075E+02 0.  0.
         -6    2    1    2    0  502  0.12407418153E+03  0.13053746013E+02  0.63545444510E+03  0.66972837494E+03  0.17078917294E+03 0.  0.
        -24    2    5    5    0    0  0.72707450161E+02  0.37201003626E+02  0.20243054104E+03  0.23297510062E+03  0.81418582541E+02 0.  0.
          5    1    3    3  501    0 -0.18903794796E+02  0.59525126465E+02  0.41132413236E+02  0.74930364720E+02  0.47000000000E+01 0. -1.
        -11    1    4    4    0    0 -0.19312088058E+02  0.14788856173E+02  0.29745085911E+02  0.38424434256E+02  0.00000000000E+00 0.  1.
         12    1    4    4    0    0 -0.85858298680E+02 -0.87367728651E+02  0.57613050444E+02  0.13536628474E+03  0.00000000000E+00 0. -1.
         -5    1    5    5    0  502  0.51366731373E+02 -0.24147257613E+02  0.43302390407E+03  0.43675327433E+03  0.47000000000E+01 0.  1.
         13    1    6    6    0    0  0.18672232091E+02 -0.81957120642E+00 -0.13620183622E+01  0.18739771670E+02  0.00000000000E+00 0. -1.
        -14    1    6    6    0    0  0.54035218070E+02  0.38020574832E+02  0.20379255940E+03  0.21423532895E+03  0.00000000000E+00 0.  1.
</event>
<event>
12    1  0.1681255E-001  0.1728311E+03  0.7818608E-02  0.1175072E+00
         21   -1    0    0  503  502  0.00000000000E+00  0.00000000000E+00  0.55347535012E+02  0.55347535012E+02  0.00000000000E+00 0. -1.
         21   -1    0    0  501  503 -0.00000000000E+00 -0.00000000000E+00 -0.55490962442E+03  0.55490962442E+03  0.00000000000E+00 0. -1.
          6    2    1    2  501    0  0.19574075177E+01  0.14040053528E+02 -0.30276507305E+03  0.34834179901E+03  0.17168099758E+03 0.  0.
         24    2    3    3    0    0  0.18848975041E+02 -0.56076184122E+02 -0.16184549295E+03  0.18996872715E+03  0.79964563522E+02 0.  0.
         -6    2    1    2    0  502 -0.19574075177E+01 -0.14040053528E+02 -0.19679701636E+03  0.26191536043E+03  0.17224876148E+03 0.  0.
        -24    2    5    5    0    0 -0.68616102114E+02 -0.50022659858E+01 -0.98718445308E+02  0.14289200445E+03  0.77068809232E+02 0.  0.
          5    1    3    3  501    0 -0.16891567523E+02  0.70116237650E+02 -0.14091958009E+03  0.15837307186E+03  0.47000000000E+01 0. -1.
        -13    1    4    4    0    0  0.38767979030E+02 -0.46157961913E+02 -0.15558389213E+03  0.16685281279E+03  0.00000000000E+00 0.  1.
         14    1    4    4    0    0 -0.19919003989E+02 -0.99182222096E+01 -0.62616008231E+01  0.23115914357E+02  0.00000000000E+00 0. -1.
         -5    1    5    5    0  502  0.66658694596E+02 -0.90377875421E+01 -0.98078571054E+02  0.11902335598E+03  0.47000000000E+01 0.  1.
         11    1    6    6    0    0 -0.18910261154E+02 -0.25680465565E+02 -0.16990799482E+01  0.31936987354E+02  0.00000000000E+00 0. -1.
        -12    1    6    6    0    0 -0.49705840960E+02  0.20678199579E+02 -0.97019365360E+02  0.11095501709E+03  0.00000000000E+00 0.  1.
</event>
<event>
12    1  0.1681255E-001  0.2251069E+03  0.7818608E-02  0.1130276E+00
         21   -1    0    0  501  502  0.00000000000E+00  0.00000000000E+00  0.18382189053E+04  0.18382189053E+04  0.00000000000E+00 0.  1.
         21   -1    0    0  502  503 -0.00000000000E+00 -0.00000000000E+00 -0.32117541853E+02  0.32117541853E+02  0.00000000000E+00 0. -1.
         -6    2    1    2    0  503  0.67172152080E+02 -0.12781023807E+03  0.12601853093E+04  0.12801328548E+04  0.17270077333E+03 0.  0.
        -24    2    3    3    0    0 -0.15086483073E+02 -0.38932233664E+02  0.25836161530E+03  0.27100521835E+03  0.70354696516E+02 0.  0.
          6    2    1    2  501    0 -0.67172152080E+02  0.12781023807E+03  0.54591605415E+03  0.59020359239E+03  0.17166358763E+03 0.  0.
         24    2    5    5    0    0  0.43930639989E-01  0.75335372235E+02  0.44328294810E+03  0.45668483798E+03  0.79911506842E+02 0.  0.
          5    1    5    5  501    0 -0.67216082720E+02  0.52474865839E+02  0.10263310605E+03  0.13351875441E+03  0.47000000000E+01 0. -1.
        -11    1    6    6    0    0  0.31502771722E+02  0.10411789453E+02  0.20672043943E+03  0.20936611489E+03  0.00000000000E+00 0.  1.
         12    1    6    6    0    0 -0.31458841082E+02  0.64923582782E+02  0.23656250867E+03  0.24731872309E+03  0.00000000000E+00 0. -1.
         -5    1    3    3    0  503  0.82258635153E+02 -0.88878004410E+02  0.10018236940E+04  0.10091276364E+04  0.47000000000E+01 0.  1.
         13    1    4    4    0    0 -0.29668168220E+02 -0.49912252328E+01  0.19773661171E+03  0.20001219999E+03  0.00000000000E+00 0. -1.
        -14    1    4    4    0    0  0.14581685147E+02 -0.33941008431E+02  0.60625003588E+02  0.70993018355E+02  0.00000000000E+00 0.  1.
</event>
<event>
12    1  0.1681255E-001  0.1934884E+03  0.7818608E-02  0.1158543E+00
         21   -1    0    0  503  502  0.00000000000E+00  0.00000000000E+00  0.13362689740E+04  0.13362689740E+04  0.00000000000E+00 0. -1.
         21   -1    0    0  501  503 -0.00000000000E+00 -0.00000000000E+00 -0.28419483776E+02  0.28419483776E+02  0.00000000000E+00 0. -1.
          6    2    1    2  501    0  0.13192842522E+02  0.55038605879E+02  0.47883679231E+03  0.51645178885E+03  0.18502561257E+03 0.  0.
         24    2    3    3    0    0  0.16779986045E+01 -0.27711486774E+02  0.23577965363E+03  0.25939336722E+03  0.10450900304E+03 0.  0.
         -6    2    1    2    0  502 -0.13192842522E+02 -0.55038605879E+02  0.82901269794E+03  0.84823666895E+03  0.17041154297E+03 0.  0.
        -24    2    5    5    0    0  0.24015765807E+01 -0.50983983053E+02  0.22848558732E+03  0.24747504696E+03  0.80206615405E+02 0.  0.
          5    1    3    3  501    0  0.11514843917E+02  0.82750092653E+02  0.24305713869E+03  0.25705842163E+03  0.47000000000E+01 0. -1.
        -11    1    4    4    0    0 -0.42980869235E+02 -0.71184356117E+01  0.17923958819E+03  0.18445828043E+03  0.00000000000E+00 0.  1.
         12    1    4    4    0    0  0.44658867840E+02 -0.20593051163E+02  0.56540065437E+02  0.74935086792E+02  0.00000000000E+00 0. -1.
         -5    1    5    5    0  502 -0.15594419103E+02 -0.40546228252E+01  0.60052711061E+03  0.60076162199E+03  0.47000000000E+01 0.  1.
         13    1    6    6    0    0 -0.24416251001E+01 -0.64487439103E+02  0.22294408903E+03  0.23209622610E+03  0.00000000000E+00 0. -1.
        -14    1    6    6    0    0  0.48432016808E+01  0.13503456049E+02  0.55414982955E+01  0.15378820864E+02  0.00000000000E+00 0.  1.
</event>
<event>
12    1  0.1681255E-001  0.2837750E+03  0.7818608E-02  0.1093977E+00
         21   -1    0    0  503  502  0.00000000000E+00  0.00000000000E+00  0.31409002317E+03  0.31409002317E+03  0.00000000000E+00 0. -1.
         21   -1    0    0  501  503 -0.00000000000E+00 -0.00000000000E+00 -0.28579855923E+03  0.28579855923E+03  0.00000000000E+00 0.  1.
          6    2    1    2  501    0  0.13794294181E+03 -0.17520496688E+03 -0.85692655497E+02  0.29407719730E+03  0.17150256894E+03 0.  0.
         24    2    3    3    0    0  0.17520840702E+02 -0.48787174868E+02 -0.69085919140E+02  0.11863257851E+03  0.81324388528E+02 0.  0.
         -6    2    1    2    0  502 -0.13794294181E+03  0.17520496688E+03  0.11398411944E+03  0.30581138509E+03  0.17550837061E+03 0.  0.
        -24    2    5    5    0    0 -0.11984248486E+03  0.17438692753E+03  0.33331546175E+02  0.22301510919E+03  0.62062269428E+02 0.  0.
          5    1    3    3  501    0  0.12042210111E+03 -0.12641779201E+03 -0.16606736357E+02  0.17544461880E+03  0.47000000000E+01 0. -1.
        -11    1    4    4    0    0  0.65182156266E+01 -0.24715877450E+02 -0.84310063061E+02  0.88099650774E+02  0.00000000000E+00 0.  1.
         12    1    4    4    0    0  0.11002625075E+02 -0.24071297418E+02  0.15224143921E+02  0.30532927734E+02  0.00000000000E+00 0. -1.
         -5    1    5    5    0  502 -0.18100456954E+02  0.81803935144E+00  0.80652573262E+02  0.82796275907E+02  0.47000000000E+01 0.  1.
         11    1    6    6    0    0 -0.61206800085E+02  0.95314344765E+02  0.48849272040E+02  0.12335861572E+03  0.00000000000E+00 0. -1.
        -12    1    6    6    0    0 -0.58635684770E+02  0.79072582762E+02 -0.15517725865E+02  0.99656493462E+02  0.00000000000E+00 0.  1.
</event>
<event>
12    1  0.1681255E-001  0.2208573E+03  0.7818608E-02  0.1133272E+00
         21   -1    0    0  501  502  0.00000000000E+00  0.00000000000E+00  0.23315880548E+02  0.23315880548E+02  0.00000000000E+00 0.  1.
         21   -1    0    0  502  503 -0.00000000000E+00 -0.00000000000E+00 -0.23373496976E+04  0.23373496976E+04  0.00000000000E+00 0. -1.
         -6    2    1    2    0  503 -0.50521902578E+02  0.12836364836E+03 -0.15401257429E+04  0.15558602249E+04  0.17229058740E+03 0.  0.
        -24    2    3    3    0    0 -0.65930564384E+02  0.15172211943E+03 -0.14435146441E+04  0.14551684206E+04  0.80088474945E+02 0.  0.
          6    2    1    2  501    0  0.50521902578E+02 -0.12836364836E+03 -0.77390807414E+03  0.80480535327E+03  0.17247684070E+03 0.  0.
         24    2    5    5    0    0  0.67269840631E+02 -0.15001199338E+03 -0.73170032914E+03  0.75428082449E+03  0.80779706073E+02 0.  0.
          5    1    5    5  501    0 -0.16747938053E+02  0.21648345013E+02 -0.42207744996E+02  0.50524528781E+02  0.47000000000E+01 0. -1.
        -11    1    6    6    0    0 -0.14891914383E+02 -0.27560491047E+02 -0.75990964398E+02  0.82194747100E+02  0.00000000000E+00 0.  1.
         12    1    6    6    0    0  0.82161755014E+02 -0.12245150233E+03 -0.65570936475E+03  0.67208607739E+03  0.00000000000E+00 0. -1.
         -5    1    3    3    0  503  0.15408661806E+02 -0.23358471062E+02 -0.96611098846E+02  0.10069180428E+03  0.47000000000E+01 0.  1.
         13    1    4    4    0    0 -0.38471279931E+02  0.12255189237E+02 -0.39611377613E+03  0.39816623749E+03  0.00000000000E+00 0. -1.
        -14    1    4    4    0    0 -0.27459284453E+02  0.13946693019E+03 -0.10474008680E+04  0.10570021831E+04  0.00000000000E+00 0.  1.
</event>
<event>
12    1  0.1681255E-001  0.1727750E+03  0.7818608E-02  0.1175696E+00
         21   -1    0    0  501  502  0.00000000000E+00  0.00000000000E+00  0.43777117479E+03  0.43777117479E+03  0.00000000000E+00 0.  1.
         21   -1    0    0  502  503 -0.00000000000E+00 -0.00000000000E+00 -0.28975163625E+03  0.28975163625E+03  0.00000000000E+00 0.  1.
         -6    2    1    2    0  503  0.25670136458E+02 -0.26046475798E+01 -0.24499600498E+03  0.29820658532E+03  0.16804280697E+03 0.  0.
        -24    2    3    3    0    0  0.24250812989E+02  0.15139372928E+02 -0.26089339131E+03  0.27388207844E+03  0.78286197478E+02 0.  0.
          6    2    1    2  501    0 -0.25670136458E+02  0.26046475798E+01  0.39301554352E+03  0.42931622572E+03  0.17083753722E+03 0.  0.
         24    2    5    5    0    0 -0.28366310085E+02 -0.52130708501E+02  0.33808236282E+03  0.35157966483E+03  0.76067853604E+02 0.  0.
          5    1    5    5  501    0  0.26961736271E+01  0.54735356081E+02  0.54933180695E+02  0.77736560889E+02  0.47000000000E+01 0. -1.
        -11    1    6    6    0    0  0.15710160852E+02 -0.70417902927E+01  0.18804600039E+03  0.18883245014E+03  0.00000000000E+00 0.  1.
         12    1    6    6    0    0 -0.44076470937E+02 -0.45088918209E+02  0.15003636243E+03  0.16274721468E+03  0.00000000000E+00 0. -1.
         -5    1    3    3    0  503  0.14193234687E+01 -0.17744020507E+02  0.15897386330E+02  0.24324506881E+02  0.47000000000E+01 0.  1.
         13    1    4    4    0    0  0.23424302214E+02  0.40470961308E-01 -0.15646292983E+02  0.28169239539E+02  0.00000000000E+00 0. -1.
        -14    1    4    4    0    0  0.82651077512E+00  0.15098901966E+02 -0.24524709833E+03  0.24571283890E+03  0.00000000000E+00 0.  1.
</event>
<event>
12    1  0.1681255E-001  0.1836703E+03  0.7818608E-02  0.1164435E+00
         21   -1    0    0  503  502  0.00000000000E+00  0.00000000000E+00  0.26015874277E+03  0.26015874277E+03  0.00000000000E+00 0.  1.
         21   -1    0    0  501  503 -0.00000000000E+00 -0.00000000000E+00 -0.13963342186E+03  0.13963342186E+03  0.00000000000E+00 0. -1.
          6    2    1    2  501    0 -0.57230003640E+02 -0.23148056883E+02  0.58620452254E+01  0.18376381784E+03  0.17298459850E+03 0.  0.
         24    2    3    3    0    0 -0.39361646081E+02  0.36530915029E+02  0.49185274060E+02  0.10773849280E+03  0.79401163167E+02 0.  0.
         -6    2    1    2    0  502  0.57230003640E+02  0.23148056883E+02  0.11466327569E+03  0.21602834678E+03  0.17236436398E+03 0.  0.
        -24    2    5    5    0    0  0.82000658738E+02 -0.35265773679E+02  0.80163728742E+02  0.14365383681E+03  0.79008977955E+02 0.  0.
          5    1    3    3  501    0 -0.17868357559E+02 -0.59678971912E+02 -0.43323228835E+02  0.76025325037E+02  0.47000000000E+01 0. -1.
        -11    1    4    4    0    0 -0.27519619391E+01  0.13053449697E+02  0.61185039150E+02  0.62622478866E+02  0.00000000000E+00 0.  1.
         12    1    4    4    0    0 -0.36609684142E+02  0.23477465332E+02 -0.11999765090E+02  0.45116013938E+02  0.00000000000E+00 0. -1.
         -5    1    5    5    0  502 -0.24770655098E+02  0.58413830562E+02  0.34499546944E+02  0.72374509975E+02  0.47000000000E+01 0.  1.
         11    1    6    6    0    0 -0.12772370943E+02 -0.18100454668E+02  0.21549934129E+02  0.30905656111E+02  0.00000000000E+00 0. -1.
        -12    1    6    6    0    0  0.94773029681E+02 -0.17165319011E+02  0.58613794613E+02  0.11274818070E+03  0.00000000000E+00 0.  1.
</event>
<event>
12    1  0.1681255E-001  0.2204201E+03  0.7818608E-02  0.1133778E+00
         21   -1    0    0  501  502  0.00000000000E+00  0.00000000000E+00  0.35848115728E+03  0.35848115728E+03  0.00000000000E+00 0.  1.
         21   -1    0    0  502  503 -0.00000000000E+00 -0.00000000000E+00 -0.84562153655E+03  0.84562153655E+03  0.00000000000E+00 0.  1.
         -6    2    1    2    0  503  0.76074764975E+02  0.11281606943E+03 -0.79543656949E+03  0.82511515605E+03  0.17199084066E+03 0.  0.
        -24    2    3    3    0    0  0.10754840410E+03  0.65923779571E+02 -0.68364857241E+03  0.69978310468E+03  0.80052602113E+02 0.  0.
          6    2    1    2  501    0 -0.76074764975E+02 -0.11281606943E+03  0.30829619022E+03  0.37898753778E+03  0.17340754741E+03 0.  0.
         24    2    5    5    0    0 -0.10194445920E+03 -0.63300104472E+02  0.28282834572E+03  0.31741016394E+03  0.79735582021E+02 0.  0.
          5    1    5    5  501    0  0.25869694229E+02 -0.49515964962E+02  0.25467844497E+02  0.61577373839E+02  0.47000000000E+01 0. -1.
        -11    1    6    6    0    0 -0.46398944909E+02 -0.48439469734E+02  0.69992835641E+02  0.96944527220E+02  0.00000000000E+00 0.  1.
         12    1    6    6    0    0 -0.55545514294E+02 -0.14860634738E+02  0.21283551008E+03  0.22046563672E+03  0.00000000000E+00 0. -1.
         -5    1    3    3    0  503 -0.31473639126E+02  0.46892289863E+02 -0.11178799708E+03  0.12533205137E+03  0.47000000000E+01 0.  1.
         11    1    4    4    0    0  0.56285468511E+02 -0.98338501690E+01 -0.29870927647E+03  0.30412495857E+03  0.00000000000E+00 0. -1.
        -12    1    4    4    0    0  0.51262935590E+02  0.75757629740E+02 -0.38493929594E+03  0.39565814611E+03  0.00000000000E+00 0.  1.
</event>
<event>
12    1  0.1681255E-001  0.1831650E+03  0.7818608E-02  0.1164896E+00
         21   -1    0    0  503  502  0.00000000000E+00  0.00000000000E+00  0.90688351428E+02  0.90688351428E+02  0.00000000000E+00 0. -1.
         21   -1    0    0  501  503 -0.00000000000E+00 -0.00000000000E+00 -0.42718794497E+03  0.42718794497E+03  0.00000000000E+00 0. -1.
          6    2    1    2  501    0  0.59378918126E+02  0.20850905401E+02 -0.26409896892E+03  0.32139957176E+03  0.17201396213E+03 0.  0.
         24    2    3    3    0    0 -0.28452887324E+02 -0.10458241839E+01 -0.83355225814E+02  0.11920094791E+03  0.80312587848E+02 0.  0.
         -6    2    1    2    0  502 -0.59378918126E+02 -0.20850905401E+02 -0.72400624622E+02  0.19647672464E+03  0.17146613865E+03 0.  0.
        -24    2    5    5    0    0 -0.33397058326E+02 -0.44697213451E+02  0.18267350942E+02  0.99078186459E+02  0.79809689427E+02 0.  0.
          5    1    3    3  501    0  0.87831805450E+02  0.21896729585E+02 -0.18074374310E+03  0.20219862385E+03  0.47000000000E+01 0. -1.
        -11    1    4    4    0    0 -0.47194619723E+01 -0.25661964588E+02 -0.80803564400E+02  0.84911870592E+02  0.00000000000E+00 0.  1.
         12    1    4    4    0    0 -0.23733425351E+02  0.24616140405E+02 -0.25516614149E+01  0.34289077318E+02  0.00000000000E+00 0. -1.
         -5    1    5    5    0  502 -0.25981859801E+02  0.23846308050E+02 -0.90667975564E+02  0.97398538178E+02  0.47000000000E+01 0.  1.
         13    1    6    6    0    0  0.76503374221E+01 -0.42803280780E+02  0.33878376596E+02  0.55121619252E+02  0.00000000000E+00 0. -1.
        -14    1    6    6    0    0 -0.41047395748E+02 -0.18939326705E+01 -0.15611025654E+02  0.43956567207E+02  0.00000000000E+00 0.  1.
</event>
<event>
12    1  0.1681255E-001  0.1824853E+03  0.7818608E-02  0.1165487E+00
         21   -1    0    0  503  502  0.00000000000E+00  0.00000000000E+00  0.18133399134E+03  0.18133399134E+03  0.00000000000E+00 0. -1.
         21   -1    0    0  501  503 -0.00000000000E+00 -0.00000000000E+00 -0.28415866229E+03  0.28415866229E+03  0.00000000000E+00 0. -1.
          6    2    1    2  501    0  0.99036289699E+01 -0.60091084253E+02 -0.19006068812E+03  0.26348423122E+03  0.17202283180E+03 0.  0.
         24    2    3    3    0    0 -0.43405679202E+02 -0.40356801237E+02 -0.46018010624E+02  0.10855938749E+03  0.78452271593E+02 0.  0.
         -6    2    1    2    0  502 -0.99036289699E+01  0.60091084253E+02  0.87236017171E+02  0.20200842241E+03  0.17172145981E+03 0.  0.
        -24    2    5    5    0    0  0.34096925977E+02  0.88303413449E+02  0.36425458273E+02  0.12896194919E+03  0.79650970749E+02 0.  0.
          5    1    3    3  501    0  0.53309308172E+02 -0.19734283016E+02 -0.14404267750E+03  0.15492484373E+03  0.47000000000E+01 0. -1.
        -11    1    4    4    0    0  0.43073174974E+01 -0.48812224932E+02 -0.30319745486E+02  0.57623547731E+02  0.00000000000E+00 0.  1.
         12    1    4    4    0    0 -0.47712996700E+02  0.84554236944E+01 -0.15698265138E+02  0.50935839762E+02  0.00000000000E+00 0. -1.
         -5    1    5    5    0  502 -0.44000554947E+02 -0.28212329196E+02  0.50810558898E+02  0.73046473220E+02  0.47000000000E+01 0.  1.
         11    1    6    6    0    0  0.22359945092E+02  0.84138439036E+02  0.57605452998E+02  0.10439172517E+03  0.00000000000E+00 0. -1.
        -12    1    6    6    0    0  0.11736980885E+02  0.41649744131E+01 -0.21179994725E+02  0.24570224027E+02  0.00000000000E+00 0.  1.
</event>
<event>
12    1  0.1681255E-001  0.1923406E+03  0.7818608E-02  0.1156801E+00
         21   -1    0    0  501  502  0.00000000000E+00  0.00000000000E+00  0.22354082484E+03  0.22354082484E+03  0.00000000000E+00 0. -1.
         21   -1    0    0  502  503 -0.00000000000E+00 -0.00000000000E+00 -0.17476648387E+03  0.17476648387E+03  0.00000000000E+00 0. -1.
         -6    2    1    2    0  503 -0.52551540804E+01  0.84934625981E+02 -0.25560388818E+02  0.19210216686E+03  0.17031853012E+03 0.  0.
        -24    2    3    3    0    0 -0.21637141527E+02  0.10635545642E+02 -0.65245872934E+02  0.10616177763E+03  0.80199865152E+02 0.  0.
          6    2    1    2  501    0  0.52551540804E+01 -0.84934625981E+02  0.74334729788E+02  0.20620514184E+03  0.17249174222E+03 0.  0.
         24    2    5    5    0    0 -0.22446343082E+02  0.17969381463E+02  0.34610291057E+02  0.92377514588E+02  0.80678348809E+02 0.  0.
          5    1    5    5  501    0  0.27701497162E+02 -0.10290400744E+03  0.39724438732E+02  0.11382762725E+03  0.47000000000E+01 0. -1.
        -11    1    6    6    0    0 -0.50948592111E+02  0.16072312306E+02  0.34896080600E+02  0.63810772619E+02  0.00000000000E+00 0.  1.
         12    1    6    6    0    0  0.28502249029E+02  0.18970691571E+01 -0.28578954366E+00  0.28566741970E+02  0.00000000000E+00 0. -1.
         -5    1    3    3    0  503  0.16381987447E+02  0.74299080338E+02  0.39685484115E+02  0.85940389232E+02  0.47000000000E+01 0.  1.
         13    1    4    4    0    0  0.11670032333E+02  0.18848771791E+02  0.93467909386E+01  0.24058851875E+02  0.00000000000E+00 0. -1.
        -14    1    4    4    0    0 -0.33307173860E+02 -0.82132261487E+01 -0.74592663872E+02  0.82102925757E+02  0.00000000000E+00 0.  1.
</event>
<event>
12    1  0.1681255E-001  0.3430864E+03  0.7818608E-02  0.1065657E+00
         21   -1    0    0  503  502  0.00000000000E+00  0.00000000000E+00  0.33919932490E+03  0.33919932490E+03  0.00000000000E+00 0.  1.
         21   -1    0    0  501  503 -0.00000000000E+00 -0.00000000000E+00 -0.36078587262E+03  0.36078587262E+03  0.00000000000E+00 0. -1.
          6    2    1    2  501    0  0.22548827739E+03 -0.19282281015E+03 -0.83023170617E+02  0.35144145067E+03  0.16909360435E+03 0.  0.
         24    2    3    3    0    0  0.19876296641E+03 -0.11852567376E+03 -0.12085060401E+02  0.24519356973E+03  0.80117325173E+02 0.  0.
         -6    2    1    2    0  502 -0.22548827739E+03  0.19282281015E+03  0.61436622890E+02  0.34854374686E+03  0.17228663757E+03 0.  0.
        -24    2    5    5    0    0 -0.16291380774E+03  0.18166306463E+03 -0.44822911543E+01  0.25685134041E+03  0.80063364469E+02 0.  0.
          5    1    3    3  501    0  0.26725310977E+02 -0.74297136390E+02 -0.70938110216E+02  0.10624788094E+03  0.47000000000E+01 0. -1.
        -11    1    4    4    0    0  0.60912441551E+02 -0.34400682297E+02  0.33254856482E+02  0.77457200814E+02  0.00000000000E+00 0.  1.
         12    1    4    4    0    0  0.13785052486E+03 -0.84124991465E+02 -0.45339916883E+02  0.16773636891E+03  0.00000000000E+00 0. -1.
         -5    1    5    5    0  502 -0.62574469650E+02  0.11159745520E+02  0.65918914044E+02  0.91692406451E+02  0.47000000000E+01 0.  1.
         13    1    6    6    0    0 -0.40082070177E+02  0.95264504155E+02 -0.21968741861E+02  0.10566230984E+03  0.00000000000E+00 0. -1.
        -14    1    6    6    0    0 -0.12283173756E+03  0.86398560478E+02  0.17486450707E+02  0.15118903057E+03  0.00000000000E+00 0.  1.
</event>
<event>
12    1  0.1681255E-001  0.1820950E+03  0.7818608E-02  0.1166302E+00
         21   -1    0    0  501  502  0.00000000000E+00  0.00000000000E+00  0.44868683013E+02  0.44868683013E+02  0.00000000000E+00 0. -1.
         21   -1    0    0  502  503 -0.00000000000E+00 -0.00000000000E+00 -0.91909362465E+03  0.91909362465E+03  0.00000000000E+00 0.  1.
         -6    2    1    2    0  503 -0.36892255785E+01  0.54244023814E+02 -0.65345810347E+03  0.67778651317E+03  0.17155477243E+03 0.  0.
        -24    2    3    3    0    0  0.14744787249E+02  0.86714858372E+02 -0.60532258954E+03  0.61668589429E+03  0.78416703587E+02 0.  0.
          6    2    1    2  501    0  0.36892255785E+01 -0.54244023814E+02 -0.22076683816E+03  0.28617579449E+03  0.17378884893E+03 0.  0.
         24    2    5    5    0    0 -0.22922710220E+02  0.36195620911E+02 -0.11663033451E+03  0.14562677863E+03  0.75953604983E+02 0.  0.
          5    1    5    5  501    0  0.26611935799E+02 -0.90439644724E+02 -0.10413650365E+03  0.14054901586E+03  0.47000000000E+01 0. -1.
        -11    1    6    6    0    0 -0.18087911809E+02  0.41326734903E+01 -0.11121524416E+03  0.11275230409E+03  0.00000000000E+00 0.  1.
         12    1    6    6    0    0 -0.48347984113E+01  0.32062947420E+02 -0.54150903493E+01  0.32874474542E+02  0.00000000000E+00 0. -1.
         -5    1    3    3    0  503 -0.18434012828E+02 -0.32470834558E+02 -0.48135513931E+02  0.61100618878E+02  0.47000000000E+01 0.  1.
         13    1    4    4    0    0  0.34568661966E+02  0.13087994192E+02 -0.28638048238E+03  0.28875607123E+03  0.00000000000E+00 0. -1.
        -14    1    4    4    0    0 -0.19823874717E+02  0.73626864180E+02 -0.31894210716E+03  0.32792982306E+03  0.00000000000E+00 0.  1.
</event>
<event>
12    1  0.1681255E-001  0.2315244E+03  0.7818608E-02  0.1125753E+00
         21   -1    0    0  503  502  0.00000000000E+00  0.00000000000E+00  0.29373873554E+03  0.29373873554E+03  0.00000000000E+00 0. -1.
         21   -1    0    0  501  503 -0.00000000000E+00 -0.00000000000E+00 -0.22287230836E+03  0.22287230836E+03  0.00000000000E+00 0.  1.
          6    2    1    2  501    0  0.15419446898E+03 -0.53551807449E+01  0.14642932522E+03  0.27306784986E+03  0.17123052041E+03 0.  0.
         24    2    3    3    0    0  0.16825284582E+02 -0.12528515974E+02  0.18127989667E+02  0.84905493732E+02  0.80251261315E+02 0.  0.
         -6    2    1    2    0  502 -0.15419446898E+03  0.53551807449E+01 -0.75562898030E+02  0.24354319403E+03  0.17262364721E+03 0.  0.
        -24    2    5    5    0    0 -0.96382838134E+02 -0.60855304920E+02 -0.70773738950E+02  0.15538969655E+03  0.78383774129E+02 0.  0.
          5    1    3    3  501    0  0.13736918440E+03  0.71733352293E+01  0.12830133555E+03  0.18816235613E+03  0.47000000000E+01 0. -1.
        -13    1    4    4    0    0 -0.29772264629E+02 -0.17593626721E+02  0.15676476858E+02  0.37969400430E+02  0.00000000000E+00 0.  1.
         14    1    4    4    0    0  0.46597549211E+02  0.50651107469E+01  0.24515128086E+01  0.46936093301E+02  0.00000000000E+00 0. -1.
         -5    1    5    5    0  502 -0.57811630848E+02  0.66210485664E+02 -0.47891590804E+01  0.88153497480E+02  0.47000000000E+01 0.  1.
         13    1    6    6    0    0 -0.87932825404E+02 -0.47960817029E+02 -0.19753628813E+02  0.10209127095E+03  0.00000000000E+00 0. -1.
        -14    1    6    6    0    0 -0.84500127301E+01 -0.12894487890E+02 -0.51020110137E+02  0.53298425601E+02  0.00000000000E+00 0.  1.
</event>
<event>
12    1  0.1681255E-001  0.2451517E+03  0.7818608E-02  0.1116777E+00
         21   -1    0    0  501  502  0.00000000000E+00  0.00000000000E+00  0.38217443881E+03  0.38217443881E+03  0.00000000000E+00 0. -1.
         21   -1    0    0  502  503 -0.00000000000E+00 -0.00000000000E+00 -0.33905087139E+03  0.33905087139E+03  0.00000000000E+00 0.  1.
         -6    2    1    2    0  503  0.88186750669E+01  0.17005071745E+03 -0.24359231607E+03  0.34399149844E+03  0.17319907337E+03 0.  0.
        -24    2    3    3    0    0 -0.11471336112E+02  0.12885005182E+02 -0.10571088210E+03  0.13388170452E+03  0.80323753030E+02 0.  0.
          6    2    1    2  501    0 -0.88186750669E+01 -0.17005071745E+03  0.28671588348E+03  0.37723381176E+03  0.17636421224E+03 0.  0.
         24    2    5    5    0    0  0.15826979260E+02 -0.18594120123E+02  0.62315023095E+02  0.10534349326E+03  0.81350199098E+02 0.  0.
          5    1    5    5  501    0 -0.24645654327E+02 -0.15145659733E+03  0.22440086039E+03  0.27189031850E+03  0.47000000000E+01 0. -1.
        -11    1    6    6    0    0  0.24926425455E+02  0.31540361482E+01  0.74629904825E+02  0.78745776548E+02  0.00000000000E+00 0.  1.
         12    1    6    6    0    0 -0.90994461947E+01 -0.21748156271E+02 -0.12314881730E+02  0.26597716712E+02  0.00000000000E+00 0. -1.
         -5    1    3    3    0  503  0.20290011179E+02  0.15716571227E+03 -0.13788143397E+03  0.21010979392E+03  0.47000000000E+01 0.  1.
         11    1    4    4    0    0 -0.77170713183E+01 -0.29812133724E+02 -0.16565938951E+02  0.34967797189E+02  0.00000000000E+00 0. -1.
        -12    1    4    4    0    0 -0.37542647940E+01  0.42697138906E+02 -0.89144943149E+02  0.98913907333E+02  0.00000000000E+00 0.  1.
</event>
<event>
12    1  0.1681255E-001  0.2243111E+03  0.7818608E-02  0.1130728E+00
         21   -1    0    0  503  502  0.00000000000E+00  0.00000000000E+00  0.43180630286E+02  0.43180630286E+02  0.00000000000E+00 0. -1.
         21   -1    0    0  501  503 -0.00000000000E+00 -0.00000000000E+00 -0.11938339902E+04  0.11938339902E+04  0.00000000000E+00 0. -1.
          6    2    1    2  501    0 -0.13890322677E+03  0.37954679383E+02 -0.47884339273E+03  0.52877825524E+03  0.17199065197E+03 0.  0.
         24    2    3    3    0    0 -0.61593192747E+02  0.44532031562E+02 -0.12479182285E+03  0.16629417689E+03  0.79397298387E+02 0.  0.
         -6    2    1    2    0  502  0.13890322677E+03 -0.37954679383E+02 -0.67180996720E+03  0.70823636526E+03  0.17185881691E+03 0.  0.
        -24    2    5    5    0    0  0.15426743000E+03 -0.69008457043E+02 -0.59793707574E+03  0.62650699513E+03  0.80135268798E+02 0.  0.
          5    1    3    3  501    0 -0.77310034024E+02 -0.65773521788E+01 -0.35405156988E+03  0.36248407835E+03  0.47000000000E+01 0. -1.
        -13    1    4    4    0    0 -0.29487410403E+02  0.41365524991E+02 -0.12402287381E+03  0.13402345787E+03  0.00000000000E+00 0.  1.
         14    1    4    4    0    0 -0.32105782344E+02  0.31665065712E+01 -0.76894903560E+00  0.32270719026E+02  0.00000000000E+00 0. -1.
         -5    1    5    5    0  502 -0.15364203232E+02  0.31053777660E+02 -0.73872891464E+02  0.81729370126E+02  0.47000000000E+01 0.  1.
         13    1    6    6    0    0  0.36154233702E+02  0.17949108644E+02 -0.12916693074E+03  0.13532699329E+03  0.00000000000E+00 0. -1.
        -14    1    6    6    0    0  0.11811319630E+03 -0.86957565687E+02 -0.46877014499E+03  0.49118000184E+03  0.00000000000E+00 0.  1.
</event>
<event>
12    1  0.1681255E-001  0.2434773E+03  0.7818608E-02  0.1117550E+00
         21   -1    0    0  503  502  0.00000000000E+00  0.00000000000E+00  0.25282715928E+03  0.25282715928E+03  0.00000000000E+00 0.  1.
         21   -1    0    0  501  503 -0.00000000000E+00 -0.00000000000E+00 -0.23785856690E+03  0.23785856690E+03  0.00000000000E+00 0.  1.
          6    2    1    2  501    0  0.12860272633E+03 -0.11583686192E+03 -0.23075447831E+02  0.24456831757E+03  0.17124352795E+03 0.  0.
         24    2    3    3    0    0  0.71788048614E+02 -0.21737759126E+02  0.39109359729E+02  0.11818956523E+03  0.82541972447E+02 0.  0.
         -6    2    1    2    0  502 -0.12860272633E+03  0.11583686192E+03  0.38044040214E+02  0.24611740861E+03  0.17079107127E+03 0.  0.
        -24    2    5    5    0    0 -0.41044082050E+02  0.12555830402E+03  0.20199939762E+02  0.15610893931E+03  0.80699807845E+02 0.  0.
          5    1    3    3  501    0  0.56814677715E+02 -0.94099102798E+02 -0.62184807560E+02  0.12637875234E+03  0.47000000000E+01 0. -1.
        -11    1    4    4    0    0  0.55783011178E+02  0.13480026091E+02 -0.72114905199E+01  0.57839960538E+02  0.00000000000E+00 0.  1.
         12    1    4    4    0    0  0.16005037436E+02 -0.35217785216E+02  0.46320850249E+02  0.60349604693E+02  0.00000000000E+00 0. -1.
         -5    1    5    5    0  502 -0.87558644279E+02 -0.97214420978E+01  0.17844100452E+02  0.90008469298E+02  0.47000000000E+01 0.  1.
         13    1    6    6    0    0 -0.18209916858E+02  0.42145803481E+02  0.46868516049E+02  0.65608898936E+02  0.00000000000E+00 0. -1.
        -14    1    6    6    0    0 -0.22834165192E+02  0.83412500540E+02 -0.26668576287E+02  0.90500040374E+02  0.00000000000E+00 0.  1.
</event>
<event>
12    1  0.1681255E-001  0.1817318E+03  0.7818608E-02  0.1166247E+00
         21   -1    0    0  503  502  0.00000000000E+00  0.00000000000E+00  0.51840429152E+03  0.51840429152E+03  0.00000000000E+00 0.  1.
         21   -1    0    0  501  503 -0.00000000000E+00 -0.00000000000E+00 -0.63974550361E+02  0.63974550361E+02  0.00000000000E+00 0.  1.
          6    2    1    2  501    0  0.33092059716E+01 -0.58638590862E+02  0.20312014164E+03  0.27224504435E+03  0.17149383969E+03 0.  0.
         24    2    3    3    0    0  0.59947102062E+02 -0.68587402649E+02  0.15775999088E+03  0.19885251471E+03  0.79725911952E+02 0.  0.
         -6    2    1    2    0  502 -0.33092059716E+01  0.58638590862E+02  0.25130959952E+03  0.31013379753E+03  0.17197971502E+03 0.  0.
        -24    2    5    5    0    0 -0.18344942802E+02  0.54999731995E+02  0.57930385310E+02  0.11607987419E+03  0.82201582735E+02 0.  0.
          5    1    3    3  501    0 -0.56637896091E+02  0.99488117875E+01  0.45360150758E+02  0.73392529636E+02  0.47000000000E+01 0. -1.
        -11    1    4    4    0    0 -0.37536218817E+01 -0.28302916050E+02  0.99714952603E+02  0.10372182271E+03  0.00000000000E+00 0.  1.
         12    1    4    4    0    0  0.63700723944E+02 -0.40284486599E+02  0.58045038278E+02  0.95130692000E+02  0.00000000000E+00 0. -1.
         -5    1    5    5    0  502  0.15035736830E+02  0.36388588663E+01  0.19337921420E+03  0.19405392334E+03  0.47000000000E+01 0.  1.
         13    1    6    6    0    0  0.26641996920E+02 -0.23298178337E+01  0.86492506556E+01  0.28107536141E+02  0.00000000000E+00 0. -1.
        -14    1    6    6    0    0 -0.44986939722E+02  0.57329549829E+02  0.49281134654E+02  0.87972338050E+02  0.00000000000E+00 0.  1.
</event>
<event>
12    1  0.1681255E-001  0.3098714E+03  0.7818608E-02  0.1080462E+00
         21   -1    0    0  501  502  0.00000000000E+00  0.00000000000E+00  0.12623529322E+03  0.12623529322E+03  0.00000000000E+00 0.  1.
         21   -1    0    0  502  503 -0.00000000000E+00 -0.00000000000E+00 -0.78971253005E+03  0.78971253005E+03  0.00000000000E+00 0. -1.
         -6    2    1    2    0  503 -0.15685060946E+03 -0.20464771187E+03 -0.24243946484E+03  0.39344272479E+03  0.17186472564E+03 0.  0.
        -24    2    3    3    0    0 -0.12764815237E+03 -0.10253499409E+03 -0.21725880930E+03  0.28419096945E+03  0.82192706983E+02 0.  0.
          6    2    1    2  501    0  0.15685060946E+03  0.20464771187E+03 -0.42103777199E+03  0.52250509848E+03  0.17104377461E+03 0.  0.
         24    2    5    5    0    0  0.10738842901E+02  0.89123281770E+02 -0.11547641910E+03  0.16461632713E+03  0.75534427185E+02 0.  0.
          5    1    5    5  501    0  0.14611176655E+03  0.11552443010E+03 -0.30556135289E+03  0.35788877135E+03  0.47000000000E+01 0. -1.
        -11    1    6    6    0    0  0.54846629202E+01  0.89027870428E+02 -0.12510521377E+03  0.15364686053E+03  0.00000000000E+00 0.  1.
         12    1    6    6    0    0  0.52541799810E+01  0.95411342605E-01  0.96287946707E+01  0.10969466596E+02  0.00000000000E+00 0. -1.
         -5    1    3    3    0  503 -0.29202457087E+02 -0.10211271778E+03 -0.25180655544E+02  0.10925175535E+03  0.47000000000E+01 0. -1.
         13    1    4    4    0    0  0.49546540487E+01  0.41945762950E+01  0.18330227159E+01  0.67455940668E+01  0.00000000000E+00 0. -1.
        -14    1    4    4    0    0 -0.13260280642E+03 -0.10672957039E+03 -0.21909183201E+03  0.27744537538E+03  0.00000000000E+00 0.  1.
</event>
<event>
12    1  0.1681255E-001  0.1770709E+03  0.7818608E-02  0.1171839E+00
         21   -1    0    0  503  502  0.00000000000E+00  0.00000000000E+00  0.92939747139E+03  0.92939747139E+03  0.00000000000E+00 0.  1.
         21   -1    0    0  501  503 -0.00000000000E+00 -0.00000000000E+00 -0.76121514790E+02  0.76121514790E+02  0.00000000000E+00 0.  1.
          6    2    1    2  501    0  0.31217908996E+02  0.22276751794E+02  0.45142451236E+02  0.17821379820E+03  0.16808184154E+03 0.  0.
         24    2    3    3    0    0  0.77295415109E+02  0.78147535080E+00 -0.12131371046E+01  0.10924921273E+03  0.77192790338E+02 0.  0.
         -6    2    1    2    0  502 -0.31217908996E+02 -0.22276751794E+02  0.80813350536E+03  0.82730518797E+03  0.17286786876E+03 0.  0.
        -24    2    5    5    0    0 -0.24052617631E+02 -0.82796635082E+02  0.53243550941E+03  0.54491277900E+03  0.77514862078E+02 0.  0.
          5    1    3    3  501    0 -0.46077506113E+02  0.21495276443E+02  0.46355588341E+02  0.68964585473E+02  0.47000000000E+01 0. -1.
        -11    1    4    4    0    0  0.58400383758E+02  0.88124506054E+01  0.34248417233E+02  0.68273114707E+02  0.00000000000E+00 0.  1.
         12    1    4    4    0    0  0.18895031351E+02 -0.80309752546E+01 -0.35461554338E+02  0.40976098025E+02  0.00000000000E+00 0. -1.
         -5    1    5    5    0  502 -0.71652913653E+01  0.60519883289E+02  0.27569799595E+03  0.28239240897E+03  0.47000000000E+01 0.  1.
         11    1    6    6    0    0 -0.22526101894E+02 -0.27698383953E+02  0.39825768159E+03  0.39985473198E+03  0.00000000000E+00 0. -1.
        -12    1    6    6    0    0 -0.15265157369E+01 -0.55098251130E+02  0.13417782783E+03  0.14505804703E+03  0.00000000000E+00 0.  1.
</event>
<event>
12    1  0.1681255E-001  0.2776897E+03  0.7818608E-02  0.1097041E+00
         21   -1    0    0  501  502  0.00000000000E+00  0.00000000000E+00  0.73583643063E+02  0.73583643063E+02  0.00000000000E+00 0.  1.
         21   -1    0    0  502  503 -0.00000000000E+00 -0.00000000000E+00 -0.10806184461E+04  0.10806184461E+04  0.00000000000E+00 0.  1.
         -6    2    1    2    0  503  0.60551412028E+01 -0.21711444031E+03 -0.60785115328E+03  0.66827732989E+03  0.17302086628E+03 0.  0.
        -24    2    3    3    0    0  0.54861937110E+02 -0.60941748518E+02 -0.28786618657E+03  0.30885490166E+03  0.76162195713E+02 0.  0.
          6    2    1    2  501    0 -0.60551412028E+01  0.21711444031E+03 -0.39918364979E+03  0.48592475931E+03  0.17204633250E+03 0.  0.
         24    2    5    5    0    0  0.38665410909E+02  0.20399108625E+03 -0.27716517770E+03  0.35522377334E+03  0.79094981811E+02 0.  0.
          5    1    5    5  501    0 -0.44720552112E+02  0.13123354064E+02 -0.12201847209E+03  0.13070098597E+03  0.47000000000E+01 0. -1.
        -11    1    6    6    0    0  0.60766843182E+01  0.13243073317E+03 -0.11707590504E+03  0.17686603043E+03  0.00000000000E+00 0.  1.
         12    1    6    6    0    0  0.32588726591E+02  0.71560353072E+02 -0.16008927266E+03  0.17835774291E+03  0.00000000000E+00 0. -1.
         -5    1    3    3    0  503 -0.48806795907E+02 -0.15617269179E+03 -0.31998496672E+03  0.35942242823E+03  0.47000000000E+01 0.  1.
         11    1    4    4    0    0  0.11992979269E+02  0.15922735383E+02 -0.91830100064E+02  0.93968783815E+02  0.00000000000E+00 0. -1.
        -12    1    4    4    0    0  0.42868957841E+02 -0.76864483902E+02 -0.19603608650E+03  0.21488611785E+03  0.00000000000E+00 0.  1.
</event>
<event>
12    1  0.1681255E-001  0.2302408E+03  0.7818608E-02  0.1126486E+00
         21   -1    0    0  501  502  0.00000000000E+00  0.00000000000E+00  0.29958242024E+03  0.29958242024E+03  0.00000000000E+00 0.  1.
         21   -1    0    0  502  503 -0.00000000000E+00 -0.00000000000E+00 -0.22821302606E+03  0.22821302606E+03  0.00000000000E+00 0.  1.
         -6    2    1    2    0  503  0.10077761310E+03 -0.11389960056E+03 -0.89467887141E+02  0.24701280987E+03  0.17286289104E+03 0.  0.
        -24    2    3    3    0    0  0.10792144809E+03 -0.14183416893E+03 -0.94213459491E+02  0.21741576702E+03  0.81421553447E+02 0.  0.
          6    2    1    2  501    0 -0.10077761310E+03  0.11389960056E+03  0.16083728132E+03  0.28078263643E+03  0.17274551094E+03 0.  0.
         24    2    5    5    0    0 -0.13013114782E+03  0.10244076654E+03  0.16647755690E+03  0.24842776684E+03  0.81076211678E+02 0.  0.
          5    1    5    5  501    0  0.29353534726E+02  0.11458834019E+02 -0.56402755767E+01  0.32354869595E+02  0.47000000000E+01 0. -1.
        -13    1    6    6    0    0 -0.11146484625E+03  0.11448246426E+03  0.15782969692E+03  0.22459042678E+03  0.00000000000E+00 0.  1.
         14    1    6    6    0    0 -0.18666301577E+02 -0.12041697722E+02  0.86478599826E+01  0.23837340055E+02  0.00000000000E+00 0. -1.
         -5    1    3    3    0  503 -0.71438349930E+01  0.27934568367E+02  0.47455723500E+01  0.29597042845E+02  0.47000000000E+01 0.  1.
         13    1    4    4    0    0 -0.13270041107E+02 -0.10830835758E+02 -0.47042215501E+01  0.17763183684E+02  0.00000000000E+00 0. -1.
        -14    1    4    4    0    0  0.12119148920E+03 -0.13100333317E+03 -0.89509237941E+02  0.19965258334E+03  0.00000000000E+00 0.  1.
</event>
<event>
12    1  0.1681255E-001  0.1841249E+03  0.7818608E-02  0.1164090E+00
         21   -1    0    0  503  502  0.00000000000E+00  0.00000000000E+00  0.22866864570E+03  0.22866864570E+03  0.00000000000E+00 0.  1.
         21   -1    0    0  501  503 -0.00000000000E+00 -0.00000000000E+00 -0.18156482808E+03  0.18156482808E+03  0.00000000000E+00 0.  1.
          6    2    1    2  501    0  0.11326969725E+02  0.63670734799E+02 -0.65238069964E+02  0.19534067461E+03  0.17239405636E+03 0.  0.
         24    2    3    3    0    0  0.23444880265E+02 -0.33607601737E+02 -0.33018248967E+02  0.92044375639E+02  0.75517077650E+02 0.  0.
         -6    2    1    2    0  502 -0.11326969725E+02 -0.63670734799E+02  0.11234188759E+03  0.21489279917E+03  0.17139414435E+03 0.  0.
        -24    2    5    5    0    0 -0.45105083430E+02 -0.96685528347E+02  0.89214551499E+02  0.16209221932E+03  0.83259182205E+02 0.  0.
          5    1    3    3  501    0 -0.12117910540E+02  0.97278336536E+02 -0.32219820997E+02  0.10329629897E+03  0.47000000000E+01 0. -1.
        -11    1    4    4    0    0  0.42594164444E+02  0.32619719156E+01 -0.77453230793E+01  0.43415358285E+02  0.00000000000E+00 0.  1.
         12    1    4    4    0    0 -0.19149284179E+02 -0.36869573653E+02 -0.25272925888E+02  0.48629017354E+02  0.00000000000E+00 0. -1.
         -5    1    5    5    0  502  0.33778113705E+02  0.33014793548E+02  0.23127336087E+02  0.52800579854E+02  0.47000000000E+01 0.  1.
         13    1    6    6    0    0 -0.24416731508E+02 -0.94513592037E+02  0.99062484155E+02  0.13907685510E+03  0.00000000000E+00 0. -1.
        -14    1    6    6    0    0 -0.20688351922E+02 -0.21719363101E+01 -0.98479326555E+01  0.23015364219E+02  0.00000000000E+00 0.  1.
</event>
<event>
12    1  0.1681255E-001  0.1907108E+03  0.7818608E-02  0.1158062E+00
         21   -1    0    0  503  502  0.00000000000E+00  0.00000000000E+00  0.14420960911E+03  0.14420960911E+03  0.00000000000E+00 0. -1.
         21   -1    0    0  501  503 -0.00000000000E+00 -0.00000000000E+00 -0.31233947232E+03  0.31233947232E+03  0.00000000000E+00 0.  1.
          6    2    1    2  501    0 -0.71845537657E+02 -0.36049009598E+02 -0.18558473465E+03  0.26610579710E+03  0.17294302282E+03 0.  0.
         24    2    3    3    0    0 -0.54838737217E+02 -0.40876985262E+02 -0.21059976239E+03  0.23511576284E+03  0.79050281422E+02 0.  0.
         -6    2    1    2    0  502  0.71845537657E+02  0.36049009598E+02  0.17454871439E+02  0.19044328432E+03  0.17176338269E+03 0.  0.
        -24    2    5    5    0    0  0.68000026993E+02 -0.40623308465E+02  0.17346972336E+02  0.11353077590E+03  0.79461077046E+02 0.  0.
          5    1    3    3  501    0 -0.17006800440E+02  0.48279756642E+01  0.25015027747E+02  0.30990034260E+02  0.47000000000E+01 0. -1.
        -13    1    4    4    0    0  0.36453805121E+01  0.14529999257E+00 -0.11851143177E+03  0.11856757302E+03  0.00000000000E+00 0.  1.
         14    1    4    4    0    0 -0.58484117729E+02 -0.41022285255E+02 -0.92088330621E+02  0.11654818982E+03  0.00000000000E+00 0. -1.
         -5    1    5    5    0  502  0.38455106634E+01  0.76672318063E+02  0.10789910300E+00  0.76912508421E+02  0.47000000000E+01 0.  1.
         11    1    6    6    0    0  0.71378010437E+02 -0.13706281803E+02  0.35500854154E+02  0.80888770423E+02  0.00000000000E+00 0. -1.
        -12    1    6    6    0    0 -0.33779834434E+01 -0.26917026662E+02 -0.18153881818E+02  0.32642005476E+02  0.00000000000E+00 0.  1.
</event>
<event>
12    1  0.1681255E-001  0.2734293E+03  0.7818608E-02  0.1099348E+00
         21   -1    0    0  503  502  0.00000000000E+00  0.00000000000E+00  0.52738187078E+03  0.52738187078E+03  0.00000000000E+00 0. -1.
         21   -1    0    0  501  503 -0.00000000000E+00 -0.00000000000E+00 -0.24180544457E+03  0.24180544457E+03  0.00000000000E+00 0.  1.
          6    2    1    2  501    0  0.17494637623E+03 -0.12118068524E+03  0.39025227957E+03  0.47650859927E+03  0.17167588777E+03 0.  0.
         24    2    3    3    0    0  0.57108595157E+02  0.20287356953E+01  0.19875370878E+03  0.22007128399E+03  0.75251749973E+02 0.  0.
         -6    2    1    2    0  502 -0.17494637623E+03  0.12118068524E+03 -0.10467585336E+03  0.29267871608E+03  0.17150161381E+03 0.  0.
        -24    2    5    5    0    0 -0.24440431646E+02  0.76640293906E+02 -0.64156470197E+02  0.13050659694E+03  0.80279822043E+02 0.  0.
          5    1    3    3  501    0  0.11783778107E+03 -0.12320942094E+03  0.19149857079E+03  0.25643731529E+03  0.47000000000E+01 0. -1.
        -11    1    4    4    0    0  0.98073975599E+01 -0.65820091242E+01 -0.33903479122E+01  0.12288301346E+02  0.00000000000E+00 0.  1.
         12    1    4    4    0    0  0.47301197598E+02  0.86107448196E+01  0.20214405669E+03  0.20778298264E+03  0.00000000000E+00 0. -1.
         -5    1    5    5    0  502 -0.15050594459E+03  0.44540391334E+02 -0.40519383164E+02  0.16217211914E+03  0.47000000000E+01 0.  1.
         11    1    6    6    0    0 -0.14602520081E+02  0.92873192742E+02 -0.47890181045E+02  0.10550892362E+03  0.00000000000E+00 0. -1.
        -12    1    6    6    0    0 -0.98379115650E+01 -0.16232898836E+02 -0.16266289152E+02  0.24997673319E+02  0.00000000000E+00 0.  1.
</event>
<event>
12    1  0.1681255E-001  0.2045488E+03  0.7818608E-02  0.1145962E+00
         21   -1    0    0  501  502  0.00000000000E+00  0.00000000000E+00  0.43598340787E+03  0.43598340787E+03  0.00000000000E+00 0.  1.
         21   -1    0    0  502  503 -0.00000000000E+00 -0.00000000000E+00 -0.10978745129E+03  0.10978745129E+03  0.00000000000E+00 0. -1.
         -6    2    1    2    0  503  0.82976242098E+02  0.71698542962E+02  0.66248493637E+02  0.21500951373E+03  0.17266872985E+03 0.  0.
        -24    2    3    3    0    0  0.28774632798E+02 -0.24616590413E+02  0.12455380106E+02  0.92004601507E+02  0.82920167563E+02 0.  0.
          6    2    1    2  501    0 -0.82976242098E+02 -0.71698542962E+02  0.25994746294E+03  0.33076134543E+03  0.17264022222E+03 0.  0.
         24    2    5    5    0    0 -0.64959253404E+01 -0.75594492238E+02  0.21264743259E+03  0.24062921940E+03  0.83227197107E+02 0.  0.
          5    1    5    5  501    0 -0.76480316757E+02  0.38959492762E+01  0.47300030350E+02  0.90132126033E+02  0.47000000000E+01 0. -1.
        -13    1    6    6    0    0 -0.40374544017E+02 -0.23924128855E+02  0.12391346150E+03  0.13250288181E+03  0.00000000000E+00 0.  1.
         14    1    6    6    0    0  0.33878618676E+02 -0.51670363383E+02  0.88733971089E+02  0.10812633759E+03  0.00000000000E+00 0. -1.
         -5    1    3    3    0  503  0.54201609300E+02  0.96315133375E+02  0.53793113530E+02  0.12300491222E+03  0.47000000000E+01 0.  1.
         13    1    4    4    0    0  0.24665221666E+02  0.22599232532E+02 -0.15618739025E+02  0.36919418733E+02  0.00000000000E+00 0. -1.
        -14    1    4    4    0    0  0.41094111323E+01 -0.47215822945E+02  0.28074119132E+02  0.55085182774E+02  0.00000000000E+00 0.  1.
</event>
<event>
12    1  0.1681255E-001  0.1983818E+03  0.7818608E-02  0.1151244E+00
         21   -1    0    0  501  502  0.00000000000E+00  0.00000000000E+00  0.21500972180E+03  0.21500972180E+03  0.00000000000E+00 0.  1.
         21   -1    0    0  502  503 -0.00000000000E+00 -0.00000000000E+00 -0.18605794328E+03  0.18605794328E+03  0.00000000000E+00 0.  1.
         -6    2    1    2    0  503 -0.91547513355E+02 -0.31090999752E+02  0.42302071160E+02  0.20223720845E+03  0.17251905921E+03 0.  0.
        -24    2    3    3    0    0 -0.26022772971E+02 -0.66442912274E+02  0.64546865122E+02  0.12439011358E+03  0.78833731702E+02 0.  0.
          6    2    1    2  501    0  0.91547513355E+02  0.31090999752E+02 -0.13350292641E+02  0.19883045663E+03  0.17322737284E+03 0.  0.
         24    2    5    5    0    0  0.18427349291E+02  0.63205207826E+02  0.31180408170E+02  0.10727198314E+03  0.78743856992E+02 0.  0.
          5    1    5    5  501    0  0.73120164065E+02 -0.32114208075E+02 -0.44530700810E+02  0.91558473490E+02  0.47000000000E+01 0. -1.
        -11    1    6    6    0    0  0.31932306294E+02  0.13657321037E+02 -0.15350895078E+02  0.37971628657E+02  0.00000000000E+00 0.  1.
         12    1    6    6    0    0 -0.13504957003E+02  0.49547886789E+02  0.46531303248E+02  0.69300354479E+02  0.00000000000E+00 0. -1.
         -5    1    3    3    0  503 -0.65524740384E+02  0.35351912522E+02 -0.22244793962E+02  0.77847094870E+02  0.47000000000E+01 0.  1.
         13    1    4    4    0    0 -0.29545437231E+02 -0.64306576069E+02  0.12117391913E+02  0.71799023487E+02  0.00000000000E+00 0. -1.
        -14    1    4    4    0    0  0.35226642594E+01 -0.21363362046E+01  0.52429473209E+02  0.52591090090E+02  0.00000000000E+00 0.  1.
</event>
<event>
12    1  0.1681255E-001  0.2112789E+03  0.7818608E-02  0.1140638E+00
         21   -1    0    0  501  502  0.00000000000E+00  0.00000000000E+00  0.83479246572E+02  0.83479246572E+02  0.00000000000E+00 0.  1.
         21   -1    0    0  502  503 -0.00000000000E+00 -0.00000000000E+00 -0.61259704796E+03  0.61259704796E+03  0.00000000000E+00 0.  1.
         -6    2    1    2    0  503 -0.10719099678E+03  0.59053427302E+02 -0.38968951529E+03  0.44327947170E+03  0.17222530195E+03 0.  0.
        -24    2    3    3    0    0 -0.63407692720E+02  0.10291982732E+03 -0.24958134926E+03  0.29000316252E+03  0.84840780431E+02 0.  0.
          6    2    1    2  501    0  0.10719099678E+03 -0.59053427302E+02 -0.13942828609E+03  0.25279682283E+03  0.17172294432E+03 0.  0.
         24    2    5    5    0    0  0.31662330395E+02  0.30566378499E+01 -0.11606072832E+03  0.15214707174E+03  0.93095609885E+02 0.  0.
          5    1    5    5  501    0  0.75528666386E+02 -0.62110065152E+02 -0.23367557777E+02  0.10064975110E+03  0.47000000000E+01 0. -1.
        -11    1    6    6    0    0  0.34986229865E+02  0.23137283303E+02 -0.86533464146E+01  0.42828151524E+02  0.00000000000E+00 0.  1.
         12    1    6    6    0    0 -0.33238994704E+01 -0.20080645453E+02 -0.10740738190E+03  0.10931892021E+03  0.00000000000E+00 0. -1.
         -5    1    3    3    0  503 -0.43783304060E+02 -0.43866400014E+02 -0.14010816604E+03  0.15327630918E+03  0.47000000000E+01 0.  1.
         13    1    4    4    0    0  0.37009816125E+00  0.71630649848E+02 -0.16273679714E+03  0.17780425224E+03  0.00000000000E+00 0. -1.
        -14    1    4    4    0    0 -0.63777790881E+02  0.31289177468E+02 -0.86844552115E+02  0.11219891028E+03  0.00000000000E+00 0.  1.
</event>
<event>
12    1  0.1681255E-001  0.1731504E+03  0.7818608E-02  0.1174757E+00
         21   -1    0    0  501  502  0.00000000000E+00  0.00000000000E+00  0.27960862282E+03  0.27960862282E+03  0.00000000000E+00 0. -1.
         21   -1    0    0  502  503 -0.00000000000E+00 -0.00000000000E+00 -0.15937619028E+03  0.15937619028E+03  0.00000000000E+00 0. -1.
         -6    2    1    2    0  503 -0.15237024309E+00  0.17880547396E+02 -0.65962854923E+02  0.18472164118E+03  0.17161366291E+03 0.  0.
        -24    2    3    3    0    0  0.61563498598E+02 -0.56869719369E+01 -0.58641577278E+02  0.11808855975E+03  0.81753699297E+02 0.  0.
          6    2    1    2  501    0  0.15237024309E+00 -0.17880547396E+02  0.18619528746E+03  0.25426317192E+03  0.17222467400E+03 0.  0.
         24    2    5    5    0    0 -0.15528501375E+02  0.34632973987E+02  0.37499817364E+02  0.95719826151E+02  0.79469941323E+02 0.  0.
          5    1    5    5  501    0  0.15680871618E+02 -0.52513521383E+02  0.14869547009E+03  0.15854334577E+03  0.47000000000E+01 0. -1.
        -11    1    6    6    0    0 -0.21686248412E+02  0.25987027636E+02  0.61096546914E+02  0.69845594137E+02  0.00000000000E+00 0.  1.
         12    1    6    6    0    0  0.61577470365E+01  0.86459463505E+01 -0.23596729550E+02  0.25874232014E+02  0.00000000000E+00 0. -1.
         -5    1    3    3    0  503 -0.61715868842E+02  0.23567519333E+02 -0.73212776453E+01  0.66633081429E+02  0.47000000000E+01 0.  1.
         11    1    4    4    0    0  0.35829080293E+01  0.26925555212E+02 -0.41145874442E+02  0.49303202097E+02  0.00000000000E+00 0. -1.
        -12    1    4    4    0    0  0.57980590569E+02 -0.32612527148E+02 -0.17495702835E+02  0.68785357653E+02  0.00000000000E+00 0.  1.
</event>
<event>
12    1  0.1681255E-001  0.2003552E+03  0.7818608E-02  0.1149563E+00
         21   -1    0    0  501  502  0.00000000000E+00  0.00000000000E+00  0.17313556803E+03  0.17313556803E+03  0.00000000000E+00 0. -1.
         21   -1    0    0  502  503 -0.00000000000E+00 -0.00000000000E+00 -0.30321194954E+03  0.30321194954E+03  0.00000000000E+00 0.  1.
         -6    2    1    2    0  503  0.14202087085E+02 -0.10172460406E+03 -0.18105540269E+03  0.26960839145E+03  0.17134185580E+03 0.  0.
        -24    2    3    3    0    0  0.67527218508E+02 -0.30149198347E+02 -0.84300216444E+02  0.13788798905E+03  0.80235102235E+02 0.  0.
          6    2    1    2  501    0 -0.14202087085E+02  0.10172460406E+03  0.50979021176E+02  0.20673912611E+03  0.17202503107E+03 0.  0.
         24    2    5    5    0    0 -0.18151072141E+02 -0.15132747348E+02  0.26713708333E+02  0.87231258299E+02  0.79606587349E+02 0.  0.
          5    1    5    5  501    0  0.39489850557E+01  0.11685735141E+03  0.24265312843E+02  0.11950786781E+03  0.47000000000E+01 0. -1.
        -11    1    6    6    0    0 -0.49269318940E+01 -0.13795244778E+02 -0.27636848659E+02  0.31279047942E+02  0.00000000000E+00 0.  1.
         12    1    6    6    0    0 -0.13224140247E+02 -0.13375025701E+01  0.54350556992E+02  0.55952210356E+02  0.00000000000E+00 0. -1.
         -5    1    3    3    0  503 -0.53325131423E+02 -0.71575405717E+02 -0.96755186244E+02  0.13172040241E+03  0.47000000000E+01 0.  1.
         11    1    4    4    0    0 -0.24070504884E+01 -0.49420925855E+01  0.13770266127E+02  0.14826948452E+02  0.00000000000E+00 0. -1.
        -12    1    4    4    0    0  0.69934268996E+02 -0.25207105762E+02 -0.98070482571E+02  0.12306104060E+03  0.00000000000E+00 0.  1.
</event>
<event>
12    1  0.1681255E-001  0.1779163E+03  0.7818608E-02  0.1170011E+00
         21   -1    0    0  501  502  0.00000000000E+00  0.00000000000E+00  0.63457871743E+03  0.63457871743E+03  0.00000000000E+00 0. -1.
         21   -1    0    0  502  503 -0.00000000000E+00 -0.00000000000E+00 -0.49984182170E+02  0.49984182170E+02  0.00000000000E+00 0. -1.
         -6    2    1    2    0  503  0.43214778523E+02  0.33497168555E+01  0.31946775011E+03  0.36566905511E+03  0.17255572090E+03 0.  0.
        -24    2    3    3    0    0 -0.17189885157E+02  0.58882324913E+02  0.20390684373E+03  0.22386282451E+03  0.69093725761E+02 0.  0.
          6    2    1    2  501    0 -0.43214778523E+02 -0.33497168555E+01  0.26512678514E+03  0.31889384449E+03  0.17182064534E+03 0.  0.
         24    2    5    5    0    0 -0.63185033772E+02 -0.57604595036E+02  0.15428896636E+03  0.19379582303E+03  0.80256451580E+02 0.  0.
          5    1    5    5  501    0  0.19970255249E+02  0.54254878180E+02  0.11083781878E+03  0.12509802146E+03  0.47000000000E+01 0. -1.
        -13    1    6    6    0    0 -0.17244140609E+02 -0.59087182782E+02  0.48204213593E+02  0.78181211058E+02  0.00000000000E+00 0.  1.
         14    1    6    6    0    0 -0.45940893163E+02  0.14825877459E+01  0.10608475277E+03  0.11561461197E+03  0.00000000000E+00 0. -1.
         -5    1    3    3    0  503  0.60404663680E+02 -0.55532608057E+02  0.11556090639E+03  0.14180623060E+03  0.47000000000E+01 0.  1.
         13    1    4    4    0    0  0.20159446934E+02  0.49812694240E+02  0.12643559476E+03  0.13738146684E+03  0.00000000000E+00 0. -1.
        -14    1    4    4    0    0 -0.37349332091E+02  0.90696306722E+01  0.77471248971E+02  0.86481357675E+02  0.00000000000E+00 0.  1.
</event>
<event>
12    1  0.1681255E-001  0.2314571E+03  0.7818608E-02  0.1127626E+00
         21   -1    0    0  503  502  0.00000000000E+00  0.00000000000E+00  0.12642172644E+04  0.12642172644E+04  0.00000000000E+00 0. -1.
         21   -1    0    0  501  503 -0.00000000000E+00 -0.00000000000E+00 -0.44264631803E+02  0.44264631803E+02  0.00000000000E+00 0.  1.
          6    2    1    2  501    0 -0.42277253534E+02  0.12980558755E+03  0.40167945538E+03  0.45810351616E+03  0.17284556667E+03 0.  0.
         24    2    3    3    0    0 -0.22105804390E+02  0.15506255591E+02  0.84236987606E+02  0.12007535906E+03  0.81197975479E+02 0.  0.
         -6    2    1    2    0  502  0.42277253534E+02 -0.12980558755E+03  0.81827317718E+03  0.85037838001E+03  0.18691051324E+03 0.  0.
        -24    2    5    5    0    0 -0.38279911045E+02 -0.10881391825E+03  0.60621725520E+03  0.62251896942E+03  0.82004185210E+02 0.  0.
          5    1    3    3  501    0 -0.20171449144E+02  0.11429933196E+03  0.31744246778E+03  0.33802815710E+03  0.47000000000E+01 0. -1.
        -13    1    4    4    0    0 -0.25164745987E+02  0.39000070478E+02  0.18092455658E+02  0.49815729340E+02  0.00000000000E+00 0.  1.
         14    1    4    4    0    0  0.30589415970E+01 -0.23493814887E+02  0.66144531948E+02  0.70259629719E+02  0.00000000000E+00 0. -1.
         -5    1    5    5    0  502  0.80557164579E+02 -0.20991669307E+02  0.21205592198E+03  0.22785941059E+03  0.47000000000E+01 0.  1.
         11    1    6    6    0    0 -0.56610005144E+02 -0.41869440072E+02  0.25700188616E+03  0.26647272315E+03  0.00000000000E+00 0. -1.
        -12    1    6    6    0    0  0.18330094099E+02 -0.66944478176E+02  0.34921536904E+03  0.35604624627E+03  0.00000000000E+00 0.  1.
</event>
<event>
12    1  0.1681255E-001  0.2206718E+03  0.7818608E-02  0.1133636E+00
         21   -1    0    0  501  502  0.00000000000E+00  0.00000000000E+00  0.34228244542E+03  0.34228244542E+03  0.00000000000E+00 0.  1.
         21   -1    0    0  502  503 -0.00000000000E+00 -0.00000000000E+00 -0.14597788521E+03  0.14597788521E+03  0.00000000000E+00 0. -1.
         -6    2    1    2    0  503  0.87874679480E+02 -0.10691100563E+03  0.14170167012E+03  0.26225069141E+03  0.17188408714E+03 0.  0.
        -24    2    3    3    0    0 -0.56883300022E+01 -0.57362667893E+02  0.19808911288E+02  0.10072976654E+03  0.80195137848E+02 0.  0.
          6    2    1    2  501    0 -0.87874679480E+02  0.10691100563E+03  0.54602890087E+02  0.22600963921E+03  0.17013805863E+03 0.  0.
         24    2    5    5    0    0 -0.98569247854E+02  0.13689486928E+03  0.42660147831E+02  0.19168581418E+03  0.80420527774E+02 0.  0.
          5    1    5    5  501    0  0.10694568375E+02 -0.29983863652E+02  0.11942742256E+02  0.34323825032E+02  0.47000000000E+01 0. -1.
        -13    1    6    6    0    0 -0.27798310066E+02 -0.48368301823E+01  0.29756961863E+01  0.28372446784E+02  0.00000000000E+00 0.  1.
         14    1    6    6    0    0 -0.70770937789E+02  0.14173169947E+03  0.39684451645E+02  0.16331336740E+03  0.00000000000E+00 0. -1.
         -5    1    3    3    0  503  0.93563009482E+02 -0.49548337738E+02  0.12189275884E+03  0.16152092488E+03  0.47000000000E+01 0.  1.
         13    1    4    4    0    0  0.25659245700E+02 -0.55933860458E+02  0.29002779044E+02  0.68030543346E+02  0.00000000000E+00 0. -1.
        -14    1    4    4    0    0 -0.31347575702E+02 -0.14288074352E+01 -0.91938677559E+01  0.32699223193E+02  0.00000000000E+00 0.  1.
</event>
<event>
12    1  0.1681255E-001  0.2101772E+03  0.7818608E-02  0.1141754E+00
         21   -1    0    0  503  502  0.00000000000E+00  0.00000000000E+00  0.25229908598E+03  0.25229908598E+03  0.00000000000E+00 0.  1.
         21   -1    0    0  501  503 -0.00000000000E+00 -0.00000000000E+00 -0.22890353562E+03  0.22890353562E+03  0.00000000000E+00 0.  1.
          6    2    1    2  501    0 -0.96150603469E+02  0.68749402053E+02 -0.10647572253E+03  0.23413788073E+03  0.17179071243E+03 0.  0.
         24    2    3    3    0    0 -0.76579042049E+02  0.92610302078E+02 -0.28238040787E+02  0.14990241664E+03  0.85043105747E+02 0.  0.
         -6    2    1    2    0  502  0.96150603469E+02 -0.68749402053E+02  0.12987127289E+03  0.24706474086E+03  0.17379016032E+03 0.  0.
        -24    2    5    5    0    0  0.84364132200E+02  0.68544802800E+01  0.12650582175E+03  0.17032958471E+03  0.76447065269E+02 0.  0.
          5    1    3    3  501    0 -0.19571561420E+02 -0.23860900025E+02 -0.78237681745E+02  0.84235464094E+02  0.47000000000E+01 0. -1.
        -13    1    4    4    0    0 -0.65730144568E+02  0.10344041227E+03 -0.41744288967E+02  0.12947183654E+03  0.00000000000E+00 0.  1.
         14    1    4    4    0    0 -0.10848897481E+02 -0.10830110193E+02  0.13506248180E+02  0.20430580101E+02  0.00000000000E+00 0. -1.
         -5    1    5    5    0  502  0.11786471269E+02 -0.75603882333E+02  0.33654511378E+01  0.76735156155E+02  0.47000000000E+01 0.  1.
         11    1    6    6    0    0 -0.75160755962E+01  0.18440483250E+02  0.34204383493E+02  0.39578815861E+02  0.00000000000E+00 0. -1.
        -12    1    6    6    0    0  0.91880207796E+02 -0.11586002970E+02  0.92301438256E+02  0.13075076885E+03  0.00000000000E+00 0.  1.
</event>
<event>
12    1  0.1681255E-001  0.2967342E+03  0.7818608E-02  0.1086917E+00
         21   -1    0    0  501  502  0.00000000000E+00  0.00000000000E+00  0.36186905379E+03  0.36186905379E+03  0.00000000000E+00 0. -1.
         21   -1    0    0  502  503 -0.00000000000E+00 -0.00000000000E+00 -0.24928153407E+03  0.24928153407E+03  0.00000000000E+00 0.  1.
         -6    2    1    2    0  503  0.22903346119E+03 -0.75310869137E+02  0.82026872233E+01  0.29659154261E+03  0.17254334446E+03 0.  0.
        -24    2    3    3    0    0  0.49699069379E+02 -0.11625123754E+02 -0.41597482492E+02  0.99820495062E+02  0.75024260644E+02 0.  0.
          6    2    1    2  501    0 -0.22903346119E+03  0.75310869137E+02  0.10438483250E+03  0.31455904525E+03  0.17298308107E+03 0.  0.
         24    2    5    5    0    0 -0.21985240983E+03  0.10951394732E+03  0.98817697150E+02  0.27840347504E+03  0.86111386466E+02 0.  0.
          5    1    5    5  501    0 -0.91810513619E+01 -0.34203078180E+02  0.55671353459E+01  0.36155570208E+02  0.47000000000E+01 0. -1.
        -13    1    6    6    0    0 -0.88862255116E+02  0.33060538111E+02 -0.44473130582E+01  0.94917217395E+02  0.00000000000E+00 0.  1.
         14    1    6    6    0    0 -0.13099015471E+03  0.76453409206E+02  0.10326501021E+03  0.18348625764E+03  0.00000000000E+00 0. -1.
         -5    1    3    3    0  503  0.17933439181E+03 -0.63685745383E+02  0.49800169716E+02  0.19677104755E+03  0.47000000000E+01 0.  1.
         11    1    4    4    0    0  0.44473363015E+02  0.10195197643E+01  0.10707596225E+02  0.45755568572E+02  0.00000000000E+00 0. -1.
        -12    1    4    4    0    0  0.52257063642E+01 -0.12644643518E+02 -0.52305078717E+02  0.54064926490E+02  0.00000000000E+00 0.  1.
</event>
<event>
12    1  0.1681255E-001  0.1743093E+03  0.7818608E-02  0.1173944E+00
         21   -1    0    0  501  502  0.00000000000E+00  0.00000000000E+00  0.35851158792E+03  0.35851158792E+03  0.00000000000E+00 0. -1.
         21   -1    0    0  502  503 -0.00000000000E+00 -0.00000000000E+00 -0.11013711556E+03  0.11013711556E+03  0.00000000000E+00 0. -1.
         -6    2    1    2    0  503 -0.23548646320E+02  0.59874376334E+01  0.23940841904E+03  0.29614207965E+03  0.17260750876E+03 0.  0.
        -24    2    3    3    0    0 -0.76141581381E+02 -0.14450380803E+02  0.19603826771E+03  0.22482040505E+03  0.78146389562E+02 0.  0.
          6    2    1    2  501    0  0.23548646320E+02 -0.59874376334E+01  0.89660533208E+01  0.17250662383E+03  0.17055133245E+03 0.  0.
         24    2    5    5    0    0  0.71328312578E+02  0.62945450922E+01  0.39036557557E+02  0.11454052311E+03  0.80425923281E+02 0.  0.
          5    1    5    5  501    0 -0.47779666258E+02 -0.12281982726E+02 -0.30070504237E+02  0.57966100718E+02  0.47000000000E+01 0. -1.
        -11    1    6    6    0    0  0.43834981975E+02  0.19736856401E+02  0.60416250985E+02  0.77208629883E+02  0.00000000000E+00 0.  1.
         12    1    6    6    0    0  0.27493330603E+02 -0.13442311309E+02 -0.21379693427E+02  0.37331893229E+02  0.00000000000E+00 0. -1.
         -5    1    3    3    0  503  0.52592935061E+02  0.20437818436E+02  0.43370151329E+02  0.71321674595E+02  0.47000000000E+01 0.  1.
         11    1    4    4    0    0 -0.13419013440E+02 -0.10408840752E+02  0.13872309270E+03  0.13975875764E+03  0.00000000000E+00 0. -1.
        -12    1    4    4    0    0 -0.62722567942E+02 -0.40415400511E+01  0.57315175008E+02  0.85061647418E+02  0.00000000000E+00 0.  1.
</event>
<event>
12    1  0.1681255E-001  0.1898197E+03  0.7818608E-02  0.1159283E+00
         21   -1    0    0  503  502  0.00000000000E+00  0.00000000000E+00  0.25781086298E+03  0.25781086298E+03  0.00000000000E+00 0. -1.
         21   -1    0    0  501  503 -0.00000000000E+00 -0.00000000000E+00 -0.24599970976E+03  0.24599970976E+03  0.00000000000E+00 0.  1.
          6    2    1    2  501    0  0.52257068031E+02 -0.61337482203E+02 -0.16130736909E+03  0.24690294381E+03  0.16866507776E+03 0.  0.
         24    2    3    3    0    0  0.12982706241E+01  0.36594233002E+01 -0.19420081304E+02  0.82660777503E+02  0.80253272170E+02 0.  0.
         -6    2    1    2    0  502 -0.52257068031E+02  0.61337482203E+02  0.17311852230E+03  0.25690762894E+03  0.17186744648E+03 0.  0.
        -24    2    5    5    0    0 -0.14152819223E+02  0.28143386473E+02  0.18469588302E+03  0.20485086137E+03  0.82818800432E+02 0.  0.
          5    1    3    3  501    0  0.50958797407E+02 -0.64996905503E+02 -0.14188728778E+03  0.16424216630E+03  0.47000000000E+01 0. -1.
        -11    1    4    4    0    0  0.37942756525E+02  0.80380939360E+01 -0.23786936727E+02  0.45498154751E+02  0.00000000000E+00 0.  1.
         12    1    4    4    0    0 -0.36644485901E+02 -0.43786706358E+01  0.43668554234E+01  0.37162622752E+02  0.00000000000E+00 0. -1.
         -5    1    5    5    0  502 -0.38104248809E+02  0.33194095730E+02 -0.11577360714E+02  0.52056767569E+02  0.47000000000E+01 0.  1.
         13    1    6    6    0    0 -0.50071111566E+01  0.54572681850E+02  0.15332101255E+03  0.16282070402E+03  0.00000000000E+00 0. -1.
        -14    1    6    6    0    0 -0.91457080661E+01 -0.26429295378E+02  0.31374870466E+02  0.42030157351E+02  0.00000000000E+00 0.  1.
</event>
<event>
12    1  0.1681255E-001  0.2239464E+03  0.7818608E-02  0.1131254E+00
         21   -1    0    0  501  502  0.00000000000E+00  0.00000000000E+00  0.13446193814E+04  0.13446193814E+04  0.00000000000E+00 0. -1.
         21   -1    0    0  502  503 -0.00000000000E+00 -0.00000000000E+00 -0.48000527621E+02  0.48000527621E+02  0.00000000000E+00 0.  1.
         -6    2    1    2    0  503  0.14032424846E+03 -0.19686576154E+02  0.31735251569E+03  0.38841294632E+03  0.17341724730E+03 0.  0.
        -24    2    3    3    0    0  0.15033411005E+03 -0.24973010027E+02  0.17436098599E+03  0.24489705423E+03  0.79679469521E+02 0.  0.
          6    2    1    2  501    0 -0.14032424846E+03  0.19686576154E+02  0.97926633810E+03  0.10042069627E+04  0.17143688941E+03 0.  0.
         24    2    5    5    0    0 -0.73394528662E+02  0.77270151910E+02  0.55097220102E+03  0.56688166795E+03  0.80168734215E+02 0.  0.
          5    1    5    5  501    0 -0.66929719799E+02 -0.57583575757E+02  0.42829413708E+03  0.43732529477E+03  0.47000000000E+01 0. -1.
        -13    1    6    6    0    0  0.66405583531E+01  0.25330626201E+02  0.45621068939E+02  0.52602467339E+02  0.00000000000E+00 0.  1.
         14    1    6    6    0    0 -0.80035087015E+02  0.51939525709E+02  0.50535113208E+03  0.51427920061E+03  0.00000000000E+00 0. -1.
         -5    1    3    3    0  503 -0.10009861591E+02  0.52864338731E+01  0.14299152971E+03  0.14351589208E+03  0.47000000000E+01 0.  1.
         13    1    4    4    0    0  0.92333353732E+02 -0.35189634762E+02  0.15323010408E+03  0.18232724262E+03  0.00000000000E+00 0. -1.
        -14    1    4    4    0    0  0.58000756321E+02  0.10216624735E+02  0.21130881905E+02  0.62569811610E+02  0.00000000000E+00 0.  1.
</event>
<event>
12    1  0.1681255E-001  0.1988222E+03  0.7818608E-02  0.1150786E+00
         21   -1    0    0  503  502  0.00000000000E+00  0.00000000000E+00  0.11567725211E+03  0.11567725211E+03  0.00000000000E+00 0.  1.
         21   -1    0    0  501  503 -0.00000000000E+00 -0.00000000000E+00 -0.34132834289E+03  0.34132834289E+03  0.00000000000E+00 0. -1.
          6    2    1    2  501    0  0.96726710649E+02 -0.23712833022E+02 -0.11262194897E+03  0.22850373801E+03  0.17208108523E+03 0.  0.
         24    2    3    3    0    0  0.53484978699E+02 -0.54516413142E+02 -0.64073137106E+01  0.10966625793E+03  0.78440756053E+02 0.  0.
         -6    2    1    2    0  502 -0.96726710649E+02  0.23712833022E+02 -0.11302914181E+03  0.22850185700E+03  0.17181139877E+03 0.  0.
        -24    2    5    5    0    0 -0.38479282924E+02 -0.32175284873E+02 -0.66534638451E+01  0.94882549179E+02  0.80265343620E+02 0.  0.
          5    1    3    3  501    0  0.43241731949E+02  0.30803580120E+02 -0.10621463526E+03  0.11883748009E+03  0.47000000000E+01 0. -1.
        -11    1    4    4    0    0  0.74037569294E+02 -0.39997364542E+02 -0.23961601635E+01  0.84184870498E+02  0.00000000000E+00 0.  1.
         12    1    4    4    0    0 -0.20552590595E+02 -0.14519048600E+02 -0.40111535472E+01  0.25481387427E+02  0.00000000000E+00 0. -1.
         -5    1    5    5    0  502 -0.58247427724E+02  0.55888117895E+02 -0.10637567797E+03  0.13361930782E+03  0.47000000000E+01 0.  1.
         13    1    6    6    0    0 -0.61033940406E+01 -0.51124670932E+02 -0.19754064803E+02  0.55147134767E+02  0.00000000000E+00 0. -1.
        -14    1    6    6    0    0 -0.32375888884E+02  0.18949386059E+02  0.13100600958E+02  0.39735414412E+02  0.00000000000E+00 0.  1.
</event>
<event>
12    1  0.1681255E-001  0.1875139E+03  0.7818608E-02  0.1161128E+00
         21   -1    0    0  503  502  0.00000000000E+00  0.00000000000E+00  0.12843297353E+03  0.12843297353E+03  0.00000000000E+00 0.  1.
         21   -1    0    0  501  503 -0.00000000000E+00 -0.00000000000E+00 -0.34369419928E+03  0.34369419928E+03  0.00000000000E+00 0.  1.
          6    2    1    2  501    0  0.69021535099E+02 -0.23797031469E+02 -0.21563614542E+03  0.28461292346E+03  0.17080778077E+03 0.  0.
         24    2    3    3    0    0  0.75630863011E+02  0.30373502795E+02 -0.19529010290E+03  0.22618192617E+03  0.79859015295E+02 0.  0.
         -6    2    1    2    0  502 -0.69021535099E+02  0.23797031469E+02  0.37491967067E+00  0.18751424935E+03  0.17271705801E+03 0.  0.
        -24    2    5    5    0    0 -0.75538081637E+02  0.14776173579E+02 -0.59619815091E+02  0.12631539760E+03  0.80478073016E+02 0.  0.
          5    1    3    3  501    0 -0.66093279116E+01 -0.54170534264E+02 -0.20346042524E+02  0.58430997290E+02  0.47000000000E+01 0. -1.
        -13    1    4    4    0    0  0.43712983411E+02  0.51085577625E+02 -0.16284000987E+03  0.17617443054E+03  0.00000000000E+00 0.  1.
         14    1    4    4    0    0  0.31917879600E+02 -0.20712074831E+02 -0.32450093025E+02  0.50007495631E+02  0.00000000000E+00 0. -1.
         -5    1    5    5    0  502  0.65165465381E+01  0.90208578901E+01  0.59994734761E+02  0.61198851745E+02  0.47000000000E+01 0.  1.
         13    1    6    6    0    0 -0.46501541606E+02 -0.19082563625E+02 -0.64132814958E+02  0.81483468020E+02  0.00000000000E+00 0. -1.
        -14    1    6    6    0    0 -0.29036540032E+02  0.33858737204E+02  0.45129998674E+01  0.44831929580E+02  0.00000000000E+00 0.  1.
</event>
<event>
12    1  0.1681255E-001  0.2709539E+03  0.7818608E-02  0.1101168E+00
         21   -1    0    0  501  502  0.00000000000E+00  0.00000000000E+00  0.30119658254E+03  0.30119658254E+03  0.00000000000E+00 0. -1.
         21   -1    0    0  502  503 -0.00000000000E+00 -0.00000000000E+00 -0.24225581985E+03  0.24225581985E+03  0.00000000000E+00 0.  1.
         -6    2    1    2    0  503  0.85258767475E+02  0.18719777881E+03  0.10380290223E+02  0.27115266506E+03  0.17636312404E+03 0.  0.
        -24    2    3    3    0    0  0.55293328839E+02  0.18800518265E+03  0.56157471421E+02  0.21623254369E+03  0.72107908264E+02 0.  0.
          6    2    1    2  501    0 -0.85258767475E+02 -0.18719777881E+03  0.48560472465E+02  0.27229973732E+03  0.17168856000E+03 0.  0.
         24    2    5    5    0    0 -0.10192924490E+03 -0.14401358446E+03 -0.13847462341E+02  0.19445617763E+03  0.80572757981E+02 0.  0.
          5    1    5    5  501    0  0.16670477424E+02 -0.43184194352E+02  0.62407934806E+02  0.77843559696E+02  0.47000000000E+01 0. -1.
        -13    1    6    6    0    0 -0.73158147769E+01 -0.69641227555E+02 -0.23150364448E+02  0.73752024347E+02  0.00000000000E+00 0.  1.
         14    1    6    6    0    0 -0.94613430121E+02 -0.74372356906E+02  0.93029021064E+01  0.12070415328E+03  0.00000000000E+00 0. -1.
         -5    1    3    3    0  503  0.29965438636E+02 -0.80740383865E+00 -0.45777181198E+02  0.54920121377E+02  0.47000000000E+01 0.  1.
         13    1    4    4    0    0  0.35482951781E+02  0.29814599558E+02 -0.23602826464E+01  0.46406046460E+02  0.00000000000E+00 0. -1.
        -14    1    4    4    0    0  0.19810377058E+02  0.15819058309E+03  0.58517754067E+02  0.16982649723E+03  0.00000000000E+00 0.  1.
</event>
<event>
12    1  0.1681255E-001  0.1956709E+03  0.7818608E-02  0.1153736E+00
         21   -1    0    0  501  502  0.00000000000E+00  0.00000000000E+00  0.10640186967E+04  0.10640186967E+04  0.00000000000E+00 0.  1.
         21   -1    0    0  502  503 -0.00000000000E+00 -0.00000000000E+00 -0.37234884849E+02  0.37234884849E+02  0.00000000000E+00 0.  1.
         -6    2    1    2    0  503  0.15621623986E+02  0.87411410014E+02  0.62213464819E+03  0.65177827037E+03  0.17285428405E+03 0.  0.
        -24    2    3    3    0    0 -0.23133662802E+02  0.85577178149E+02  0.24270379160E+03  0.27033993775E+03  0.79497998159E+02 0.  0.
          6    2    1    2  501    0 -0.15621623986E+02 -0.87411410014E+02  0.40464916363E+03  0.44947531114E+03  0.17436261058E+03 0.  0.
         24    2    5    5    0    0 -0.43681731582E+02 -0.59271152441E+02  0.39459179348E+03  0.40821413776E+03  0.74262612409E+02 0.  0.
          5    1    5    5  501    0  0.28060107596E+02 -0.28140257573E+02  0.10057370148E+02  0.41261173382E+02  0.47000000000E+01 0. -1.
        -11    1    6    6    0    0 -0.59758064267E+02 -0.45173253372E+02  0.22189601127E+03  0.23419967738E+03  0.00000000000E+00 0.  1.
         12    1    6    6    0    0  0.16076332686E+02 -0.14097899069E+02  0.17269578220E+03  0.17401446038E+03  0.00000000000E+00 0. -1.
         -5    1    3    3    0  503  0.38755286788E+02  0.18342318655E+01  0.37943085659E+03  0.38143833263E+03  0.47000000000E+01 0.  1.
         13    1    4    4    0    0 -0.17480113987E+02  0.14646122814E+02  0.65911069866E+01  0.23738281105E+02  0.00000000000E+00 0. -1.
        -14    1    4    4    0    0 -0.56535488145E+01  0.70931055335E+02  0.23611268461E+03  0.24660165664E+03  0.00000000000E+00 0.  1.
</event>
<event>
12    1  0.1681255E-001  0.1977946E+03  0.7818608E-02  0.1151708E+00
         21   -1    0    0  503  502  0.00000000000E+00  0.00000000000E+00  0.23144673913E+03  0.23144673913E+03  0.00000000000E+00 0. -1.
         21   -1    0    0  501  503 -0.00000000000E+00 -0.00000000000E+00 -0.17769732090E+03  0.17769732090E+03  0.00000000000E+00 0. -1.
          6    2    1    2  501    0  0.84174513763E+02  0.48636766266E+02 -0.19299316058E+02  0.19829143667E+03  0.17174442191E+03 0.  0.
         24    2    3    3    0    0  0.88596374485E+02 -0.99932829194E+01 -0.53383745376E+02  0.13016747729E+03  0.78387273188E+02 0.  0.
         -6    2    1    2    0  502 -0.84174513763E+02 -0.48636766266E+02  0.73048734289E+02  0.21085262337E+03  0.17225512300E+03 0.  0.
        -24    2    5    5    0    0 -0.54994085488E+02 -0.49156949004E+02  0.11728757271E+03  0.15764611240E+03  0.75200844199E+02 0.  0.
          5    1    3    3  501    0 -0.44218607221E+01  0.58630049186E+02  0.34084429318E+02  0.68123959380E+02  0.47000000000E+01 0. -1.
        -11    1    4    4    0    0  0.55661291517E+02 -0.43463115878E+02 -0.23144121157E+02  0.74316028952E+02  0.00000000000E+00 0.  1.
         12    1    4    4    0    0  0.32935082968E+02  0.33469832958E+02 -0.30239624218E+02  0.55851448336E+02  0.00000000000E+00 0. -1.
         -5    1    5    5    0  502 -0.29180428275E+02  0.52018273771E+00 -0.44238838421E+02  0.53206510967E+02  0.47000000000E+01 0.  1.
         11    1    6    6    0    0  0.63041662236E+01 -0.22529697329E+02  0.74988370073E+02  0.78553073904E+02  0.00000000000E+00 0. -1.
        -12    1    6    6    0    0 -0.61298251711E+02 -0.26627251675E+02  0.42299202636E+02  0.79093038495E+02  0.00000000000E+00 0.  1.
</event>
<event>
12    1  0.1681255E-001  0.1796565E+03  0.7818608E-02  0.1168605E+00
         21   -1    0    0  503  502  0.00000000000E+00  0.00000000000E+00  0.50711105750E+03  0.50711105750E+03  0.00000000000E+00 0.  1.
         21   -1    0    0  501  503 -0.00000000000E+00 -0.00000000000E+00 -0.63595809015E+02  0.63595809015E+02  0.00000000000E+00 0. -1.
          6    2    1    2  501    0 -0.41919889381E+02  0.26508886603E+02  0.19223164090E+03  0.26180571428E+03  0.17067287445E+03 0.  0.
         24    2    3    3    0    0 -0.94620108253E+02  0.12868992867E+02  0.13263709696E+03  0.18095424900E+03  0.77674094004E+02 0.  0.
         -6    2    1    2    0  502  0.41919889381E+02 -0.26508886603E+02  0.25128360759E+03  0.30890115223E+03  0.17267446891E+03 0.  0.
        -24    2    5    5    0    0  0.11680670321E+02  0.42549247149E+02  0.75652724106E+02  0.11771607583E+03  0.78656616712E+02 0.  0.
          5    1    3    3  501    0  0.52700218872E+02  0.13639893735E+02  0.59594543941E+02  0.80851465279E+02  0.47000000000E+01 0. -1.
        -13    1    4    4    0    0 -0.28303027070E+01  0.23993452695E+02  0.55539289551E+02  0.60566567258E+02  0.00000000000E+00 0.  1.
         14    1    4    4    0    0 -0.91789805546E+02 -0.11124459828E+02  0.77097807405E+02  0.12038768174E+03  0.00000000000E+00 0. -1.
         -5    1    5    5    0  502  0.30239219060E+02 -0.69058133751E+02  0.17563088348E+03  0.19118507640E+03  0.47000000000E+01 0.  1.
         11    1    6    6    0    0  0.43901425686E+02  0.11404171836E+02  0.36949315601E+02  0.58503352348E+02  0.00000000000E+00 0. -1.
        -12    1    6    6    0    0 -0.32220755365E+02  0.31145075313E+02  0.38703408504E+02  0.59212723484E+02  0.00000000000E+00 0.  1.
</event>
<event>
12    1  0.1681255E-001  0.1989101E+03  0.7818608E-02  0.1150670E+00
         21   -1    0    0  501  502  0.00000000000E+00  0.00000000000E+00  0.48720657751E+02  0.48720657751E+02  0.00000000000E+00 0. -1.
         21   -1    0    0  502  503 -0.00000000000E+00 -0.00000000000E+00 -0.97252408104E+03  0.97252408104E+03  0.00000000000E+00 0.  1.
         -6    2    1    2    0  503  0.97563410170E+02  0.12621063815E+02 -0.25444060895E+03  0.32296321040E+03  0.17287944219E+03 0.  0.
        -24    2    3    3    0    0  0.11368104110E+03  0.54919055272E+02 -0.16495827866E+03  0.22257359170E+03  0.79926768279E+02 0.  0.
          6    2    1    2  501    0 -0.97563410170E+02 -0.12621063815E+02 -0.66936281434E+03  0.69828152840E+03  0.17283693303E+03 0.  0.
         24    2    5    5    0    0 -0.10499973606E+03  0.41865003828E+02 -0.52033514705E+03  0.53936215850E+03  0.85937475221E+02 0.  0.
          5    1    5    5  501    0  0.74363258906E+01 -0.54486067643E+02 -0.14902766729E+03  0.15891936990E+03  0.47000000000E+01 0. -1.
        -13    1    6    6    0    0 -0.42357970086E+02 -0.22672117679E+02 -0.12474909018E+03  0.13368080659E+03  0.00000000000E+00 0.  1.
         14    1    6    6    0    0 -0.62641765975E+02  0.64537121508E+02 -0.39558605687E+03  0.40568135191E+03  0.00000000000E+00 0. -1.
         -5    1    3    3    0  503 -0.16117630925E+02 -0.42297991457E+02 -0.89482330285E+02  0.10038961869E+03  0.47000000000E+01 0.  1.
         13    1    4    4    0    0  0.21177602485E+02  0.46102306331E+02 -0.30714108735E+02  0.59306576123E+02  0.00000000000E+00 0. -1.
        -14    1    4    4    0    0  0.92503438610E+02  0.88167489405E+01 -0.13424416993E+03  0.16326701558E+03  0.00000000000E+00 0.  1.
</event>
<event>
12    1  0.1681255E-001  0.2435933E+03  0.7818608E-02  0.1117722E+00
         21   -1    0    0  501  502  0.00000000000E+00  0.00000000000E+00  0.73232471302E+03  0.73232471302E+03  0.00000000000E+00 0.  1.
         21   -1    0    0  502  503 -0.00000000000E+00 -0.00000000000E+00 -0.83712163186E+02  0.83712163186E+02  0.00000000000E+00 0.  1.
         -6    2    1    2    0  503 -0.11388381839E+03 -0.12634107197E+03  0.24455997992E+03  0.34517713790E+03  0.17437339876E+03 0.  0.
        -24    2    3    3    0    0 -0.60528366573E+02 -0.10711279475E+00  0.64571817438E+02  0.11890375166E+03  0.79403324357E+02 0.  0.
          6    2    1    2  501    0  0.11388381839E+03  0.12634107197E+03  0.40405256991E+03  0.47085973830E+03  0.17181042851E+03 0.  0.
         24    2    5    5    0    0  0.22725853119E+02  0.12539639738E+03  0.25132064284E+03  0.29292773278E+03  0.80024185333E+02 0.  0.
          5    1    5    5  501    0  0.91157965268E+02  0.94467459116E+00  0.15273192707E+03  0.17793200552E+03  0.47000000000E+01 0. -1.
        -13    1    6    6    0    0  0.31311856448E+02  0.12503175245E+03  0.18167348836E+03  0.22275239134E+03  0.00000000000E+00 0.  1.
         14    1    6    6    0    0 -0.85860033289E+01  0.36464492985E+00  0.69647154478E+02  0.70175341439E+02  0.00000000000E+00 0. -1.
         -5    1    3    3    0  503 -0.53355451815E+02 -0.12623395917E+03  0.17998816248E+03  0.22627338624E+03  0.47000000000E+01 0.  1.
         11    1    4    4    0    0 -0.51644594366E+02 -0.14981754452E+02  0.18205018916E+01  0.53804565985E+02  0.00000000000E+00 0. -1.
        -12    1    4    4    0    0 -0.88837722072E+01  0.14874641658E+02  0.62751315546E+02  0.65099185677E+02  0.00000000000E+00 0.  1.
</event>
<event>
12    1  0.1681255E-001  0.1751218E+03  0.7818608E-02  0.1172806E+00
         21   -1    0    0  501  502  0.00000000000E+00  0.00000000000E+00  0.71656081526E+03  0.71656081526E+03  0.00000000000E+00 0. -1.
         21   -1    0    0  502  503 -0.00000000000E+00 -0.00000000000E+00 -0.42966655279E+02  0.42966655279E+02  0.00000000000E+00 0. -1.
         -6    2    1    2    0  503 -0.78764978147E+01  0.32112261558E+02  0.30134256926E+03  0.34814092290E+03  0.17117687223E+03 0.  0.
        -24    2    3    3    0    0  0.49245819154E+02  0.56860550451E+02  0.21334249710E+03  0.24024495633E+03  0.80897126496E+02 0.  0.
          6    2    1    2  501    0  0.78764978147E+01 -0.32112261558E+02  0.37225159072E+03  0.41138654764E+03  0.17197211469E+03 0.  0.
         24    2    5    5    0    0 -0.40874933814E+02  0.24923375469E+02  0.26279214660E+03  0.27859639032E+03  0.79147340588E+02 0.  0.
          5    1    5    5  501    0  0.48751431629E+02 -0.57035637027E+02  0.10945944412E+03  0.13279015733E+03  0.47000000000E+01 0. -1.
        -13    1    6    6    0    0 -0.24614537723E+02  0.45271966474E+02  0.88827225906E+02  0.10269227078E+03  0.00000000000E+00 0.  1.
         14    1    6    6    0    0 -0.16260396091E+02 -0.20348591005E+02  0.17396492070E+03  0.17590411954E+03  0.00000000000E+00 0. -1.
         -5    1    3    3    0  503 -0.57122316968E+02 -0.24748288892E+02  0.88000072169E+02  0.10789596656E+03  0.47000000000E+01 0.  1.
         13    1    4    4    0    0  0.10114267841E+02  0.22528855266E+02  0.46134971810E+01  0.25122342442E+02  0.00000000000E+00 0. -1.
        -14    1    4    4    0    0  0.39131551312E+02  0.34331695185E+02  0.20872899991E+03  0.21512261389E+03  0.00000000000E+00 0.  1.
</event>
<event>
12    1  0.1681255E-001  0.1777256E+03  0.7818608E-02  0.1171270E+00
         21   -1    0    0  503  502  0.00000000000E+00  0.00000000000E+00  0.31020030729E+03  0.31020030729E+03  0.00000000000E+00 0. -1.
         21   -1    0    0  501  503 -0.00000000000E+00 -0.00000000000E+00 -0.99533487425E+02  0.99533487425E+02  0.00000000000E+00 0. -1.
          6    2    1    2  501    0  0.13236937474E+02 -0.39777261417E+02  0.88634326476E+02  0.19414547362E+03  0.16756781928E+03 0.  0.
         24    2    3    3    0    0  0.43795005847E+02  0.16517272583E+02  0.91074295440E+02  0.12987329030E+03  0.79885677139E+02 0.  0.
         -6    2    1    2    0  502 -0.13236937474E+02  0.39777261417E+02  0.12203249339E+03  0.21558832109E+03  0.17271058945E+03 0.  0.
        -24    2    5    5    0    0 -0.54823609076E+02  0.74766792916E+02  0.84359290633E+02  0.14929293079E+03  0.81093697859E+02 0.  0.
          5    1    3    3  501    0 -0.30558068373E+02 -0.56294534000E+02 -0.24399689634E+01  0.64272183326E+02  0.47000000000E+01 0. -1.
        -11    1    4    4    0    0  0.62291723910E+02 -0.69214129846E+01  0.63759608491E+02  0.89406109972E+02  0.00000000000E+00 0.  1.
         12    1    4    4    0    0 -0.18496718064E+02  0.23438685568E+02  0.27314686949E+02  0.40467180324E+02  0.00000000000E+00 0. -1.
         -5    1    5    5    0  502  0.41586671603E+02 -0.34989531499E+02  0.37673202756E+02  0.66295390303E+02  0.47000000000E+01 0.  1.
         13    1    6    6    0    0 -0.16954211639E+02  0.49293399683E+02  0.89285082846E+02  0.10338815485E+03  0.00000000000E+00 0. -1.
        -14    1    6    6    0    0 -0.37869397437E+02  0.25473393233E+02 -0.49257922128E+01  0.45904775939E+02  0.00000000000E+00 0.  1.
</event>
<event>
12    1  0.1681255E-001  0.1890657E+03  0.7818608E-02  0.1159630E+00
         21   -1    0    0  501  502  0.00000000000E+00  0.00000000000E+00  0.63676872896E+02  0.63676872896E+02  0.00000000000E+00 0. -1.
         21   -1    0    0  502  503 -0.00000000000E+00 -0.00000000000E+00 -0.69125651735E+03  0.69125651735E+03  0.00000000000E+00 0. -1.
         -6    2    1    2    0  503 -0.73603037246E+02  0.32048428202E+02 -0.47908951312E+03  0.51452718806E+03  0.16960824516E+03 0.  0.
        -24    2    3    3    0    0 -0.99418071063E+02  0.63610244360E+02 -0.41398152442E+03  0.43756158273E+03  0.78416962967E+02 0.  0.
          6    2    1    2  501    0  0.73603037246E+02 -0.32048428202E+02 -0.14849013133E+03  0.24040620219E+03  0.17117626619E+03 0.  0.
         24    2    5    5    0    0 -0.10257775198E+02 -0.17333526821E+02 -0.12951039651E+03  0.15304783384E+03  0.79025461305E+02 0.  0.
          5    1    5    5  501    0  0.83860812444E+02 -0.14714901380E+02 -0.18979734819E+02  0.87358368346E+02  0.47000000000E+01 0. -1.
        -11    1    6    6    0    0 -0.13367364820E+02  0.18459586619E+02 -0.48343905000E+01  0.23298371443E+02  0.00000000000E+00 0.  1.
         12    1    6    6    0    0  0.31095896228E+01 -0.35793113440E+02 -0.12467600601E+03  0.12974946240E+03  0.00000000000E+00 0. -1.
         -5    1    3    3    0  503  0.25815033817E+02 -0.31561816159E+02 -0.65107988703E+02  0.76965605326E+02  0.47000000000E+01 0.  1.
         13    1    4    4    0    0 -0.97422971399E+01 -0.51823051045E+01 -0.14996202651E+03  0.15036747666E+03  0.00000000000E+00 0. -1.
        -14    1    4    4    0    0 -0.89675773923E+02  0.68792549465E+02 -0.26401949790E+03  0.28719410607E+03  0.00000000000E+00 0.  1.
</event>
<event>
12    1  0.1681255E-001  0.1979931E+03  0.7818608E-02  0.1153373E+00
         21   -1    0    0  501  502  0.00000000000E+00  0.00000000000E+00  0.82862697178E+02  0.82862697178E+02  0.00000000000E+00 0.  1.
         21   -1    0    0  502  503 -0.00000000000E+00 -0.00000000000E+00 -0.46698443145E+03  0.46698443145E+03  0.00000000000E+00 0.  1.
         -6    2    1    2    0  503  0.85868233958E+02  0.23238133919E+02 -0.14749614433E+03  0.24689347760E+03  0.17688389474E+03 0.  0.
        -24    2    3    3    0    0  0.82977137920E+02  0.79236379363E+01 -0.17801104287E+03  0.21230820246E+03  0.80242457564E+02 0.  0.
          6    2    1    2  501    0 -0.85868233958E+02 -0.23238133919E+02 -0.23662558994E+03  0.30295365103E+03  0.16696071510E+03 0.  0.
         24    2    5    5    0    0  0.10098715063E+02 -0.45387130425E+02 -0.11211063869E+03  0.14412576797E+03  0.77726868149E+02 0.  0.
          5    1    5    5  501    0 -0.95966949021E+02  0.22148996507E+02 -0.12451495125E+03  0.15882788306E+03  0.47000000000E+01 0. -1.
        -13    1    6    6    0    0  0.71022985238E+01 -0.55109975617E+02 -0.33549480270E+02  0.64908548614E+02  0.00000000000E+00 0.  1.
         14    1    6    6    0    0  0.29964165390E+01  0.97228451912E+01 -0.78561158420E+02  0.79217219359E+02  0.00000000000E+00 0. -1.
         -5    1    3    3    0  503  0.28910960381E+01  0.15314495983E+02  0.30514898536E+02  0.34585275135E+02  0.47000000000E+01 0.  1.
         13    1    4    4    0    0  0.56628139005E+02 -0.30512718877E+02 -0.72251664162E+02  0.96737144441E+02  0.00000000000E+00 0. -1.
        -14    1    4    4    0    0  0.26348998915E+02  0.38436356813E+02 -0.10575937870E+03  0.11557105802E+03  0.00000000000E+00 0.  1.
</event>
<event>
12    1  0.1681255E-001  0.1741805E+03  0.7818608E-02  0.1173714E+00
         21   -1    0    0  503  502  0.00000000000E+00  0.00000000000E+00  0.28696638331E+03  0.28696638331E+03  0.00000000000E+00 0. -1.
         21   -1    0    0  501  503 -0.00000000000E+00 -0.00000000000E+00 -0.15824604981E+03  0.15824604981E+03  0.00000000000E+00 0. -1.
          6    2    1    2  501    0 -0.16955058410E+02 -0.15385647941E+01 -0.64269561029E+02  0.18565942587E+03  0.17334648757E+03 0.  0.
         24    2    3    3    0    0  0.28572560558E+02 -0.40793206658E+02  0.57049311855E+01  0.93289460201E+02  0.78675918924E+02 0.  0.
         -6    2    1    2    0  502  0.16955058410E+02  0.15385647941E+01  0.19298989453E+03  0.25955300725E+03  0.17272180811E+03 0.  0.
        -24    2    5    5    0    0 -0.48937217362E+02 -0.26415952527E+02  0.77209569144E+02  0.12335307777E+03  0.78498474106E+02 0.  0.
          5    1    3    3  501    0 -0.45527618967E+02  0.39254641863E+02 -0.69974492214E+02  0.92369965667E+02  0.47000000000E+01 0. -1.
        -11    1    4    4    0    0  0.35871712232E+02 -0.61268972821E+02  0.79246910477E+01  0.71438557497E+02  0.00000000000E+00 0.  1.
         12    1    4    4    0    0 -0.72991516744E+01  0.20475766164E+02 -0.22197598622E+01  0.21850902704E+02  0.00000000000E+00 0. -1.
         -5    1    5    5    0  502  0.65892275772E+02  0.27954517321E+02  0.11578032538E+03  0.13619992948E+03  0.47000000000E+01 0.  1.
         11    1    6    6    0    0  0.17366591420E+01 -0.38788519360E+02  0.53374347303E+02  0.66002925459E+02  0.00000000000E+00 0. -1.
        -12    1    6    6    0    0 -0.50673876504E+02  0.12372566833E+02  0.23835221841E+02  0.57350152312E+02  0.00000000000E+00 0.  1.
</event>
<event>
12    1  0.1681255E-001  0.2092844E+03  0.7818608E-02  0.1142417E+00
         21   -1    0    0  501  502  0.00000000000E+00  0.00000000000E+00  0.30620889209E+02  0.30620889209E+02  0.00000000000E+00 0.  1.
         21   -1    0    0  502  503 -0.00000000000E+00 -0.00000000000E+00 -0.14927890717E+04  0.14927890717E+04  0.00000000000E+00 0. -1.
         -6    2    1    2    0  503 -0.10490907329E+03 -0.53114802304E+02 -0.90083210037E+03  0.92482346510E+03  0.17312675312E+03 0.  0.
        -24    2    3    3    0    0 -0.96515080025E+02 -0.67407912088E+01 -0.36820846660E+03  0.39009827093E+03  0.85079886953E+02 0.  0.
          6    2    1    2  501    0  0.10490907329E+03  0.53114802304E+02 -0.56133608207E+03  0.59858649577E+03  0.17140740940E+03 0.  0.
         24    2    5    5    0    0  0.43417370080E+02  0.74261723594E+02 -0.20376783555E+03  0.23512320634E+03  0.79760389524E+02 0.  0.
          5    1    5    5  501    0  0.61491703214E+02 -0.21146921290E+02 -0.35756824652E+03  0.36346328943E+03  0.47000000000E+01 0. -1.
        -11    1    6    6    0    0  0.28625840081E+02  0.85415860679E+02 -0.19462842812E+03  0.21446569192E+03  0.00000000000E+00 0.  1.
         12    1    6    6    0    0  0.14791529999E+02 -0.11154137085E+02 -0.91394074272E+01  0.20657514419E+02  0.00000000000E+00 0. -1.
         -5    1    3    3    0  503 -0.83939932692E+01 -0.46374011095E+02 -0.53262363377E+03  0.53472519417E+03  0.47000000000E+01 0.  1.
         13    1    4    4    0    0 -0.49462085201E+02  0.26338317434E+02 -0.27437894156E+03  0.28004286888E+03  0.00000000000E+00 0. -1.
        -14    1    4    4    0    0 -0.47052994824E+02 -0.33079108642E+02 -0.93829525042E+02  0.11005540205E+03  0.00000000000E+00 0.  1.
</event>
<event>
12    1  0.1681255E-001  0.2360260E+03  0.7818608E-02  0.1122931E+00
         21   -1    0    0  503  502  0.00000000000E+00  0.00000000000E+00  0.15513355773E+03  0.15513355773E+03  0.00000000000E+00 0.  1.
         21   -1    0    0  501  503 -0.00000000000E+00 -0.00000000000E+00 -0.39600914695E+03  0.39600914695E+03  0.00000000000E+00 0.  1.
          6    2    1    2  501    0 -0.15551564607E+03 -0.21304519629E+02 -0.20849233524E+03  0.31290558124E+03  0.17263212386E+03 0.  0.
         24    2    3    3    0    0 -0.16389373634E+03 -0.28393894216E+02 -0.22678265340E+03  0.29106348044E+03  0.74968044696E+02 0.  0.
         -6    2    1    2    0  502  0.15551564607E+03  0.21304519629E+02 -0.32383253982E+02  0.23823712344E+03  0.17626472455E+03 0.  0.
        -24    2    5    5    0    0  0.16997926189E+02 -0.12477125869E+02  0.14042826832E+02  0.88217693794E+02  0.84501789024E+02 0.  0.
          5    1    3    3  501    0  0.83780902682E+01  0.70893745873E+01  0.18290318163E+02  0.21842100794E+02  0.47000000000E+01 0. -1.
        -13    1    4    4    0    0 -0.53540893404E+02 -0.45868792768E+02 -0.94738977413E+02  0.11809338363E+03  0.00000000000E+00 0.  1.
         14    1    4    4    0    0 -0.11035284293E+03  0.17474898552E+02 -0.13204367599E+03  0.17297009681E+03  0.00000000000E+00 0. -1.
         -5    1    5    5    0  502  0.13851771988E+03  0.33781645498E+02 -0.46426080814E+02  0.15001942965E+03  0.47000000000E+01 0.  1.
         11    1    6    6    0    0 -0.11602800233E+02 -0.23704136702E+02 -0.26465166494E+02  0.37375340903E+02  0.00000000000E+00 0. -1.
        -12    1    6    6    0    0  0.28600726423E+02  0.11227010833E+02  0.40507993326E+02  0.50842352891E+02  0.00000000000E+00 0.  1.
</event>
<event>
12    1  0.1681255E-001  0.2534909E+03  0.7818608E-02  0.1111201E+00
         21   -1    0    0  503  502  0.00000000000E+00  0.00000000000E+00  0.52883537241E+03  0.52883537241E+03  0.00000000000E+00 0. -1.
         21   -1    0    0  501  503 -0.00000000000E+00 -0.00000000000E+00 -0.29814789459E+03  0.29814789459E+03  0.00000000000E+00 0.  1.
          6    2    1    2  501    0 -0.11298207572E+03  0.14778907059E+03 -0.20320654362E+03  0.32446792112E+03  0.17140587402E+03 0.  0.
         24    2    3    3    0    0 -0.11742084511E+03  0.52006585692E+02 -0.90807579694E+02  0.17665180503E+03  0.80420792511E+02 0.  0.
         -6    2    1    2    0  502  0.11298207572E+03 -0.14778907059E+03  0.43389402144E+03  0.50251534588E+03  0.17219492498E+03 0.  0.
        -24    2    5    5    0    0  0.10567007147E+03 -0.17669022872E+03  0.40091183261E+03  0.45780900263E+03  0.80456102487E+02 0.  0.
          5    1    3    3  501    0  0.44387693833E+01  0.95782484899E+02 -0.11239896392E+03  0.14781611610E+03  0.47000000000E+01 0. -1.
        -13    1    4    4    0    0 -0.36128431550E+01  0.15134579603E+02 -0.46573450701E+02  0.49103914769E+02  0.00000000000E+00 0.  1.
         14    1    4    4    0    0 -0.11380800195E+03  0.36872006088E+02 -0.44234128993E+02  0.12754789026E+03  0.00000000000E+00 0. -1.
         -5    1    5    5    0  502  0.73120042536E+01  0.28901158133E+02  0.32982188827E+02  0.44706343257E+02  0.47000000000E+01 0.  1.
         13    1    6    6    0    0  0.55391601262E+01 -0.74909511811E+02  0.17661595258E+03  0.19192527702E+03  0.00000000000E+00 0. -1.
        -14    1    6    6    0    0  0.10013091134E+03 -0.10178071691E+03  0.22429588003E+03  0.26588372560E+03  0.00000000000E+00 0.  1.
</event>
<event>
12    1  0.1681255E-001  0.2236166E+03  0.7818608E-02  0.1131403E+00
         21   -1    0    0  501  502  0.00000000000E+00  0.00000000000E+00  0.12199475643E+03  0.12199475643E+03  0.00000000000E+00 0. -1.
         21   -1    0    0  502  503 -0.00000000000E+00 -0.00000000000E+00 -0.53091073906E+03  0.53091073906E+03  0.00000000000E+00 0.  1.
         -6    2    1    2    0  503 -0.10324932374E+03 -0.99059691646E+02 -0.36116579063E+03  0.42424752269E+03  0.17050509325E+03 0.  0.
        -24    2    3    3    0    0 -0.69232242193E+02 -0.14221761401E+01 -0.11201077914E+03  0.15445027284E+03  0.80705304624E+02 0.  0.
          6    2    1    2  501    0  0.10324932374E+03  0.99059691646E+02 -0.47750192002E+02  0.22865797280E+03  0.17184627529E+03 0.  0.
         24    2    5    5    0    0 -0.59548820840E+01  0.73504373060E+01 -0.10407608005E+02  0.81169992005E+02  0.79942227567E+02 0.  0.
          5    1    5    5  501    0  0.10920420582E+03  0.91709254341E+02 -0.37342583997E+02  0.14748798080E+03  0.47000000000E+01 0. -1.
        -13    1    6    6    0    0  0.23673831758E+02 -0.32397817274E+00 -0.34760085584E+02  0.42057327801E+02  0.00000000000E+00 0.  1.
         14    1    6    6    0    0 -0.29628713842E+02  0.76744154787E+01  0.24352477579E+02  0.39112664204E+02  0.00000000000E+00 0. -1.
         -5    1    3    3    0  503 -0.34017081544E+02 -0.97637515506E+02 -0.24915501149E+03  0.26979724984E+03  0.47000000000E+01 0.  1.
         13    1    4    4    0    0 -0.15965746901E+02 -0.28105652193E+02 -0.60436793468E+01  0.32884020730E+02  0.00000000000E+00 0. -1.
        -14    1    4    4    0    0 -0.53266495292E+02  0.26683476053E+02 -0.10596709979E+03  0.12156625211E+03  0.00000000000E+00 0.  1.
</event>
<event>
12    1  0.1681255E-001  0.2378704E+03  0.7818608E-02  0.1121245E+00
         21   -1    0    0  503  502  0.00000000000E+00  0.00000000000E+00  0.22157311020E+03  0.22157311020E+03  0.00000000000E+00 0. -1.
         21   -1    0    0  501  503 -0.00000000000E+00 -0.00000000000E+00 -0.26775773662E+03  0.26775773662E+03  0.00000000000E+00 0.  1.
          6    2    1    2  501    0 -0.12739642452E+03 -0.10363557359E+03 -0.76060972030E+02  0.24959153179E+03  0.17187344234E+03 0.  0.
         24    2    3    3    0    0 -0.88160616501E+02 -0.58636072888E+02  0.21919182408E+02  0.13475859071E+03  0.80429744908E+02 0.  0.
         -6    2    1    2    0  502  0.12739642452E+03  0.10363557359E+03  0.29876345609E+02  0.23973931502E+03  0.17208184694E+03 0.  0.
        -24    2    5    5    0    0  0.13413274414E+03  0.12972281834E+03  0.46466596805E+02  0.20775105506E+03  0.78624128693E+02 0.  0.
          5    1    3    3  501    0 -0.39235808019E+02 -0.44999500703E+02 -0.97980154437E+02  0.11483294108E+03  0.47000000000E+01 0. -1.
        -13    1    4    4    0    0 -0.46792083761E+02 -0.74925077927E+02  0.11375554262E+02  0.89065535646E+02  0.00000000000E+00 0.  1.
         14    1    4    4    0    0 -0.41368532740E+02  0.16289005039E+02  0.10543628145E+02  0.45693055060E+02  0.00000000000E+00 0. -1.
         -5    1    5    5    0  502 -0.67363196201E+01 -0.26087244747E+02 -0.16590251196E+02  0.31988259960E+02  0.47000000000E+01 0.  1.
         13    1    6    6    0    0  0.11915819245E+03  0.91702085212E+02  0.63836136911E+02  0.16334931783E+03  0.00000000000E+00 0. -1.
        -14    1    6    6    0    0  0.14974551694E+02  0.38020733127E+02 -0.17369540106E+02  0.44401737234E+02  0.00000000000E+00 0.  1.
</event>
<event>
12    1  0.1681255E-001  0.1744223E+03  0.7818608E-02  0.1173508E+00
         21   -1    0    0  503  502  0.00000000000E+00  0.00000000000E+00  0.92569657728E+03  0.92569657728E+03  0.00000000000E+00 0. -1.
         21   -1    0    0  501  503 -0.00000000000E+00 -0.00000000000E+00 -0.15217422387E+03  0.15217422387E+03  0.00000000000E+00 0. -1.
          6    2    1    2  501    0  0.64596362966E+01 -0.24852416207E+02 -0.90915235007E+02  0.19601170144E+03  0.17174294062E+03 0.  0.
         24    2    3    3    0    0 -0.48882642311E+02 -0.20005972620E+01 -0.85077289960E+01  0.94040820902E+02  0.79861000711E+02 0.  0.
         -6    2    1    2    0  502 -0.64596362966E+01  0.24852416207E+02  0.86443758842E+03  0.88185909971E+03  0.17252176088E+03 0.  0.
        -24    2    5    5    0    0 -0.79123257656E+01  0.60359856841E+02  0.81431109848E+03  0.82023407524E+03  0.77301072820E+02 0.  0.
          5    1    3    3  501    0  0.55342278608E+02 -0.22851818945E+02 -0.82407506011E+02  0.10197088054E+03  0.47000000000E+01 0. -1.
        -13    1    4    4    0    0 -0.51399765681E+01 -0.72328670116E+01  0.32600003695E+02  0.33786002505E+02  0.00000000000E+00 0.  1.
         14    1    4    4    0    0 -0.43742665743E+02  0.52322697496E+01 -0.41107732691E+02  0.60254818397E+02  0.00000000000E+00 0. -1.
         -5    1    5    5    0  502  0.14526894690E+01 -0.35507440635E+02  0.50126489931E+02  0.61625024462E+02  0.47000000000E+01 0.  1.
         11    1    6    6    0    0 -0.38816573460E+02  0.25837638248E+02  0.54267073986E+03  0.54467039742E+03  0.00000000000E+00 0. -1.
        -12    1    6    6    0    0  0.30904247694E+02  0.34522218594E+02  0.27164035862E+03  0.27556367782E+03  0.00000000000E+00 0.  1.
</event>
<event>
12    1  0.1681255E-001  0.3169190E+03  0.7818608E-02  0.1077205E+00
         21   -1    0    0  501  502  0.00000000000E+00  0.00000000000E+00  0.43548823612E+03  0.43548823612E+03  0.00000000000E+00 0.  1.
         21   -1    0    0  502  503 -0.00000000000E+00 -0.00000000000E+00 -0.30302841589E+03  0.30302841589E+03  0.00000000000E+00 0. -1.
         -6    2    1    2    0  503  0.75977771494E+02  0.25458392378E+03 -0.11534575146E+03  0.33621666171E+03  0.17073782599E+03 0.  0.
        -24    2    3    3    0    0  0.83904765110E+02  0.12072633485E+03 -0.13356058758E+02  0.16767978515E+03  0.79518982075E+02 0.  0.
          6    2    1    2  501    0 -0.75977771494E+02 -0.25458392378E+03  0.24780557169E+03  0.40229999030E+03  0.17277755881E+03 0.  0.
         24    2    5    5    0    0  0.11731342350E+02 -0.55530584355E+02  0.90927306926E+02  0.13406874577E+03  0.80531877262E+02 0.  0.
          5    1    5    5  501    0 -0.87709113844E+02 -0.19905333942E+03  0.15687826476E+03  0.26823124453E+03  0.47000000000E+01 0. -1.
        -11    1    6    6    0    0  0.29964298308E+02 -0.45398875640E+02  0.97965678745E+02  0.11205441220E+03  0.00000000000E+00 0.  1.
         12    1    6    6    0    0 -0.18232955958E+02 -0.10131708714E+02 -0.70383718192E+01  0.22014333565E+02  0.00000000000E+00 0. -1.
         -5    1    3    3    0  503 -0.79269936155E+01  0.13385758893E+03 -0.10198969270E+03  0.16853687656E+03  0.47000000000E+01 0.  1.
         13    1    4    4    0    0  0.95678857753E+01  0.56791722344E+02 -0.34832356761E+02  0.67306294227E+02  0.00000000000E+00 0. -1.
        -14    1    4    4    0    0  0.74336879334E+02  0.63934612503E+02  0.21476298003E+02  0.10037349093E+03  0.00000000000E+00 0.  1.
</event>
<event>
12    1  0.1681255E-001  0.2021131E+03  0.7818608E-02  0.1147969E+00
         21   -1    0    0  503  502  0.00000000000E+00  0.00000000000E+00  0.35566764645E+03  0.35566764645E+03  0.00000000000E+00 0.  1.
         21   -1    0    0  501  503 -0.00000000000E+00 -0.00000000000E+00 -0.17701853391E+03  0.17701853391E+03  0.00000000000E+00 0. -1.
          6    2    1    2  501    0  0.39992389094E+02  0.98072044445E+02 -0.68512126491E+02  0.21340828424E+03  0.17213851172E+03 0.  0.
         24    2    3    3    0    0  0.55259950060E+02 -0.77475774897E+01 -0.42675821272E+02  0.10331516242E+03  0.75756914055E+02 0.  0.
         -6    2    1    2    0  502 -0.39992389094E+02 -0.98072044445E+02  0.24716123903E+03  0.31927789612E+03  0.17214000054E+03 0.  0.
        -24    2    5    5    0    0 -0.26080324355E+01 -0.60008603045E+01  0.35242988014E+02  0.85170809117E+02  0.77260509731E+02 0.  0.
          5    1    3    3  501    0 -0.15267560966E+02  0.10581962193E+03 -0.25836305219E+02  0.11009312182E+03  0.47000000000E+01 0. -1.
        -13    1    4    4    0    0 -0.11342850927E+02 -0.22948175554E+02 -0.14478417190E+02  0.29409243322E+02  0.00000000000E+00 0.  1.
         14    1    4    4    0    0  0.66602800988E+02  0.15200598065E+02 -0.28197404082E+02  0.73905919099E+02  0.00000000000E+00 0. -1.
         -5    1    5    5    0  502 -0.37384356658E+02 -0.92071184140E+02  0.21191825102E+03  0.23410708701E+03  0.47000000000E+01 0.  1.
         11    1    6    6    0    0  0.16126974730E+02 -0.71734082018E+01  0.55092519272E+02  0.57850866708E+02  0.00000000000E+00 0. -1.
        -12    1    6    6    0    0 -0.18735007165E+02  0.11725478973E+01 -0.19849531258E+02  0.27319942409E+02  0.00000000000E+00 0.  1.
</event>
<event>
12    1  0.1681255E-001  0.1809721E+03  0.7818608E-02  0.1167369E+00
         21   -1    0    0  501  502  0.00000000000E+00  0.00000000000E+00  0.34501105911E+03  0.34501105911E+03  0.00000000000E+00 0.  1.
         21   -1    0    0  502  503 -0.00000000000E+00 -0.00000000000E+00 -0.25296566884E+03  0.25296566884E+03  0.00000000000E+00 0.  1.
         -6    2    1    2    0  503  0.44908990624E+02  0.21455131174E+02 -0.19101192603E+03  0.26312824575E+03  0.17399361405E+03 0.  0.
        -24    2    3    3    0    0 -0.26430115756E+02  0.14284239156E+02 -0.15395580626E+03  0.18228311105E+03  0.92855542567E+02 0.  0.
          6    2    1    2  501    0 -0.44908990624E+02 -0.21455131174E+02  0.28305731629E+03  0.33484848220E+03  0.17182817474E+03 0.  0.
         24    2    5    5    0    0 -0.85992766126E+02 -0.10041628425E+02  0.12979475758E+03  0.17569557913E+03  0.80787791788E+02 0.  0.
          5    1    5    5  501    0  0.41083775502E+02 -0.11413502749E+02  0.15326255871E+03  0.15915290308E+03  0.47000000000E+01 0. -1.
        -11    1    6    6    0    0 -0.83684660604E+02  0.12064938988E+02  0.12799049330E+03  0.15339573510E+03  0.00000000000E+00 0.  1.
         12    1    6    6    0    0 -0.23081055220E+01 -0.22106567413E+02  0.18042642827E+01  0.22299844024E+02  0.00000000000E+00 0. -1.
         -5    1    3    3    0  503  0.71339106380E+02  0.71708920175E+01 -0.37056119772E+02  0.80845134696E+02  0.47000000000E+01 0.  1.
         11    1    4    4    0    0  0.16911687939E+02  0.42457521937E+02 -0.78072123038E+02  0.90464925544E+02  0.00000000000E+00 0. -1.
        -12    1    4    4    0    0 -0.43341803695E+02 -0.28173282780E+02 -0.75883683223E+02  0.91818185506E+02  0.00000000000E+00 0.  1.
</event>
<event>
12    1  0.1681255E-001  0.1874625E+03  0.7818608E-02  0.1160950E+00
         21   -1    0    0  503  502  0.00000000000E+00  0.00000000000E+00  0.58832470613E+03  0.58832470613E+03  0.00000000000E+00 0.  1.
         21   -1    0    0  501  503 -0.00000000000E+00 -0.00000000000E+00 -0.13983746119E+03  0.13983746119E+03  0.00000000000E+00 0.  1.
          6    2    1    2  501    0  0.72019698101E+02  0.15305697496E+02 -0.51943213421E+02  0.19377201418E+03  0.17154706284E+03 0.  0.
         24    2    3    3    0    0  0.10085747457E+03 -0.20959219327E+02  0.11300049379E+01  0.12316310504E+03  0.67500773918E+02 0.  0.
         -6    2    1    2    0  502 -0.72019698101E+02 -0.15305697496E+02  0.50043045836E+03  0.53439015314E+03  0.17239805925E+03 0.  0.
        -24    2    5    5    0    0  0.20766776981E+02  0.42154797706E+01  0.15954457852E+03  0.18053187728E+03  0.81781763769E+02 0.  0.
          5    1    3    3  501    0 -0.28837776468E+02  0.36264916823E+02 -0.53073218359E+02  0.70608909146E+02  0.47000000000E+01 0. -1.
        -11    1    4    4    0    0  0.36531136543E+02 -0.41543205320E+02 -0.37506123629E+01  0.55447533204E+02  0.00000000000E+00 0.  1.
         12    1    4    4    0    0  0.64326338026E+02  0.20583985992E+02  0.48806173008E+01  0.67715571831E+02  0.00000000000E+00 0. -1.
         -5    1    5    5    0  502 -0.92786475082E+02 -0.19521177267E+02  0.34088587984E+03  0.35385827586E+03  0.47000000000E+01 0.  1.
         13    1    6    6    0    0  0.92089299033E+01  0.34751631752E+02  0.13494495581E+03  0.13965178623E+03  0.00000000000E+00 0. -1.
        -14    1    6    6    0    0  0.11557847078E+02 -0.30536151981E+02  0.24599622705E+02  0.40880091048E+02  0.00000000000E+00 0.  1.
</event>
<event>
12    1  0.1681255E-001  0.2830543E+03  0.7818608E-02  0.1094229E+00
         21   -1    0    0  503  502  0.00000000000E+00  0.00000000000E+00  0.96427133427E+02  0.96427133427E+02  0.00000000000E+00 0.  1.
         21   -1    0    0  501  503 -0.00000000000E+00 -0.00000000000E+00 -0.83919019030E+03  0.83919019030E+03  0.00000000000E+00 0. -1.
          6    2    1    2  501    0  0.14382137446E+03 -0.17018883458E+03 -0.31507046992E+03  0.42354353274E+03  0.17455914741E+03 0.  0.
         24    2    3    3    0    0  0.62000659866E+02 -0.17021023116E+02 -0.80831880520E+02  0.13191909177E+03  0.82067391908E+02 0.  0.
         -6    2    1    2    0  502 -0.14382137446E+03  0.17018883458E+03 -0.42769258695E+03  0.51207379099E+03  0.17219114760E+03 0.  0.
        -24    2    5    5    0    0 -0.12119625070E+03  0.63074216434E+02 -0.17919497954E+03  0.24048846639E+03  0.84005796296E+02 0.  0.
          5    1    3    3  501    0  0.81820714593E+02 -0.15316781146E+03 -0.23423858940E+03  0.29162444097E+03  0.47000000000E+01 0. -1.
        -11    1    4    4    0    0  0.30814469105E+02 -0.47086271809E+02 -0.25860073338E+02  0.61930540867E+02  0.00000000000E+00 0.  1.
         12    1    4    4    0    0  0.31186190761E+02  0.30065248693E+02 -0.54971807182E+02  0.69988550907E+02  0.00000000000E+00 0. -1.
         -5    1    5    5    0  502 -0.22625123754E+02  0.10711461814E+03 -0.24849760741E+03  0.27158532459E+03  0.47000000000E+01 0.  1.
         13    1    6    6    0    0 -0.40285467876E+02  0.52013093645E+02 -0.12851889241E+03  0.14437931479E+03  0.00000000000E+00 0. -1.
        -14    1    6    6    0    0 -0.80910782828E+02  0.11061122788E+02 -0.50676087135E+02  0.96109151607E+02  0.00000000000E+00 0.  1.
</event>
<event>
12    1  0.1681255E-001  0.2275202E+03  0.7818608E-02  0.1128603E+00
         21   -1    0    0  501  502  0.00000000000E+00  0.00000000000E+00  0.47038993943E+03  0.47038993943E+03  0.00000000000E+00 0.  1.
         21   -1    0    0  502  503 -0.00000000000E+00 -0.00000000000E+00 -0.11796533981E+03  0.11796533981E+03  0.00000000000E+00 0. -1.
         -6    2    1    2    0  503 -0.10801784230E+03 -0.10291240748E+03  0.97790209242E+02  0.24764563418E+03  0.17177490282E+03 0.  0.
        -24    2    3    3    0    0 -0.64922147675E+02  0.10982470581E+02  0.53465937238E+02  0.11796906254E+03  0.81991422443E+02 0.  0.
          6    2    1    2  501    0  0.10801784230E+03  0.10291240748E+03  0.25463439038E+03  0.34070964505E+03  0.17025149514E+03 0.  0.
         24    2    5    5    0    0  0.11256216162E+03  0.12850122092E+03  0.17442386419E+03  0.25626287648E+03  0.77872803025E+02 0.  0.
          5    1    5    5  501    0 -0.45443193221E+01 -0.25588813445E+02  0.80210526183E+02  0.84446768572E+02  0.47000000000E+01 0. -1.
        -11    1    6    6    0    0  0.11825004309E+03  0.89439712089E+02  0.13713387472E+03  0.20196097243E+03  0.00000000000E+00 0.  1.
         12    1    6    6    0    0 -0.56878814650E+01  0.39061508836E+02  0.37289989474E+02  0.54301904047E+02  0.00000000000E+00 0. -1.
         -5    1    3    3    0  503 -0.43095694627E+02 -0.11389487806E+03  0.44324272005E+02  0.12967657164E+03  0.47000000000E+01 0.  1.
         13    1    4    4    0    0  0.36132198473E+01  0.22617971400E+02 -0.89042171082E+01  0.24574642830E+02  0.00000000000E+00 0. -1.
        -14    1    4    4    0    0 -0.68535367522E+02 -0.11635500819E+02  0.62370154346E+02  0.93394419714E+02  0.00000000000E+00 0.  1.
</event>
<event>
12    1  0.1681255E-001  0.1888104E+03  0.7818608E-02  0.1159850E+00
         21   -1    0    0  501  502  0.00000000000E+00  0.00000000000E+00  0.18611177461E+03  0.18611177461E+03  0.00000000000E+00 0.  1.
         21   -1    0    0  502  503 -0.00000000000E+00 -0.00000000000E+00 -0.53235628802E+03  0.53235628802E+03  0.00000000000E+00 0.  1.
         -6    2    1    2    0  503  0.74064499085E+02  0.11638431625E+02 -0.46090900124E+03  0.49756695232E+03  0.17179860739E+03 0.  0.
        -24    2    3    3    0    0 -0.84991541973E+01  0.54289779348E+02 -0.25872155995E+03  0.27499618667E+03  0.75275768597E+02 0.  0.
          6    2    1    2  501    0 -0.74064499085E+02 -0.11638431625E+02  0.11466448783E+03  0.22090111031E+03  0.17328690849E+03 0.  0.
         24    2    5    5    0    0 -0.48184047411E+02 -0.13508882069E+02  0.14968476736E+03  0.17706269859E+03  0.80258814676E+02 0.  0.
          5    1    5    5  501    0 -0.25880451674E+02  0.18704504440E+01 -0.35020279532E+02  0.43838411721E+02  0.47000000000E+01 0. -1.
        -11    1    6    6    0    0 -0.52518691189E+02 -0.31506584479E+02  0.60903668242E+02  0.86372070689E+02  0.00000000000E+00 0.  1.
         12    1    6    6    0    0  0.43346437784E+01  0.17997702410E+02  0.88781099117E+02  0.90690627901E+02  0.00000000000E+00 0. -1.
         -5    1    3    3    0  503  0.82563653282E+02 -0.42651347723E+02 -0.20218744129E+03  0.22257076565E+03  0.47000000000E+01 0.  1.
         13    1    4    4    0    0 -0.37734925748E+02  0.51456121233E+02 -0.17956968713E+03  0.19057001225E+03  0.00000000000E+00 0. -1.
        -14    1    4    4    0    0  0.29235771551E+02  0.28336581147E+01 -0.79151872823E+02  0.84426174424E+02  0.00000000000E+00 0.  1.
</event>
<event>
12    1  0.1681255E-001  0.1729016E+03  0.7818608E-02  0.1174890E+00
         21   -1    0    0  503  502  0.00000000000E+00  0.00000000000E+00  0.66193821503E+03  0.66193821503E+03  0.00000000000E+00 0.  1.
         21   -1    0    0  501  503 -0.00000000000E+00 -0.00000000000E+00 -0.12546333558E+03  0.12546333558E+03  0.00000000000E+00 0.  1.
          6    2    1    2  501    0 -0.12173111869E+02 -0.24816471469E+01 -0.46762716740E+02  0.17911365418E+03  0.17245464973E+03 0.  0.
         24    2    3    3    0    0  0.23643783292E+02  0.53706540539E+02 -0.34144565620E+01  0.99482478914E+02  0.80260102868E+02 0.  0.
         -6    2    1    2    0  502  0.12173111869E+02  0.24816471469E+01  0.58323759619E+03  0.60828789642E+03  0.17231868183E+03 0.  0.
        -24    2    5    5    0    0  0.55394666374E+02 -0.84847344740E+01  0.19797858822E+03  0.22042844054E+03  0.79073486225E+02 0.  0.
          5    1    3    3  501    0 -0.35816895160E+02 -0.56188187685E+02 -0.43348260178E+02  0.79631175269E+02  0.47000000000E+01 0. -1.
        -11    1    4    4    0    0 -0.25906753654E+02  0.30180743264E+02  0.13627025990E+02  0.42044416825E+02  0.00000000000E+00 0.  1.
         12    1    4    4    0    0  0.49550536945E+02  0.23525797274E+02 -0.17041482552E+02  0.57438062089E+02  0.00000000000E+00 0. -1.
         -5    1    5    5    0  502 -0.43221554506E+02  0.10966381621E+02  0.38525900797E+03  0.38785945589E+03  0.47000000000E+01 0.  1.
         13    1    6    6    0    0  0.27098957725E+02 -0.43099174863E+02  0.12319209639E+03  0.13329735555E+03  0.00000000000E+00 0. -1.
        -14    1    6    6    0    0  0.28295708650E+02  0.34614440389E+02  0.74786491823E+02  0.87131084985E+02  0.00000000000E+00 0.  1.
</event>
<event>
12    1  0.1681255E-001  0.2179750E+03  0.7818608E-02  0.1136388E+00
         21   -1    0    0  503  502  0.00000000000E+00  0.00000000000E+00  0.71325987503E+03  0.71325987503E+03  0.00000000000E+00 0.  1.
         21   -1    0    0  501  503 -0.00000000000E+00 -0.00000000000E+00 -0.71108412221E+02  0.71108412221E+02  0.00000000000E+00 0.  1.
          6    2    1    2  501    0 -0.46196286753E+02  0.12509117201E+03  0.21008896358E+03  0.30273826582E+03  0.17242733759E+03 0.  0.
         24    2    3    3    0    0  0.20760115874E+02  0.30652851533E+02  0.37663083112E+02  0.95001580369E+02  0.78969694978E+02 0.  0.
         -6    2    1    2    0  502  0.46196286753E+02 -0.12509117201E+03  0.43206249923E+03  0.48163002143E+03  0.16585408068E+03 0.  0.
        -24    2    5    5    0    0 -0.34790381828E+01 -0.65082541583E+02  0.36665085106E+03  0.37979953803E+03  0.74612342013E+02 0.  0.
          5    1    3    3  501    0 -0.66956402627E+02  0.94438320475E+02  0.17242588047E+03  0.20773668545E+03  0.47000000000E+01 0. -1.
        -13    1    4    4    0    0  0.97051388290E+01  0.30329035940E+02  0.61203767748E+02  0.68992328032E+02  0.00000000000E+00 0.  1.
         14    1    4    4    0    0  0.11054977045E+02  0.32381559287E+00 -0.23540684636E+02  0.26009252337E+02  0.00000000000E+00 0. -1.
         -5    1    5    5    0  502  0.49675324936E+02 -0.60008630426E+02  0.65411648169E+02  0.10183048340E+03  0.47000000000E+01 0.  1.
         13    1    6    6    0    0 -0.76621035338E+01  0.15023730029E+02  0.39337645602E+02  0.42800358130E+02  0.00000000000E+00 0. -1.
        -14    1    6    6    0    0  0.41830653510E+01 -0.80106271612E+02  0.32731320546E+03  0.33699917990E+03  0.00000000000E+00 0.  1.
</event>
<event>
12    1  0.1681255E-001  0.2543816E+03  0.7818608E-02  0.1110585E+00
         21   -1    0    0  503  502  0.00000000000E+00  0.00000000000E+00  0.40242156772E+03  0.40242156772E+03  0.00000000000E+00 0.  1.
         21   -1    0    0  501  503 -0.00000000000E+00 -0.00000000000E+00 -0.16591327427E+03  0.16591327427E+03  0.00000000000E+00 0.  1.
          6    2    1    2  501    0  0.17804844434E+03  0.55471771973E+02  0.16847629154E+03  0.30501309141E+03  0.17283043453E+03 0.  0.
         24    2    3    3    0    0  0.18926599235E+03  0.10476750948E+02  0.15109070195E+03  0.25526639276E+03  0.80007205227E+02 0.  0.
         -6    2    1    2    0  502 -0.17804844434E+03 -0.55471771973E+02  0.68032001906E+02  0.26332175058E+03  0.17300758662E+03 0.  0.
        -24    2    5    5    0    0 -0.20489770820E+03 -0.46574426654E+02  0.68463812589E+02  0.23464559002E+03  0.78860707806E+02 0.  0.
          5    1    3    3  501    0 -0.11217548010E+02  0.44995021025E+02  0.17385589595E+02  0.49746698644E+02  0.47000000000E+01 0. -1.
        -11    1    4    4    0    0  0.13675082868E+03 -0.29296788062E+02  0.10427651608E+03  0.17444965675E+03  0.00000000000E+00 0.  1.
         12    1    4    4    0    0  0.52515163664E+02  0.39773539010E+02  0.46814185873E+02  0.80816736008E+02  0.00000000000E+00 0. -1.
         -5    1    5    5    0  502  0.26849263867E+02 -0.88973453192E+01 -0.43181068273E+00  0.28676160559E+02  0.47000000000E+01 0.  1.
         11    1    6    6    0    0 -0.64570718786E+02 -0.18809644915E+02 -0.15169054861E+02  0.68944040291E+02  0.00000000000E+00 0. -1.
        -12    1    6    6    0    0 -0.14032698942E+03 -0.27764781739E+02  0.83632867450E+02  0.16570154973E+03  0.00000000000E+00 0.  1.
</event>
<event>
12    1  0.1681255E-001  0.1816674E+03  0.7818608E-02  0.1167088E+00
         21   -1    0    0  503  502  0.00000000000E+00  0.00000000000E+00  0.27000097878E+02  0.27000097878E+02  0.00000000000E+00 0.  1.
         21   -1    0    0  501  503 -0.00000000000E+00 -0.00000000000E+00 -0.14462763343E+04  0.14462763343E+04  0.00000000000E+00 0.  1.
          6    2    1    2  501    0 -0.44958801429E+02  0.54355548235E+01 -0.10090071227E+04  0.10245852340E+04  0.17212986077E+03 0.  0.
         24    2    3    3    0    0 -0.11695822891E+02 -0.57473468443E+02 -0.42395570960E+03  0.43520317036E+03  0.78888300448E+02 0.  0.
         -6    2    1    2    0  502  0.44958801429E+02 -0.54355548235E+01 -0.41026911371E+03  0.44869119818E+03  0.17593239205E+03 0.  0.
        -24    2    5    5    0    0 -0.45229848747E+01  0.24551626066E+02 -0.87947570793E+02  0.12118402998E+03  0.79545924963E+02 0.  0.
          5    1    3    3  501    0 -0.33262978538E+02  0.62909023267E+02 -0.58505141307E+03  0.58938206359E+03  0.47000000000E+01 0. -1.
        -13    1    4    4    0    0 -0.12578082091E+02  0.15412828563E+02 -0.43575232797E+02  0.47901611108E+02  0.00000000000E+00 0.  1.
         14    1    4    4    0    0  0.88225919943E+00 -0.72886297006E+02 -0.38038047680E+03  0.38730155926E+03  0.00000000000E+00 0. -1.
         -5    1    5    5    0  502  0.49481786304E+02 -0.29987180890E+02 -0.32232154292E+03  0.32750716820E+03  0.47000000000E+01 0.  1.
         13    1    6    6    0    0 -0.27517701013E+01  0.53798711100E+02 -0.60926182824E+02  0.81325723533E+02  0.00000000000E+00 0. -1.
        -14    1    6    6    0    0 -0.17712147734E+01 -0.29247085033E+02 -0.27021387969E+02  0.39858306443E+02  0.00000000000E+00 0.  1.
</event>
<event>
12    1  0.1681255E-001  0.2267339E+03  0.7818608E-02  0.1129292E+00
         21   -1    0    0  503  502  0.00000000000E+00  0.00000000000E+00  0.15004917337E+03  0.15004917337E+03  0.00000000000E+00 0. -1.
         21   -1    0    0  501  503 -0.00000000000E+00 -0.00000000000E+00 -0.35665537712E+03  0.35665537712E+03  0.00000000000E+00 0.  1.
          6    2    1    2  501    0  0.66951617687E+02  0.13159189759E+03 -0.15793219632E+03  0.27480491234E+03  0.16963553456E+03 0.  0.
         24    2    3    3    0    0  0.27356952123E+02 -0.34888132934E+01 -0.54925280818E+02  0.10031407981E+03  0.79281482627E+02 0.  0.
         -6    2    1    2    0  502 -0.66951617687E+02 -0.13159189759E+03 -0.48674007421E+02  0.23189963815E+03  0.17207363701E+03 0.  0.
        -24    2    5    5    0    0  0.25738506298E+02 -0.69034034428E+02 -0.50697126720E+02  0.11995711567E+03  0.79945871231E+02 0.  0.
          5    1    3    3  501    0  0.39594665564E+02  0.13508071088E+03 -0.10300691550E+03  0.17449083253E+03  0.47000000000E+01 0. -1.
        -13    1    4    4    0    0 -0.27504963165E+02 -0.76161031176E+01 -0.23389417523E+02  0.36899767986E+02  0.00000000000E+00 0.  1.
         14    1    4    4    0    0  0.54861915288E+02  0.41272898242E+01 -0.31535863296E+02  0.63414311824E+02  0.00000000000E+00 0. -1.
         -5    1    5    5    0  502 -0.92690123984E+02 -0.62557863162E+02  0.20231192996E+01  0.11194252248E+03  0.47000000000E+01 0.  1.
         11    1    6    6    0    0  0.22888647203E+02  0.13202912184E+02 -0.11713962890E+02  0.28903701969E+02  0.00000000000E+00 0. -1.
        -12    1    6    6    0    0  0.28498590948E+01 -0.82236946612E+02 -0.38983163830E+02  0.91053413704E+02  0.00000000000E+00 0.  1.
</event>
<event>
12    1  0.1681255E-001  0.1872417E+03  0.7818608E-02  0.1161179E+00
         21   -1    0    0  503  502  0.00000000000E+00  0.00000000000E+00  0.13438618358E+03  0.13438618358E+03  0.00000000000E+00 0.  1.
         21   -1    0    0  501  503 -0.00000000000E+00 -0.00000000000E+00 -0.43632035105E+03  0.43632035105E+03  0.00000000000E+00 0.  1.
          6    2    1    2  501    0  0.14524475853E+02  0.72892177652E+02 -0.33233354068E+03  0.38101318153E+03  0.17088368054E+03 0.  0.
         24    2    3    3    0    0 -0.48287950683E+02  0.52300193991E+02 -0.13071836476E+03  0.16878641630E+03  0.79589741607E+02 0.  0.
         -6    2    1    2    0  502 -0.14524475853E+02 -0.72892177652E+02  0.30399373212E+02  0.18969335309E+03  0.17185812856E+03 0.  0.
        -24    2    5    5    0    0  0.18155665343E+02  0.14237199508E+02  0.45995633657E+02  0.95221911200E+02  0.80120459455E+02 0.  0.
          5    1    3    3  501    0  0.62812426536E+02  0.20591983661E+02 -0.20161517592E+03  0.21222676523E+03  0.47000000000E+01 0. -1.
        -13    1    4    4    0    0  0.31634225720E+01  0.29018481545E+02 -0.10066913782E+03  0.10481581380E+03  0.00000000000E+00 0.  1.
         14    1    4    4    0    0 -0.51451373255E+02  0.23281712445E+02 -0.30049226941E+02  0.63970602498E+02  0.00000000000E+00 0. -1.
         -5    1    5    5    0  502 -0.32680141196E+02 -0.87129377160E+02 -0.15596260444E+02  0.94471441889E+02  0.47000000000E+01 0.  1.
         11    1    6    6    0    0 -0.25796798683E+02  0.11677246958E+02 -0.40070732965E+01  0.28598768421E+02  0.00000000000E+00 0. -1.
        -12    1    6    6    0    0  0.43952464027E+02  0.25599525498E+01  0.50002706953E+02  0.66623142779E+02  0.00000000000E+00 0.  1.
</event>
<event>
12    1  0.1681255E-001  0.1774886E+03  0.7818608E-02  0.1170645E+00
         21   -1    0    0  501  502  0.00000000000E+00  0.00000000000E+00  0.55749740579E+03  0.55749740579E+03  0.00000000000E+00 0. -1.
         21   -1    0    0  502  503 -0.00000000000E+00 -0.00000000000E+00 -0.12312092004E+03  0.12312092004E+03  0.00000000000E+00 0.  1.
         -6    2    1    2    0  503 -0.13950019779E+02 -0.38999972319E+02 -0.33625464713E+02  0.18064570258E+03  0.17258794017E+03 0.  0.
        -24    2    3    3    0    0 -0.40489030942E+02  0.34629866211E+02 -0.49115587795E+01  0.97145698816E+02  0.81083747622E+02 0.  0.
          6    2    1    2  501    0  0.13950019779E+02  0.38999972319E+02  0.46800195046E+03  0.49997262324E+03  0.17097133521E+03 0.  0.
         24    2    5    5    0    0 -0.11933902109E+02  0.83944180961E+02  0.25302291244E+03  0.27877579665E+03  0.80661682632E+02 0.  0.
          5    1    5    5  501    0  0.25883921889E+02 -0.44944208642E+02  0.21497903802E+03  0.22119682659E+03  0.47000000000E+01 0. -1.
        -13    1    6    6    0    0 -0.19994281957E+02  0.49205981784E+02  0.23063023709E+03  0.23666707886E+03  0.00000000000E+00 0.  1.
         14    1    6    6    0    0  0.80603798482E+01  0.34738199176E+02  0.22392675347E+02  0.42108717797E+02  0.00000000000E+00 0. -1.
         -5    1    3    3    0  503  0.26539011163E+02 -0.73629838530E+02 -0.28713905933E+02  0.83500003769E+02  0.47000000000E+01 0.  1.
         13    1    4    4    0    0 -0.41469147148E+02  0.14861994539E+01  0.28290429609E+02  0.50221980860E+02  0.00000000000E+00 0. -1.
        -14    1    4    4    0    0  0.98011620603E+00  0.33143666757E+02 -0.33201988389E+02  0.46923717956E+02  0.00000000000E+00 0.  1.
</event>
<event>
12    1  0.1681255E-001  0.2175057E+03  0.7818608E-02  0.1136060E+00
         21   -1    0    0  503  502  0.00000000000E+00  0.00000000000E+00  0.63374426432E+03  0.63374426432E+03  0.00000000000E+00 0.  1.
         21   -1    0    0  501  503 -0.00000000000E+00 -0.00000000000E+00 -0.10462871605E+03  0.10462871605E+03  0.00000000000E+00 0.  1.
          6    2    1    2  501    0 -0.11832043118E+03 -0.53870291891E+02  0.64449975065E+02  0.22532053791E+03  0.17237694954E+03 0.  0.
         24    2    3    3    0    0 -0.36131274616E+02 -0.80747442047E+02  0.48033009225E+01  0.12016705772E+03  0.81187632433E+02 0.  0.
         -6    2    1    2    0  502  0.11832043118E+03  0.53870291891E+02  0.46466557320E+03  0.51305244246E+03  0.17437597602E+03 0.  0.
        -24    2    5    5    0    0  0.13434382238E+03 -0.82955400063E+01  0.31128084160E+03  0.34670850476E+03  0.72069038639E+02 0.  0.
          5    1    3    3  501    0 -0.82189156569E+02  0.26877150156E+02  0.59646674143E+02  0.10515348018E+03  0.47000000000E+01 0. -1.
        -11    1    4    4    0    0 -0.59634283647E+02 -0.47320027596E+02 -0.98368324839E+01  0.76760641419E+02  0.00000000000E+00 0.  1.
         12    1    4    4    0    0  0.23503009031E+02 -0.33427414451E+02  0.14640133406E+02  0.43406416306E+02  0.00000000000E+00 0. -1.
         -5    1    5    5    0  502 -0.16023391196E+02  0.62165831897E+02  0.15338473160E+03  0.16634393769E+03  0.47000000000E+01 0.  1.
         11    1    6    6    0    0  0.55615965367E+02 -0.94146488167E+01  0.55694998402E+02  0.79269818109E+02  0.00000000000E+00 0. -1.
        -12    1    6    6    0    0  0.78727857013E+02  0.11191088103E+01  0.25558584320E+03  0.26743868665E+03  0.00000000000E+00 0.  1.
</event>
<event>
12    1  0.1681255E-001  0.1891283E+03  0.7818608E-02  0.1159500E+00
         21   -1    0    0  501  502  0.00000000000E+00  0.00000000000E+00  0.23696542843E+03  0.23696542843E+03  0.00000000000E+00 0. -1.
         21   -1    0    0  502  503 -0.00000000000E+00 -0.00000000000E+00 -0.15652956580E+03  0.15652956580E+03  0.00000000000E+00 0. -1.
         -6    2    1    2    0  503  0.43678324468E+02 -0.66202886532E+02  0.13950727240E+00  0.18802721338E+03  0.17048048362E+03 0.  0.
        -24    2    3    3    0    0  0.41019780140E+02  0.28487498935E+02 -0.11743924197E+02  0.92441425206E+02  0.76898227419E+02 0.  0.
          6    2    1    2  501    0 -0.43678324468E+02  0.66202886532E+02  0.80296355359E+02  0.20546778084E+03  0.17169416434E+03 0.  0.
         24    2    5    5    0    0 -0.49033039348E+02  0.44929376366E+02  0.12074605240E+03  0.15921301679E+03  0.79663591039E+02 0.  0.
          5    1    5    5  501    0  0.53547148805E+01  0.21273510166E+02 -0.40449697046E+02  0.46254764050E+02  0.47000000000E+01 0. -1.
        -13    1    6    6    0    0  0.77354571946E+01  0.42712438623E+02  0.73328449906E+02  0.85212975988E+02  0.00000000000E+00 0.  1.
         14    1    6    6    0    0 -0.56768496543E+02  0.22169377430E+01  0.47417602498E+02  0.74000040807E+02  0.00000000000E+00 0. -1.
         -5    1    3    3    0  503  0.26585443274E+01 -0.94690385467E+02  0.11883431469E+02  0.95585788177E+02  0.47000000000E+01 0.  1.
         11    1    4    4    0    0  0.36944191021E+02  0.80880433980E+01  0.28354523241E+02  0.47268051413E+02  0.00000000000E+00 0. -1.
        -12    1    4    4    0    0  0.40755891197E+01  0.20399455537E+02 -0.40098447438E+02  0.45173373793E+02  0.00000000000E+00 0.  1.
</event>
<event>
12    1  0.1681255E-001  0.1964987E+03  0.7818608E-02  0.1153346E+00
         21   -1    0    0  501  502  0.00000000000E+00  0.00000000000E+00  0.23724187577E+03  0.23724187577E+03  0.00000000000E+00 0.  1.
         21   -1    0    0  502  503 -0.00000000000E+00 -0.00000000000E+00 -0.23340206637E+03  0.23340206637E+03  0.00000000000E+00 0.  1.
         -6    2    1    2    0  503  0.88752404859E+02  0.70833976032E+01 -0.12968825786E+03  0.23306977972E+03  0.17197474844E+03 0.  0.
        -24    2    3    3    0    0  0.39603603304E+02  0.65589439571E+02 -0.10375773857E+03  0.15224253511E+03  0.80880783910E+02 0.  0.
          6    2    1    2  501    0 -0.88752404859E+02 -0.70833976032E+01  0.13352806726E+03  0.23757416242E+03  0.17517012877E+03 0.  0.
         24    2    5    5    0    0  0.54593076029E+01 -0.39687785011E+02  0.91820515241E+02  0.12940530027E+03  0.81913371319E+02 0.  0.
          5    1    5    5  501    0 -0.94211712462E+02  0.32604387407E+02  0.41707552021E+02  0.10816886215E+03  0.47000000000E+01 0. -1.
        -11    1    6    6    0    0 -0.10726220418E+02 -0.90052442783E+01  0.93626708283E+02  0.94668404090E+02  0.00000000000E+00 0.  1.
         12    1    6    6    0    0  0.16185528021E+02 -0.30682540732E+02 -0.18061930421E+01  0.34736896183E+02  0.00000000000E+00 0. -1.
         -5    1    3    3    0  503  0.49148801554E+02 -0.58506041967E+02 -0.25930519296E+02  0.80827244614E+02  0.47000000000E+01 0.  1.
         11    1    4    4    0    0 -0.17385083131E+02  0.90297516973E+01  0.17386989921E+01  0.19667247020E+02  0.00000000000E+00 0. -1.
        -12    1    4    4    0    0  0.56988686435E+02  0.56559687873E+02 -0.10549643756E+03  0.13257528809E+03  0.00000000000E+00 0.  1.
</event>
<event>
12    1  0.1681255E-001  0.2430984E+03  0.7818608E-02  0.1117822E+00
         21   -1    0    0  501  502  0.00000000000E+00  0.00000000000E+00  0.99620590085E+02  0.99620590085E+02  0.00000000000E+00 0.  1.
         21   -1    0    0  502  503 -0.00000000000E+00 -0.00000000000E+00 -0.10583115145E+04  0.10583115145E+04  0.00000000000E+00 0. -1.
         -6    2    1    2    0  503  0.35916642083E+02 -0.16821999316E+03 -0.86336685217E+03  0.89681233715E+03  0.17112006125E+03 0.  0.
        -24    2    3    3    0    0 -0.42498062579E+02 -0.99323443099E+02 -0.41696870150E+03  0.43834859874E+03  0.81334889888E+02 0.  0.
          6    2    1    2  501    0 -0.35916642083E+02  0.16821999316E+03 -0.95324072254E+02  0.26111976744E+03  0.17178149761E+03 0.  0.
         24    2    5    5    0    0 -0.19248577671E+02  0.13194917345E+02 -0.55159632190E+02  0.10004254761E+03  0.80133093806E+02 0.  0.
          5    1    5    5  501    0 -0.16668064412E+02  0.15502507582E+03 -0.40164440064E+02  0.16107721983E+03  0.47000000000E+01 0. -1.
        -11    1    6    6    0    0 -0.47579435610E+02  0.12296179408E+02 -0.51958874348E+02  0.71517294024E+02  0.00000000000E+00 0.  1.
         12    1    6    6    0    0  0.28330857939E+02  0.89873793686E+00 -0.32007578421E+01  0.28525253587E+02  0.00000000000E+00 0. -1.
         -5    1    3    3    0  503  0.78414704663E+02 -0.68896550063E+02 -0.44639815067E+03  0.45846373841E+03  0.47000000000E+01 0.  1.
         11    1    4    4    0    0 -0.34679305381E+02 -0.47455961533E+00 -0.82571373296E+02  0.89559539506E+02  0.00000000000E+00 0. -1.
        -12    1    4    4    0    0 -0.78187571983E+01 -0.98848883484E+02 -0.33439732821E+03  0.34878905924E+03  0.00000000000E+00 0.  1.
</event>
<event>
12    1  0.1681255E-001  0.1999631E+03  0.7818608E-02  0.1150126E+00
         21   -1    0    0  501  502  0.00000000000E+00  0.00000000000E+00  0.24981567316E+03  0.24981567316E+03  0.00000000000E+00 0. -1.
         21   -1    0    0  502  503 -0.00000000000E+00 -0.00000000000E+00 -0.16532819052E+03  0.16532819052E+03  0.00000000000E+00 0. -1.
         -6    2    1    2    0  503  0.97254980580E+02  0.24689630462E+02  0.56439585851E+00  0.19828370624E+03  0.17102046813E+03 0.  0.
        -24    2    3    3    0    0  0.10395677979E+03 -0.74227407710E+01  0.48088280161E+02  0.14034642914E+03  0.80762171467E+02 0.  0.
          6    2    1    2  501    0 -0.97254980580E+02 -0.24689630462E+02  0.83923086789E+02  0.21686015744E+03  0.17296570263E+03 0.  0.
         24    2    5    5    0    0 -0.90235413733E+01 -0.62044907357E+02  0.22022237130E+02  0.10269357404E+03  0.78294293487E+02 0.  0.
          5    1    5    5  501    0 -0.88231439207E+02  0.37355276896E+02  0.61900849658E+02  0.11416658340E+03  0.47000000000E+01 0. -1.
        -13    1    6    6    0    0  0.17004091293E+02 -0.36172412278E+02 -0.21804641311E+02  0.45530483343E+02  0.00000000000E+00 0.  1.
         14    1    6    6    0    0 -0.26027632666E+02 -0.25872495079E+02  0.43826878442E+02  0.57163090695E+02  0.00000000000E+00 0. -1.
         -5    1    3    3    0  503 -0.67017992062E+01  0.32112371233E+02 -0.47523884303E+02  0.57937277102E+02  0.47000000000E+01 0.  1.
         13    1    4    4    0    0  0.92989975350E+02  0.12861100178E+02  0.81484166587E+01  0.94228128005E+02  0.00000000000E+00 0. -1.
        -14    1    4    4    0    0  0.10966804437E+02 -0.20283840949E+02  0.39939863503E+02  0.46118301137E+02  0.00000000000E+00 0.  1.
</event>
<event>
12    1  0.1681255E-001  0.2206827E+03  0.7818608E-02  0.1133380E+00
         21   -1    0    0  501  502  0.00000000000E+00  0.00000000000E+00  0.58976066278E+03  0.58976066278E+03  0.00000000000E+00 0. -1.
         21   -1    0    0  502  503 -0.00000000000E+00 -0.00000000000E+00 -0.92792514913E+02  0.92792514913E+02  0.00000000000E+00 0. -1.
         -6    2    1    2    0  503 -0.12889016504E+03 -0.49697493796E+02  0.13520802354E+03  0.25880893941E+03  0.17209980232E+03 0.  0.
        -24    2    3    3    0    0 -0.14523639050E+03 -0.80441580871E+02  0.10458757886E+03  0.21220314997E+03  0.80790829611E+02 0.  0.
          6    2    1    2  501    0  0.12889016504E+03  0.49697493796E+02  0.36176012433E+03  0.42374423828E+03  0.17206474477E+03 0.  0.
         24    2    5    5    0    0  0.26588267735E+02 -0.32159599252E+02  0.14251213751E+03  0.16828772223E+03  0.79182525269E+02 0.  0.
          5    1    5    5  501    0  0.10230189730E+03  0.81857093048E+02  0.21924798682E+03  0.25545651606E+03  0.47000000000E+01 0. -1.
        -13    1    6    6    0    0 -0.21631721252E+02 -0.44875209476E+01  0.93569096319E+01  0.23992102168E+02  0.00000000000E+00 0.  1.
         14    1    6    6    0    0  0.48219988987E+02 -0.27672078304E+02  0.13315522788E+03  0.14429562006E+03  0.00000000000E+00 0. -1.
         -5    1    3    3    0  503  0.16346225460E+02  0.30744087075E+02  0.30620444678E+02  0.46605789438E+02  0.47000000000E+01 0.  1.
         13    1    4    4    0    0 -0.98436352049E+02 -0.11885892875E+02  0.74073530275E+02  0.12376541416E+03  0.00000000000E+00 0. -1.
        -14    1    4    4    0    0 -0.46800038449E+02 -0.68555687996E+02  0.30514048589E+02  0.88437735818E+02  0.00000000000E+00 0.  1.
</event>
<event>
12    1  0.1681255E-001  0.2223791E+03  0.7818608E-02  0.1133297E+00
         21   -1    0    0  501  502  0.00000000000E+00  0.00000000000E+00  0.13116971229E+03  0.13116971229E+03  0.00000000000E+00 0. -1.
         21   -1    0    0  502  503 -0.00000000000E+00 -0.00000000000E+00 -0.89452710158E+03  0.89452710158E+03  0.00000000000E+00 0.  1.
         -6    2    1    2    0  503  0.13091742641E+03 -0.47897687992E+01 -0.77347106102E+03  0.80308783101E+03  0.17184373035E+03 0.  0.
        -24    2    3    3    0    0  0.50708263603E+02  0.65977132412E+02 -0.33287981009E+03  0.34967388714E+03  0.67368756706E+02 0.  0.
          6    2    1    2  501    0 -0.13091742641E+03  0.47897687992E+01  0.10113671718E+02  0.22260898286E+03  0.17969462561E+03 0.  0.
         24    2    5    5    0    0 -0.98913498348E+02  0.32347727397E+02 -0.57421758975E+02  0.14281664681E+03  0.79177525720E+02 0.  0.
          5    1    5    5  501    0 -0.32003928067E+02 -0.27557958598E+02  0.67535430694E+02  0.79792336053E+02  0.47000000000E+01 0. -1.
        -13    1    6    6    0    0 -0.48513202258E+01 -0.21641256853E+02 -0.73854679596E+01  0.23375723371E+02  0.00000000000E+00 0.  1.
         14    1    6    6    0    0 -0.94062178122E+02  0.53988984250E+02 -0.50036291016E+02  0.11944092344E+03  0.00000000000E+00 0. -1.
         -5    1    3    3    0  503  0.80209162812E+02 -0.70766901211E+02 -0.44059125092E+03  0.45341394387E+03  0.47000000000E+01 0.  1.
         13    1    4    4    0    0  0.40723237542E+02  0.72815598688E+02 -0.32424650887E+03  0.33480784340E+03  0.00000000000E+00 0. -1.
        -14    1    4    4    0    0  0.99850260612E+01 -0.68384662765E+01 -0.86333012272E+01  0.14866043742E+02  0.00000000000E+00 0.  1.
</event>
<event>
12    1  0.1681255E-001  0.2298860E+03  0.7818608E-02  0.1126769E+00
         21   -1    0    0  501  502  0.00000000000E+00  0.00000000000E+00  0.93292323561E+02  0.93292323561E+02  0.00000000000E+00 0.  1.
         21   -1    0    0  502  503 -0.00000000000E+00 -0.00000000000E+00 -0.13212482632E+04  0.13212482632E+04  0.00000000000E+00 0.  1.
         -6    2    1    2    0  503 -0.12643716107E+03  0.84790727601E+02 -0.11489424828E+04  0.11717151621E+04  0.17225495339E+03 0.  0.
        -24    2    3    3    0    0 -0.43592567051E+02  0.10223881421E+03 -0.54209951045E+03  0.55897692626E+03  0.78931855605E+02 0.  0.
          6    2    1    2  501    0  0.12643716107E+03 -0.84790727601E+02 -0.79013456750E+02  0.24282542464E+03  0.17188728085E+03 0.  0.
         24    2    5    5    0    0  0.73776517461E+02 -0.12284291527E+03 -0.52581024539E+02  0.17252694781E+03  0.80420315947E+02 0.  0.
          5    1    5    5  501    0  0.52660643611E+02  0.38052187674E+02 -0.26432432211E+02  0.70298476832E+02  0.47000000000E+01 0. -1.
        -13    1    6    6    0    0  0.80511165307E+02 -0.96299857528E+02 -0.15565659429E+02  0.12648320067E+03  0.00000000000E+00 0.  1.
         14    1    6    6    0    0 -0.67346478453E+01 -0.26543057746E+02 -0.37015365110E+02  0.46043747136E+02  0.00000000000E+00 0. -1.
         -5    1    3    3    0  503 -0.82844594022E+02 -0.17448086608E+02 -0.60684297240E+03  0.61273823582E+03  0.47000000000E+01 0.  1.
         13    1    4    4    0    0  0.14123300497E+02  0.55844769752E+02 -0.16749181391E+03  0.17712033664E+03  0.00000000000E+00 0. -1.
        -14    1    4    4    0    0 -0.57715867547E+02  0.46394044456E+02 -0.37460769655E+03  0.38185658962E+03  0.00000000000E+00 0.  1.
</event>
<event>
12    1  0.1681255E-001  0.2121008E+03  0.7818608E-02  0.1140017E+00
         21   -1    0    0  503  502  0.00000000000E+00  0.00000000000E+00  0.34325929430E+04  0.34325929430E+04  0.00000000000E+00 0. -1.
         21   -1    0    0  501  503 -0.00000000000E+00 -0.00000000000E+00 -0.25754655531E+02  0.25754655531E+02  0.00000000000E+00 0. -1.
          6    2    1    2  501    0  0.93762311553E+02 -0.81185843867E+02  0.48894461130E+03  0.53275530463E+03  0.17140265277E+03 0.  0.
         24    2    3    3    0    0  0.11258079877E+02 -0.89016551896E+02  0.19695890043E+03  0.22919968602E+03  0.75425438288E+02 0.  0.
         -6    2    1    2    0  502 -0.93762311553E+02  0.81185843867E+02  0.29178936762E+04  0.29255922939E+04  0.17205886320E+03 0.  0.
        -24    2    5    5    0    0 -0.33784443532E+02 -0.17891399736E+02  0.16695183122E+04  0.16718471905E+04  0.79499326554E+02 0.  0.
          5    1    3    3  501    0  0.82504231677E+02  0.78307080290E+01  0.29198571087E+03  0.30355561861E+03  0.47000000000E+01 0. -1.
        -11    1    4    4    0    0  0.79308943640E+01  0.81698694587E+01  0.60942319761E+02  0.61996872423E+02  0.00000000000E+00 0.  1.
         12    1    4    4    0    0  0.33271855127E+01 -0.97186421355E+02  0.13601658066E+03  0.16720281360E+03  0.00000000000E+00 0. -1.
         -5    1    5    5    0  502 -0.59977868021E+02  0.99077243603E+02  0.12483753640E+04  0.12537451034E+04  0.47000000000E+01 0.  1.
         11    1    6    6    0    0 -0.50108577207E+02  0.65855901614E+01  0.67313638103E+03  0.67503098223E+03  0.00000000000E+00 0. -1.
        -12    1    6    6    0    0  0.16324133674E+02 -0.24476989897E+02  0.99638193118E+03  0.99681620832E+03  0.00000000000E+00 0.  1.
</event>
<event>
12    1  0.1681255E-001  0.1802767E+03  0.7818608E-02  0.1167925E+00
         21   -1    0    0  503  502  0.00000000000E+00  0.00000000000E+00  0.40205217280E+03  0.40205217280E+03  0.00000000000E+00 0.  1.
         21   -1    0    0  501  503 -0.00000000000E+00 -0.00000000000E+00 -0.10943823294E+03  0.10943823294E+03  0.00000000000E+00 0.  1.
          6    2    1    2  501    0  0.27619189817E+02 -0.45930408789E+02  0.14408807658E+02  0.18085164776E+03  0.17212577570E+03 0.  0.
         24    2    3    3    0    0  0.24072989022E+02 -0.18412658130E+02  0.75296286370E+02  0.11377574146E+03  0.79729880375E+02 0.  0.
         -6    2    1    2    0  502 -0.27619189817E+02  0.45930408789E+02  0.27820513220E+03  0.33063875798E+03  0.17044491955E+03 0.  0.
        -24    2    5    5    0    0 -0.51032992283E+02  0.80609352685E+02  0.14457831947E+03  0.19053504506E+03  0.79362956671E+02 0.  0.
          5    1    3    3  501    0  0.35462007958E+01 -0.27517750659E+02 -0.60887478712E+02  0.67075906295E+02  0.47000000000E+01 0. -1.
        -13    1    4    4    0    0 -0.97240537973E+01  0.26299895776E+02  0.16452190196E+02  0.32510249189E+02  0.00000000000E+00 0.  1.
         14    1    4    4    0    0  0.33797042819E+02 -0.44712553906E+02  0.58844096174E+02  0.81265492274E+02  0.00000000000E+00 0. -1.
         -5    1    5    5    0  502  0.23413802465E+02 -0.34678943896E+02  0.13362681273E+03  0.14010371293E+03  0.47000000000E+01 0.  1.
         11    1    6    6    0    0 -0.35392543773E+02  0.28305737913E+02  0.12429067165E+03  0.13229519271E+03  0.00000000000E+00 0. -1.
        -12    1    6    6    0    0 -0.15640448509E+02  0.52303614772E+02  0.20287647823E+02  0.58239852352E+02  0.00000000000E+00 0.  1.
</event>
<event>
12    1  0.1681255E-001  0.2279844E+03  0.7818608E-02  0.1128884E+00
         21   -1    0    0  503  502  0.00000000000E+00  0.00000000000E+00  0.17731986809E+04  0.17731986809E+04  0.00000000000E+00 0.  1.
         21   -1    0    0  501  503 -0.00000000000E+00 -0.00000000000E+00 -0.51617521418E+02  0.51617521418E+02  0.00000000000E+00 0.  1.
          6    2    1    2  501    0 -0.14333576380E+03  0.62901763494E+01  0.25808371253E+03  0.34436040970E+03  0.17717838918E+03 0.  0.
         24    2    3    3    0    0 -0.84256418628E+02 -0.57637808314E+02  0.97714021327E+02  0.16182908607E+03  0.78862932409E+02 0.  0.
         -6    2    1    2    0  502  0.14333576380E+03 -0.62901763494E+01  0.14634974469E+04  0.14804557926E+04  0.17128884713E+03 0.  0.
        -24    2    5    5    0    0  0.26465597624E+02 -0.41404490468E+02  0.44618007794E+03  0.45583470651E+03  0.79333839061E+02 0.  0.
          5    1    3    3  501    0 -0.59079345172E+02  0.63927984664E+02  0.16036969120E+03  0.18253132363E+03  0.47000000000E+01 0. -1.
        -11    1    4    4    0    0 -0.22107535610E+02 -0.27289698377E+02 -0.75055464121E+01  0.35913841276E+02  0.00000000000E+00 0.  1.
         12    1    4    4    0    0 -0.62148883018E+02 -0.30348109937E+02  0.10521956774E+03  0.12591524480E+03  0.00000000000E+00 0. -1.
         -5    1    5    5    0  502  0.11687016618E+03  0.35114314119E+02  0.10173173690E+04  0.10246210861E+04  0.47000000000E+01 0.  1.
         11    1    6    6    0    0  0.61856803080E+01  0.21282700186E+02  0.19118172381E+03  0.19246211961E+03  0.00000000000E+00 0. -1.
        -12    1    6    6    0    0  0.20279917316E+02 -0.62687190654E+02  0.25499835413E+03  0.26337258690E+03  0.00000000000E+00 0.  1.
</event>
<event>
12    1  0.1681255E-001  0.1941488E+03  0.7818608E-02  0.1154869E+00
         21   -1    0    0  501  502  0.00000000000E+00  0.00000000000E+00  0.34189610223E+02  0.34189610223E+02  0.00000000000E+00 0. -1.
         21   -1    0    0  502  503 -0.00000000000E+00 -0.00000000000E+00 -0.15815701992E+04  0.15815701992E+04  0.00000000000E+00 0.  1.
         -6    2    1    2    0  503 -0.71548632546E+02 -0.49967896320E+02 -0.12188754706E+04  0.12341718498E+04  0.17293566620E+03 0.  0.
        -24    2    3    3    0    0 -0.48750981777E+02 -0.33581459022E+02 -0.11878039564E+04  0.11920318783E+04  0.80977697143E+02 0.  0.
          6    2    1    2  501    0  0.71548632546E+02  0.49967896320E+02 -0.32850511839E+03  0.38158795959E+03  0.17342941104E+03 0.  0.
         24    2    5    5    0    0  0.93501925601E+02  0.70050607927E+02 -0.24131194538E+03  0.28933828858E+03  0.10879104970E+03 0.  0.
          5    1    5    5  501    0 -0.21953293055E+02 -0.20082711607E+02 -0.87193173012E+02  0.92249671010E+02  0.47000000000E+01 0. -1.
        -13    1    6    6    0    0  0.22540096100E+02 -0.29216134461E+02 -0.68205169361E+02  0.77547298938E+02  0.00000000000E+00 0.  1.
         14    1    6    6    0    0  0.70961829501E+02  0.99266742388E+02 -0.17310677601E+03  0.21179098964E+03  0.00000000000E+00 0. -1.
         -5    1    3    3    0  503 -0.22797650769E+02 -0.16386437298E+02 -0.31071514235E+02  0.42139971580E+02  0.47000000000E+01 0.  1.
         11    1    4    4    0    0 -0.65436523264E+02 -0.99853394857E+01 -0.62715920067E+03  0.63064277413E+03  0.00000000000E+00 0. -1.
        -12    1    4    4    0    0  0.16685541487E+02 -0.23596119536E+02 -0.56064475568E+03  0.56138910412E+03  0.00000000000E+00 0.  1.
</event>
<event>
12    1  0.1681255E-001  0.2543637E+03  0.7818608E-02  0.1110688E+00
         21   -1    0    0  501  502  0.00000000000E+00  0.00000000000E+00  0.20712744957E+04  0.20712744957E+04  0.00000000000E+00 0. -1.
         21   -1    0    0  502  503 -0.00000000000E+00 -0.00000000000E+00 -0.47544869185E+02  0.47544869185E+02  0.00000000000E+00 0.  1.
         -6    2    1    2    0  503  0.15529134676E+03  0.10337674511E+03  0.38881371535E+03  0.46423453868E+03  0.17185880208E+03 0.  0.
        -24    2    3    3    0    0  0.12700710573E+02  0.57697367315E+02  0.20626671580E+03  0.22809010803E+03  0.77387628792E+02 0.  0.
          6    2    1    2  501    0 -0.15529134676E+03 -0.10337674511E+03  0.16349159112E+04  0.16545848262E+04  0.17291256958E+03 0.  0.
         24    2    5    5    0    0 -0.55271847429E+02  0.29932151705E+01  0.89709185765E+03  0.90243797044E+03  0.80972544537E+02 0.  0.
          5    1    5    5  501    0 -0.10001949933E+03 -0.10636996028E+03  0.73782405353E+03  0.75214685579E+03  0.47000000000E+01 0. -1.
        -13    1    6    6    0    0 -0.11883869405E+01  0.79909251839E+01  0.69972622164E+01  0.10687788702E+02  0.00000000000E+00 0.  1.
         14    1    6    6    0    0 -0.54083460488E+02 -0.49977100134E+01  0.89009459543E+03  0.89175018174E+03  0.00000000000E+00 0. -1.
         -5    1    3    3    0  503  0.14259063618E+03  0.45679377797E+02  0.18254699955E+03  0.23614443065E+03  0.47000000000E+01 0.  1.
         11    1    4    4    0    0 -0.10218845192E+02  0.51380324358E+02  0.58934218229E+02  0.78851788860E+02  0.00000000000E+00 0. -1.
        -12    1    4    4    0    0  0.22919555766E+02  0.63170429571E+01  0.14733249757E+03  0.14923831917E+03  0.00000000000E+00 0.  1.
</event>
<event>
12    1  0.1681255E-001  0.2156744E+03  0.7818608E-02  0.1137160E+00
         21   -1    0    0  501  502  0.00000000000E+00  0.00000000000E+00  0.37020152252E+03  0.37020152252E+03  0.00000000000E+00 0. -1.
         21   -1    0    0  502  503 -0.00000000000E+00 -0.00000000000E+00 -0.13416468419E+03  0.13416468419E+03  0.00000000000E+00 0.  1.
         -6    2    1    2    0  503 -0.60559039639E+02  0.10826506839E+03  0.18165562942E+03  0.28194147276E+03  0.17636185542E+03 0.  0.
        -24    2    3    3    0    0  0.71955971152E+00  0.39309907412E+02  0.11790957916E+02  0.88586934180E+02  0.78503704575E+02 0.  0.
          6    2    1    2  501    0  0.60559039639E+02 -0.10826506839E+03  0.54381208908E+02  0.22242473395E+03  0.17642767378E+03 0.  0.
         24    2    5    5    0    0  0.70658853533E+01  0.98391073684E+01  0.43267936849E+02  0.92210645992E+02  0.80523003580E+02 0.  0.
          5    1    5    5  501    0  0.53493154286E+02 -0.11810417576E+03  0.11113272059E+02  0.13021408796E+03  0.47000000000E+01 0. -1.
        -13    1    6    6    0    0  0.36235017025E+02 -0.93484272271E+01  0.10637507959E+01  0.37436628002E+02  0.00000000000E+00 0.  1.
         14    1    6    6    0    0 -0.29169131672E+02  0.19187534596E+02  0.42204186053E+02  0.54774017990E+02  0.00000000000E+00 0. -1.
         -5    1    3    3    0  503 -0.61278599351E+02  0.68955160982E+02  0.16986467151E+03  0.19335453858E+03  0.47000000000E+01 0.  1.
         11    1    4    4    0    0 -0.71575505157E+00  0.50574450463E+02  0.35840968028E+02  0.61990824596E+02  0.00000000000E+00 0. -1.
        -12    1    4    4    0    0  0.14353147631E+01 -0.11264543051E+02 -0.24050010112E+02  0.26596109584E+02  0.00000000000E+00 0.  1.
</event>
<event>
12    1  0.1681255E-001  0.1805162E+03  0.7818608E-02  0.1168146E+00
         21   -1    0    0  501  502  0.00000000000E+00  0.00000000000E+00  0.30984908203E+03  0.30984908203E+03  0.00000000000E+00 0.  1.
         21   -1    0    0  502  503 -0.00000000000E+00 -0.00000000000E+00 -0.22928409649E+03  0.22928409649E+03  0.00000000000E+00 0.  1.
         -6    2    1    2    0  503  0.41389911994E+02 -0.10128405794E+02 -0.15946512553E+03  0.24086353149E+03  0.17541495125E+03 0.  0.
        -24    2    3    3    0    0  0.36022898843E+02  0.49714978004E+02 -0.41317244227E+02  0.10823228603E+03  0.78980281023E+02 0.  0.
          6    2    1    2  501    0 -0.41389911994E+02  0.10128405794E+02  0.24003011107E+03  0.29826964704E+03  0.17185638978E+03 0.  0.
         24    2    5    5    0    0 -0.47911342629E+02  0.67214619952E+02  0.18832528943E+03  0.22083035801E+03  0.80537758184E+02 0.  0.
          5    1    5    5  501    0  0.65214306347E+01 -0.57086214158E+02  0.51704821636E+02  0.77439289026E+02  0.47000000000E+01 0. -1.
        -11    1    6    6    0    0 -0.10667506558E+02 -0.18131557341E+02  0.23665178427E+02  0.31663697474E+02  0.00000000000E+00 0.  1.
         12    1    6    6    0    0 -0.37243836071E+02  0.85346177293E+02  0.16466011101E+03  0.18916666054E+03  0.00000000000E+00 0. -1.
         -5    1    3    3    0  503  0.53670131505E+01 -0.59843383798E+02 -0.11814788130E+03  0.13263124545E+03  0.47000000000E+01 0.  1.
         13    1    4    4    0    0  0.49422707398E+02  0.85590825760E+01 -0.27070900877E+01  0.50231367071E+02  0.00000000000E+00 0. -1.
        -14    1    4    4    0    0 -0.13399808555E+02  0.41155895428E+02 -0.38610154140E+02  0.58000918962E+02  0.00000000000E+00 0.  1.
</event>
<event>
12    1  0.1681255E-001  0.1903978E+03  0.7818608E-02  0.1160357E+00
         21   -1    0    0  503  502  0.00000000000E+00  0.00000000000E+00  0.29613672277E+03  0.29613672277E+03  0.00000000000E+00 0. -1.
         21   -1    0    0  501  503 -0.00000000000E+00 -0.00000000000E+00 -0.40298213897E+03  0.40298213897E+03  0.00000000000E+00 0.  1.
          6    2    1    2  501    0  0.20145779712E+02  0.50193791576E+02 -0.34866988226E+03  0.39726817063E+03  0.18255422055E+03 0.  0.
         24    2    3    3    0    0 -0.40078601590E+02 -0.26331861071E+02 -0.19481422515E+03  0.21512316015E+03  0.77625578892E+02 0.  0.
         -6    2    1    2    0  502 -0.20145779712E+02 -0.50193791576E+02  0.24182446606E+03  0.30185069112E+03  0.17236443423E+03 0.  0.
        -24    2    5    5    0    0 -0.16948371596E+02 -0.50423683741E+02  0.26297171880E+03  0.27995154576E+03  0.79930894518E+02 0.  0.
          5    1    3    3  501    0  0.60224381302E+02  0.76525652647E+02 -0.15385565711E+03  0.18214501048E+03  0.47000000000E+01 0. -1.
        -13    1    4    4    0    0 -0.14619962512E+02  0.27768720281E+02 -0.71102660640E+02  0.77720225681E+02  0.00000000000E+00 0.  1.
         14    1    4    4    0    0 -0.25458639078E+02 -0.54100581353E+02 -0.12371156451E+03  0.13740293447E+03  0.00000000000E+00 0. -1.
         -5    1    5    5    0  502 -0.31974081161E+01  0.22989216508E+00 -0.21147252741E+02  0.21899145362E+02  0.47000000000E+01 0.  1.
         13    1    6    6    0    0 -0.10983009082E+02  0.13606577880E+00  0.19355792708E+03  0.19386932749E+03  0.00000000000E+00 0. -1.
        -14    1    6    6    0    0 -0.59653625136E+01 -0.50559749520E+02  0.69413791719E+02  0.86082218270E+02  0.00000000000E+00 0.  1.
</event>
<event>
12    1  0.1681255E-001  0.2146748E+03  0.7818608E-02  0.1139288E+00
         21   -1    0    0  501  502  0.00000000000E+00  0.00000000000E+00  0.13136537175E+03  0.13136537175E+03  0.00000000000E+00 0. -1.
         21   -1    0    0  502  503 -0.00000000000E+00 -0.00000000000E+00 -0.14976325037E+04  0.14976325037E+04  0.00000000000E+00 0. -1.
         -6    2    1    2    0  503  0.58758737479E+01  0.11474187101E+03 -0.13968078475E+04  0.14121615486E+04  0.17299668689E+03 0.  0.
        -24    2    3    3    0    0  0.58329765800E+02  0.10513606941E+03 -0.11846982448E+04  0.11934008214E+04  0.78991357693E+02 0.  0.
          6    2    1    2  501    0 -0.58758737479E+01 -0.11474187101E+03  0.30540715569E+02  0.21683632682E+03  0.18134231294E+03 0.  0.
         24    2    5    5    0    0 -0.10182042514E+02 -0.13273725202E+03 -0.25009997691E+02  0.15809665904E+03  0.81524239042E+02 0.  0.
          5    1    5    5  501    0  0.43061687662E+01  0.17995381006E+02  0.55550713260E+02  0.58739667778E+02  0.47000000000E+01 0. -1.
        -13    1    6    6    0    0 -0.38415925882E+02 -0.69083939083E+02  0.10822442544E+02  0.79784079009E+02  0.00000000000E+00 0.  1.
         14    1    6    6    0    0  0.28233883368E+02 -0.63653312936E+02 -0.35832440235E+02  0.78312580030E+02  0.00000000000E+00 0. -1.
         -5    1    3    3    0  503 -0.52453892052E+02  0.96058016010E+01 -0.21210960266E+03  0.21876072718E+03  0.47000000000E+01 0.  1.
         13    1    4    4    0    0 -0.18052817208E+02  0.72649413404E+01 -0.13789446403E+03  0.13926078699E+03  0.00000000000E+00 0. -1.
        -14    1    4    4    0    0  0.76382583008E+02  0.97871128072E+02 -0.10468037808E+04  0.10541400344E+04  0.00000000000E+00 0.  1.
</event>
<event>
12    1  0.1681255E-001  0.1796422E+03  0.7818608E-02  0.1168171E+00
         21   -1    0    0  501  502  0.00000000000E+00  0.00000000000E+00  0.75813948368E+03  0.75813948368E+03  0.00000000000E+00 0.  1.
         21   -1    0    0  502  503 -0.00000000000E+00 -0.00000000000E+00 -0.42569089375E+02  0.42569089375E+02  0.00000000000E+00 0.  1.
         -6    2    1    2    0  503 -0.39336327986E+02  0.32736761604E+02  0.36715139224E+03  0.40870458617E+03  0.17210535052E+03 0.  0.
        -24    2    3    3    0    0  0.44344546596E+02  0.14436220158E+02  0.17009282122E+03  0.19378234675E+03  0.80281920849E+02 0.  0.
          6    2    1    2  501    0  0.39336327986E+02 -0.32736761604E+02  0.34841900207E+03  0.39200398688E+03  0.17219838115E+03 0.  0.
         24    2    5    5    0    0  0.87181347821E+02 -0.47784517701E+02  0.22304970235E+03  0.25689243224E+03  0.79740858307E+02 0.  0.
          5    1    5    5  501    0 -0.47845019835E+02  0.15047756097E+02  0.12536929971E+03  0.13511155464E+03  0.47000000000E+01 0. -1.
        -11    1    6    6    0    0  0.43785227891E+02 -0.65130649314E+02  0.16199533031E+03  0.18000454078E+03  0.00000000000E+00 0.  1.
         12    1    6    6    0    0  0.43396119930E+02  0.17346131613E+02  0.61054372044E+02  0.76887891456E+02  0.00000000000E+00 0. -1.
         -5    1    3    3    0  503 -0.83680874581E+02  0.18300541446E+02  0.19705857102E+03  0.21492223943E+03  0.47000000000E+01 0.  1.
         13    1    4    4    0    0 -0.10937273940E+02 -0.79363386281E+00 -0.30574734755E+01  0.11384285661E+02  0.00000000000E+00 0. -1.
        -14    1    4    4    0    0  0.55281820536E+02  0.15229854021E+02  0.17315029469E+03  0.18239806109E+03  0.00000000000E+00 0.  1.
</event>
<event>
12    1  0.1681255E-001  0.3707776E+03  0.7818608E-02  0.1054430E+00
         21   -1    0    0  501  502  0.00000000000E+00  0.00000000000E+00  0.10324694831E+03  0.10324694831E+03  0.00000000000E+00 0. -1.
         21   -1    0    0  502  503 -0.00000000000E+00 -0.00000000000E+00 -0.14568857461E+04  0.14568857461E+04  0.00000000000E+00 0.  1.
         -6    2    1    2    0  503  0.56878538046E+02 -0.32311404981E+03 -0.44711928528E+03  0.58085429868E+03  0.17273738379E+03 0.  0.
        -24    2    3    3    0    0  0.59789065978E+01 -0.56753317279E+02 -0.96103460327E+02  0.13726325765E+03  0.79678356337E+02 0.  0.
          6    2    1    2  501    0 -0.56878538046E+02  0.32311404981E+03 -0.90651951252E+03  0.97927839573E+03  0.17196131102E+03 0.  0.
         24    2    5    5    0    0 -0.11221638438E+02  0.31226887386E+03 -0.79010788320E+03  0.85367613554E+03  0.82793131038E+02 0.  0.
          5    1    5    5  501    0 -0.45656899608E+02  0.10845175951E+02 -0.11641162932E+03  0.12560226019E+03  0.47000000000E+01 0. -1.
        -11    1    6    6    0    0 -0.87483769749E+01  0.20950798476E+03 -0.62446718205E+03  0.65873317150E+03  0.00000000000E+00 0.  1.
         12    1    6    6    0    0 -0.24732614628E+01  0.10276088911E+03 -0.16564070114E+03  0.19494296404E+03  0.00000000000E+00 0. -1.
         -5    1    3    3    0  503  0.50899631448E+02 -0.26636073253E+03 -0.35101582495E+03  0.44359104103E+03  0.47000000000E+01 0.  1.
         11    1    4    4    0    0 -0.33695075986E+02 -0.43751762486E+02 -0.44740008161E+02  0.71072098580E+02  0.00000000000E+00 0. -1.
        -12    1    4    4    0    0  0.39673982584E+02 -0.13001554793E+02 -0.51363452166E+02  0.66191159073E+02  0.00000000000E+00 0.  1.
</event>
<event>
12    1  0.1681255E-001  0.1752426E+03  0.7818608E-02  0.1173224E+00
         21   -1    0    0  503  502  0.00000000000E+00  0.00000000000E+00  0.65812239531E+03  0.65812239531E+03  0.00000000000E+00 0. -1.
         21   -1    0    0  501  503 -0.00000000000E+00 -0.00000000000E+00 -0.74603737191E+02  0.74603737191E+02  0.00000000000E+00 0. -1.
          6    2    1    2  501    0 -0.29309865521E+02  0.20299380672E+02  0.65984885651E+02  0.18725374917E+03  0.17157747046E+03 0.  0.
         24    2    3    3    0    0 -0.37095714906E+02 -0.29137979261E+02  0.93046181417E+02  0.13016543393E+03  0.77848149716E+02 0.  0.
         -6    2    1    2    0  502  0.29309865521E+02 -0.20299380672E+02  0.51753377247E+03  0.54547238334E+03  0.16860540402E+03 0.  0.
        -24    2    5    5    0    0  0.24272332430E+02 -0.66308831284E+02  0.23275238493E+03  0.25691601973E+03  0.82741532977E+02 0.  0.
          5    1    3    3  501    0  0.77858493855E+01  0.49437359934E+02 -0.27061295765E+02  0.57088315235E+02  0.47000000000E+01 0. -1.
        -11    1    4    4    0    0  0.20913528696E+02 -0.25317593573E+02  0.35697647142E+02  0.48504414627E+02  0.00000000000E+00 0.  1.
         12    1    4    4    0    0 -0.58009243603E+02 -0.38203856888E+01  0.57348534275E+02  0.81661019303E+02  0.00000000000E+00 0. -1.
         -5    1    5    5    0  502  0.50375330913E+01  0.46009450611E+02  0.28478138754E+03  0.28855636360E+03  0.47000000000E+01 0.  1.
         11    1    6    6    0    0  0.44256707033E+02 -0.37467665183E+02  0.20233062679E+03  0.21047604279E+03  0.00000000000E+00 0. -1.
        -12    1    6    6    0    0 -0.19984374603E+02 -0.28841166101E+02  0.30421758134E+02  0.46439976941E+02  0.00000000000E+00 0.  1.
</event>
<event>
12    1  0.1681255E-001  0.1833169E+03  0.7818608E-02  0.1164766E+00
         21   -1    0    0  501  502  0.00000000000E+00  0.00000000000E+00  0.23488266480E+03  0.23488266480E+03  0.00000000000E+00 0.  1.
         21   -1    0    0  502  503 -0.00000000000E+00 -0.00000000000E+00 -0.14333239874E+03  0.14333239874E+03  0.00000000000E+00 0. -1.
         -6    2    1    2    0  503  0.56944320069E+02  0.27590928589E+02  0.59127097347E+02  0.19261647192E+03  0.17204992498E+03 0.  0.
        -24    2    3    3    0    0  0.40491963887E+02 -0.43978948015E+02  0.63737451895E+02  0.11888538872E+03  0.80607232114E+02 0.  0.
          6    2    1    2  501    0 -0.56944320069E+02 -0.27590928589E+02  0.32423168710E+02  0.18559859163E+03  0.17143996155E+03 0.  0.
         24    2    5    5    0    0 -0.18871323672E+01  0.28783566315E+02 -0.16579084732E+02  0.92686329594E+02  0.86509159542E+02 0.  0.
          5    1    5    5  501    0 -0.55057187702E+02 -0.56374494904E+02  0.49002253442E+02  0.92912262031E+02  0.47000000000E+01 0. -1.
        -11    1    6    6    0    0 -0.33348410351E+02 -0.16702311298E+01  0.17035641602E+02  0.37484920031E+02  0.00000000000E+00 0.  1.
         12    1    6    6    0    0  0.31461277984E+02  0.30453797445E+02 -0.33614726334E+02  0.55201409563E+02  0.00000000000E+00 0. -1.
         -5    1    3    3    0  503  0.16452356183E+02  0.71569876604E+02 -0.46103545474E+01  0.73731083202E+02  0.47000000000E+01 0.  1.
         11    1    4    4    0    0  0.40280245273E+02 -0.33949549650E+02 -0.16775744672E+01  0.52705638567E+02  0.00000000000E+00 0. -1.
        -12    1    4    4    0    0  0.21171861387E+00 -0.10029398366E+02  0.65415026362E+02  0.66179750153E+02  0.00000000000E+00 0.  1.
</event>
<event>
12    1  0.1681255E-001  0.2099410E+03  0.7818608E-02  0.1141698E+00
         21   -1    0    0  503  502  0.00000000000E+00  0.00000000000E+00  0.14110532986E+04  0.14110532986E+04  0.00000000000E+00 0. -1.
         21   -1    0    0  501  503 -0.00000000000E+00 -0.00000000000E+00 -0.44716644021E+02  0.44716644021E+02  0.00000000000E+00 0. -1.
          6    2    1    2  501    0  0.11849191885E+03 -0.23862485676E+02  0.28206905982E+03  0.35136447707E+03  0.17112652683E+03 0.  0.
         24    2    3    3    0    0  0.66729761847E+02  0.37946219750E+02  0.84202794006E+02  0.13765255389E+03  0.77235602956E+02 0.  0.
         -6    2    1    2    0  502 -0.11849191885E+03  0.23862485676E+02  0.10842675948E+04  0.11044054656E+04  0.17165506761E+03 0.  0.
        -24    2    5    5    0    0 -0.10425144068E+03 -0.33274775670E+02  0.92084519805E+03  0.93063427231E+03  0.78413624163E+02 0.  0.
          5    1    3    3  501    0  0.51762157002E+02 -0.61808705426E+02  0.19786626582E+03  0.21371192319E+03  0.47000000000E+01 0. -1.
        -11    1    4    4    0    0  0.11028880998E+02  0.37268740148E+02  0.70157876498E+02  0.80204257013E+02  0.00000000000E+00 0.  1.
         12    1    4    4    0    0  0.55700880849E+02  0.67747960228E+00  0.14044917508E+02  0.57448296875E+02  0.00000000000E+00 0. -1.
         -5    1    5    5    0  502 -0.14240478168E+02  0.57137261346E+02  0.16342239673E+03  0.17377119325E+03  0.47000000000E+01 0.  1.
         11    1    6    6    0    0 -0.79109422418E+02  0.91702788534E+01  0.42970046162E+03  0.43701817062E+03  0.00000000000E+00 0. -1.
        -12    1    6    6    0    0 -0.25142018263E+02 -0.42445054524E+02  0.49114473643E+03  0.49361610170E+03  0.00000000000E+00 0.  1.
</event>
<event>
12    1  0.1681255E-001  0.2229206E+03  0.7818608E-02  0.1132707E+00
         21   -1    0    0  503  502  0.00000000000E+00  0.00000000000E+00  0.21240496855E+03  0.21240496855E+03  0.00000000000E+00 0. -1.
         21   -1    0    0  501  503 -0.00000000000E+00 -0.00000000000E+00 -0.24222678003E+03  0.24222678003E+03  0.00000000000E+00 0.  1.
          6    2    1    2  501    0 -0.13222848750E+03  0.19778790595E+02 -0.68984939727E+02  0.22829711756E+03  0.17171219674E+03 0.  0.
         24    2    3    3    0    0 -0.94874883815E+02 -0.26541881055E+02 -0.10003567493E+03  0.16101313367E+03  0.78818639459E+02 0.  0.
         -6    2    1    2    0  502  0.13222848750E+03 -0.19778790595E+02  0.39163128253E+02  0.22633463103E+03  0.17837612262E+03 0.  0.
        -24    2    5    5    0    0  0.51460564805E+02  0.50562273981E+02  0.50198905552E+02  0.11856078873E+03  0.79573847622E+02 0.  0.
          5    1    3    3  501    0 -0.37353603690E+02  0.46320671650E+02  0.31050735206E+02  0.67283983886E+02  0.47000000000E+01 0. -1.
        -11    1    4    4    0    0  0.10147355678E+02  0.10485572217E+02 -0.14748777640E+02  0.20747108084E+02  0.00000000000E+00 0.  1.
         12    1    4    4    0    0 -0.10502223949E+03 -0.37027453272E+02 -0.85286897293E+02  0.14026602559E+03  0.00000000000E+00 0. -1.
         -5    1    5    5    0  502  0.80767922699E+02 -0.70341064575E+02 -0.11035777299E+02  0.10777384230E+03  0.47000000000E+01 0.  1.
         13    1    6    6    0    0  0.50867690182E+02  0.32644091399E+02  0.69575620961E+02  0.92162495842E+02  0.00000000000E+00 0. -1.
        -14    1    6    6    0    0  0.59287462249E+00  0.17918182582E+02 -0.19376715408E+02  0.26398292887E+02  0.00000000000E+00 0.  1.
</event>
<event>
12    1  0.1681255E-001  0.2103473E+03  0.7818608E-02  0.1141877E+00
         21   -1    0    0  503  502  0.00000000000E+00  0.00000000000E+00  0.36527515664E+03  0.36527515664E+03  0.00000000000E+00 0. -1.
         21   -1    0    0  501  503 -0.00000000000E+00 -0.00000000000E+00 -0.12141732183E+03  0.12141732183E+03  0.00000000000E+00 0. -1.
          6    2    1    2  501    0 -0.10685700192E+03  0.43442434852E+02  0.90033666571E+02  0.22610110444E+03  0.17236584438E+03 0.  0.
         24    2    3    3    0    0 -0.32127149746E+02 -0.20471320126E+02 -0.52445493122E+01  0.89099106998E+02  0.80373608055E+02 0.  0.
         -6    2    1    2    0  502  0.10685700192E+03 -0.43442434852E+02  0.15382416824E+03  0.26059137404E+03  0.17589862274E+03 0.  0.
        -24    2    5    5    0    0  0.41508834092E+02 -0.18929205799E+01  0.16026559398E+03  0.18274327104E+03  0.77352931682E+02 0.  0.
          5    1    3    3  501    0 -0.74729852171E+02  0.63913754978E+02  0.95278215883E+02  0.13700199744E+03  0.47000000000E+01 0. -1.
        -11    1    4    4    0    0  0.85153983530E+01 -0.83606188973E+01  0.31059863874E+02  0.33273519522E+02  0.00000000000E+00 0.  1.
         12    1    4    4    0    0 -0.40642548099E+02 -0.12110701229E+02 -0.36304413187E+02  0.55825587476E+02  0.00000000000E+00 0. -1.
         -5    1    5    5    0  502  0.65348167825E+02 -0.41549514272E+02 -0.64414257429E+01  0.77848102995E+02  0.47000000000E+01 0.  1.
         13    1    6    6    0    0  0.63142325062E+02 -0.10439995829E+02  0.12609689874E+03  0.14140853793E+03  0.00000000000E+00 0. -1.
        -14    1    6    6    0    0 -0.21633490970E+02  0.85470752494E+01  0.34168695244E+02  0.41334733113E+02  0.00000000000E+00 0.  1.
</event>
<event>
12    1  0.1681255E-001  0.2583216E+03  0.7818608E-02  0.1110630E+00
         21   -1    0    0  501  502  0.00000000000E+00  0.00000000000E+00  0.56019756237E+03  0.56019756237E+03  0.00000000000E+00 0. -1.
         21   -1    0    0  502  503 -0.00000000000E+00 -0.00000000000E+00 -0.11308888478E+03  0.11308888478E+03  0.00000000000E+00 0.  1.
         -6    2    1    2    0  503  0.20131058909E+02  0.16932255764E+03  0.18277228986E+03  0.30368693747E+03  0.17246639671E+03 0.  0.
        -24    2    3    3    0    0 -0.30788858207E+02  0.16830931139E+03  0.16110244521E+03  0.24813932911E+03  0.79643899391E+02 0.  0.
          6    2    1    2  501    0 -0.20131058909E+02 -0.16932255764E+03  0.26433638773E+03  0.36959950968E+03  0.19404814768E+03 0.  0.
         24    2    5    5    0    0 -0.86724138478E+02 -0.63598597436E+02  0.13463075625E+03  0.18943892896E+03  0.78713464459E+02 0.  0.
          5    1    5    5  501    0  0.66593079569E+02 -0.10572396020E+03  0.12970563148E+03  0.18016058072E+03  0.47000000000E+01 0. -1.
        -13    1    6    6    0    0 -0.72368390654E+02 -0.58442005724E+02  0.14407789430E+03  0.17149662278E+03  0.00000000000E+00 0.  1.
         14    1    6    6    0    0 -0.14355747823E+02 -0.51565917121E+01 -0.94471380528E+01  0.17942306180E+02  0.00000000000E+00 0. -1.
         -5    1    3    3    0  503  0.50919917116E+02  0.10132462487E+01  0.21669844646E+02  0.55547608356E+02  0.47000000000E+01 0.  1.
         13    1    4    4    0    0 -0.52614278622E+02  0.76260818696E+02  0.95231435495E+02  0.13286459683E+03  0.00000000000E+00 0. -1.
        -14    1    4    4    0    0  0.21825420414E+02  0.92048492691E+02  0.65871009716E+02  0.11527473229E+03  0.00000000000E+00 0.  1.
</event>
<event>
12    1  0.1681255E-001  0.2018340E+03  0.7818608E-02  0.1148662E+00
         21   -1    0    0  501  502  0.00000000000E+00  0.00000000000E+00  0.25988675675E+02  0.25988675675E+02  0.00000000000E+00 0. -1.
         21   -1    0    0  502  503 -0.00000000000E+00 -0.00000000000E+00 -0.17598733367E+04  0.17598733367E+04  0.00000000000E+00 0. -1.
         -6    2    1    2    0  503 -0.98067830103E+02 -0.32327229846E+02 -0.56310169677E+03  0.59818097740E+03  0.17342033251E+03 0.  0.
        -24    2    3    3    0    0 -0.50150946223E+01 -0.66765338646E+02 -0.28924789982E+03  0.30686879602E+03  0.77597350476E+02 0.  0.
          6    2    1    2  501    0  0.98067830103E+02  0.32327229846E+02 -0.11707829643E+04  0.11876810350E+04  0.17085415522E+03 0.  0.
         24    2    5    5    0    0  0.12900305415E+03  0.25587340829E+02 -0.81518726172E+03  0.83064769220E+03  0.90270797593E+02 0.  0.
          5    1    5    5  501    0 -0.30935224043E+02  0.67398890178E+01 -0.35559570255E+03  0.35703334279E+03  0.47000000000E+01 0. -1.
        -11    1    6    6    0    0  0.11984742882E+03  0.29679035976E+02 -0.81000227853E+03  0.81935825046E+03  0.00000000000E+00 0.  1.
         12    1    6    6    0    0  0.91556253215E+01 -0.40916951473E+01 -0.51849831951E+01  0.11289441746E+02  0.00000000000E+00 0. -1.
         -5    1    3    3    0  503 -0.93052735481E+02  0.34438108799E+02 -0.27385379695E+03  0.29131218138E+03  0.47000000000E+01 0.  1.
         13    1    4    4    0    0 -0.34380542603E+02 -0.58641626022E+02 -0.23517978445E+03  0.24480684840E+03  0.00000000000E+00 0. -1.
        -14    1    4    4    0    0  0.29365447981E+02 -0.81237126232E+01 -0.54068115377E+02  0.62061947619E+02  0.00000000000E+00 0.  1.
</event>
<event>
12    1  0.1681255E-001  0.2869407E+03  0.7818608E-02  0.1092023E+00
         21   -1    0    0  503  502  0.00000000000E+00  0.00000000000E+00  0.24613932066E+03  0.24613932066E+03  0.00000000000E+00 0.  1.
         21   -1    0    0  501  503 -0.00000000000E+00 -0.00000000000E+00 -0.53124504426E+03  0.53124504426E+03  0.00000000000E+00 0. -1.
          6    2    1    2  501    0 -0.15482185667E+03  0.16892243169E+03  0.94411031226E+02  0.30160294965E+03  0.17189037549E+03 0.  0.
         24    2    3    3    0    0 -0.41870607590E+02  0.81259402511E+01  0.34382947239E+02  0.96081765346E+02  0.78932502090E+02 0.  0.
         -6    2    1    2    0  502  0.15482185667E+03 -0.16892243169E+03 -0.37951675482E+03  0.47578141528E+03  0.17271477267E+03 0.  0.
        -24    2    5    5    0    0  0.11118667517E+03 -0.19040818284E+03 -0.33386174824E+03  0.40890738300E+03  0.84402773101E+02 0.  0.
          5    1    3    3  501    0 -0.11295124908E+03  0.16079649144E+03  0.60028083988E+02  0.20552118430E+03  0.47000000000E+01 0. -1.
        -11    1    4    4    0    0 -0.58398345438E+02  0.27061242175E+02  0.21655161164E+02  0.67908935958E+02  0.00000000000E+00 0.  1.
         12    1    4    4    0    0  0.16527737848E+02 -0.18935301924E+02  0.12727786075E+02  0.28172829387E+02  0.00000000000E+00 0. -1.
         -5    1    5    5    0  502  0.43635181502E+02  0.21485751145E+02 -0.45655006585E+02  0.66874032278E+02  0.47000000000E+01 0.  1.
         13    1    6    6    0    0  0.57344563774E+02 -0.46049438826E+02 -0.60997165565E+02  0.95548961363E+02  0.00000000000E+00 0. -1.
        -14    1    6    6    0    0  0.53842111393E+02 -0.14435874401E+03 -0.27286458267E+03  0.31335842164E+03  0.00000000000E+00 0.  1.
</event>
<event>
12    1  0.1681255E-001  0.1724775E+03  0.7818608E-02  0.1175357E+00
         21   -1    0    0  501  502  0.00000000000E+00  0.00000000000E+00  0.18090931542E+03  0.18090931542E+03  0.00000000000E+00 0. -1.
         21   -1    0    0  502  503 -0.00000000000E+00 -0.00000000000E+00 -0.31796784608E+03  0.31796784608E+03  0.00000000000E+00 0. -1.
         -6    2    1    2    0  503  0.10019618224E+02  0.47586186675E+00 -0.24202859195E+03  0.29719743728E+03  0.17218553427E+03 0.  0.
        -24    2    3    3    0    0 -0.33711249227E+02 -0.42622793317E+02 -0.20243875414E+03  0.22399000525E+03  0.78974188441E+02 0.  0.
          6    2    1    2  501    0 -0.10019618224E+02 -0.47586186675E+00  0.10497006129E+03  0.20167972423E+03  0.17191677697E+03 0.  0.
         24    2    5    5    0    0  0.58961083958E+02 -0.49809742276E+01  0.41348883147E+02  0.10761390886E+03  0.79811050098E+02 0.  0.
          5    1    5    5  501    0 -0.68980702182E+02  0.45051123608E+01  0.63621178145E+02  0.94065815361E+02  0.47000000000E+01 0. -1.
        -13    1    6    6    0    0  0.45286892346E+02 -0.15257890118E+02  0.63596741797E+02  0.79550307331E+02  0.00000000000E+00 0.  1.
         14    1    6    6    0    0  0.13674191612E+02  0.10276915891E+02 -0.22247858651E+02  0.28063601533E+02  0.00000000000E+00 0. -1.
         -5    1    3    3    0  503  0.43730867451E+02  0.43098655184E+02 -0.39589837810E+02  0.73207432030E+02  0.47000000000E+01 0.  1.
         11    1    4    4    0    0  0.12369589132E+02 -0.41171942399E+02 -0.13948596880E+03  0.14596051202E+03  0.00000000000E+00 0. -1.
        -12    1    4    4    0    0 -0.46080838359E+02 -0.14508509183E+01 -0.62952785339E+02  0.78029493233E+02  0.00000000000E+00 0.  1.
</event>
<event>
12    1  0.1681255E-001  0.1775792E+03  0.7818608E-02  0.1171252E+00
         21   -1    0    0  503  502  0.00000000000E+00  0.00000000000E+00  0.31503523155E+02  0.31503523155E+02  0.00000000000E+00 0. -1.
         21   -1    0    0  501  503 -0.00000000000E+00 -0.00000000000E+00 -0.12230712213E+04  0.12230712213E+04  0.00000000000E+00 0. -1.
          6    2    1    2  501    0 -0.23866931196E+02  0.52427522545E+01 -0.87145650171E+03  0.88850707384E+03  0.17149714003E+03 0.  0.
         24    2    3    3    0    0  0.48990930012E+02 -0.72169343055E+01 -0.58664783956E+03  0.59422561713E+03  0.80599013815E+02 0.  0.
         -6    2    1    2    0  502  0.23866931196E+02 -0.52427522545E+01 -0.32011119639E+03  0.36606767057E+03  0.17588986476E+03 0.  0.
        -24    2    5    5    0    0  0.80353128460E+02 -0.17367398634E+02 -0.20050642939E+03  0.23315759638E+03  0.86031300903E+02 0.  0.
          5    1    3    3  501    0 -0.72857861208E+02  0.12459686560E+02 -0.28480866215E+03  0.29428145671E+03  0.47000000000E+01 0. -1.
        -13    1    4    4    0    0  0.14631314380E+02  0.11967955869E+02 -0.25720039502E+02  0.31919081443E+02  0.00000000000E+00 0.  1.
         14    1    4    4    0    0  0.34359615632E+02 -0.19184890175E+02 -0.56092780006E+03  0.56230653569E+03  0.00000000000E+00 0. -1.
         -5    1    5    5    0  502 -0.56486197263E+02  0.12124646380E+02 -0.11960476700E+03  0.13291007418E+03  0.47000000000E+01 0.  1.
         11    1    6    6    0    0  0.72275130786E+02 -0.47650616943E+02 -0.16025726361E+03  0.18214463035E+03  0.00000000000E+00 0. -1.
        -12    1    6    6    0    0  0.80779976742E+01  0.30283218308E+02 -0.40249165786E+02  0.51012966038E+02  0.00000000000E+00 0.  1.
</event>
<event>
12    1  0.1681255E-001  0.3488047E+03  0.7818608E-02  0.1063157E+00
         21   -1    0    0  501  502  0.00000000000E+00  0.00000000000E+00  0.48437726332E+03  0.48437726332E+03  0.00000000000E+00 0.  1.
         21   -1    0    0  502  503 -0.00000000000E+00 -0.00000000000E+00 -0.28259511045E+03  0.28259511045E+03  0.00000000000E+00 0. -1.
         -6    2    1    2    0  503  0.18959536922E+02 -0.30301216147E+03 -0.27748807290E+02  0.34942096892E+03  0.17073131867E+03 0.  0.
        -24    2    3    3    0    0  0.98449697980E+01 -0.15414362810E+03 -0.79489946941E+02  0.19148379441E+03  0.80561841717E+02 0.  0.
          6    2    1    2  501    0 -0.18959536922E+02  0.30301216147E+03  0.22953096016E+03  0.41755140486E+03  0.17172326572E+03 0.  0.
         24    2    5    5    0    0 -0.70168124618E+02  0.11686195282E+03  0.92636335519E+02  0.18083121584E+03  0.74418789527E+02 0.  0.
          5    1    5    5  501    0  0.51208587696E+02  0.18615020865E+03  0.13689462464E+03  0.23672018902E+03  0.47000000000E+01 0. -1.
        -13    1    6    6    0    0 -0.12774392833E+02  0.54399146468E+02  0.76092040713E+02  0.94405777941E+02  0.00000000000E+00 0.  1.
         14    1    6    6    0    0 -0.57393731785E+02  0.62462806353E+02  0.16544294806E+02  0.86425437900E+02  0.00000000000E+00 0. -1.
         -5    1    3    3    0  503  0.91145671240E+01 -0.14886853337E+03  0.51741139651E+02  0.15793717451E+03  0.47000000000E+01 0.  1.
         13    1    4    4    0    0 -0.33907584329E+02 -0.47628720044E+02 -0.34292118041E+02  0.67780296605E+02  0.00000000000E+00 0. -1.
        -14    1    4    4    0    0  0.43752554127E+02 -0.10651490806E+03 -0.45197828900E+02  0.12370349780E+03  0.00000000000E+00 0.  1.
</event>
<event>
12    1  0.1681255E-001  0.2501091E+03  0.7818608E-02  0.1113340E+00
         21   -1    0    0  501  502  0.00000000000E+00  0.00000000000E+00  0.20339295065E+03  0.20339295065E+03  0.00000000000E+00 0.  1.
         21   -1    0    0  502  503 -0.00000000000E+00 -0.00000000000E+00 -0.34418043240E+03  0.34418043240E+03  0.00000000000E+00 0. -1.
         -6    2    1    2    0  503  0.16849875184E+03 -0.65677068640E+02 -0.16077128863E+03  0.29732465792E+03  0.17276932090E+03 0.  0.
        -24    2    3    3    0    0  0.15946928617E+03 -0.20954237525E+01 -0.85316343964E+02  0.19812941866E+03  0.80879811817E+02 0.  0.
          6    2    1    2  501    0 -0.16849875184E+03  0.65677068640E+02  0.19983806881E+02  0.25024872513E+03  0.17181316939E+03 0.  0.
         24    2    5    5    0    0 -0.14301364857E+03  0.95690111452E+02  0.52845246729E+02  0.19874884691E+03  0.84255462375E+02 0.  0.
          5    1    5    5  501    0 -0.25485103265E+02 -0.30013042812E+02 -0.32861439848E+02  0.51499878215E+02  0.47000000000E+01 0. -1.
        -11    1    6    6    0    0 -0.62517766054E+02  0.21542804244E+02  0.59707006657E+02  0.89092593020E+02  0.00000000000E+00 0.  1.
         12    1    6    6    0    0 -0.80495882517E+02  0.74147307208E+02 -0.68617599286E+01  0.10965625389E+03  0.00000000000E+00 0. -1.
         -5    1    3    3    0  503  0.90294656629E+01 -0.63581644888E+02 -0.75454944668E+02  0.99195239259E+02  0.47000000000E+01 0.  1.
         11    1    4    4    0    0  0.14053720170E+03 -0.10436403681E+02 -0.99966000761E+02  0.17277970046E+03  0.00000000000E+00 0. -1.
        -12    1    4    4    0    0  0.18932084470E+02  0.83409799290E+01  0.14649656797E+02  0.25349718200E+02  0.00000000000E+00 0.  1.
</event>
<event>
12    1  0.1681255E-001  0.2230774E+03  0.7818608E-02  0.1132037E+00
         21   -1    0    0  501  502  0.00000000000E+00  0.00000000000E+00  0.28128227359E+02  0.28128227359E+02  0.00000000000E+00 0.  1.
         21   -1    0    0  502  503 -0.00000000000E+00 -0.00000000000E+00 -0.20550997746E+04  0.20550997746E+04  0.00000000000E+00 0.  1.
         -6    2    1    2    0  503  0.80173075041E+02 -0.11645433044E+03 -0.14188376324E+04  0.14362672948E+04  0.17255196865E+03 0.  0.
        -24    2    3    3    0    0  0.74210009099E+02 -0.28653079728E+02 -0.46659188292E+03  0.47995214003E+03  0.79485514959E+02 0.  0.
          6    2    1    2  501    0 -0.80173075041E+02  0.11645433044E+03 -0.60813391482E+03  0.64696070717E+03  0.16953455465E+03 0.  0.
         24    2    5    5    0    0 -0.51020910995E+02  0.83556126638E+02 -0.20204553843E+03  0.23847325336E+03  0.80388639175E+02 0.  0.
          5    1    5    5  501    0 -0.29152164046E+02  0.32898203801E+02 -0.40608837639E+03  0.40848745381E+03  0.47000000000E+01 0. -1.
        -11    1    6    6    0    0  0.10847373799E+02 -0.94214992388E+01 -0.16205149934E+02  0.21657263231E+02  0.00000000000E+00 0.  1.
         12    1    6    6    0    0 -0.61868284794E+02  0.92977625877E+02 -0.18584038850E+03  0.21681599013E+03  0.00000000000E+00 0. -1.
         -5    1    3    3    0  503  0.59630659421E+01 -0.87801250711E+02 -0.95224574951E+03  0.95631515477E+03  0.47000000000E+01 0.  1.
         13    1    4    4    0    0  0.82439265947E+02 -0.44632755607E+02 -0.40969819321E+03  0.42028671756E+03  0.00000000000E+00 0. -1.
        -14    1    4    4    0    0 -0.82292568477E+01  0.15979675880E+02 -0.56893689710E+02  0.59665422468E+02  0.00000000000E+00 0.  1.
</event>
<event>
12    1  0.1681255E-001  0.1983610E+03  0.7818608E-02  0.1151192E+00
         21   -1    0    0  503  502  0.00000000000E+00  0.00000000000E+00  0.12871269304E+03  0.12871269304E+03  0.00000000000E+00 0.  1.
         21   -1    0    0  501  503 -0.00000000000E+00 -0.00000000000E+00 -0.32767021688E+03  0.32767021688E+03  0.00000000000E+00 0.  1.
          6    2    1    2  501    0  0.65415707378E+02 -0.73307078986E+02 -0.15924642866E+03  0.25437476943E+03  0.17231934216E+03 0.  0.
         24    2    3    3    0    0  0.10050251782E+03 -0.24961170438E+02 -0.75952709665E+02  0.15176704670E+03  0.80874014620E+02 0.  0.
         -6    2    1    2    0  502 -0.65415707378E+02  0.73307078986E+02 -0.39711095171E+02  0.20200814048E+03  0.17198015915E+03 0.  0.
        -24    2    5    5    0    0  0.29442731286E+02  0.56945981161E+02 -0.19535106576E+02  0.10354510466E+03  0.78931927092E+02 0.  0.
          5    1    3    3  501    0 -0.35086810441E+02 -0.48345908548E+02 -0.83293718999E+02  0.10260772274E+03  0.47000000000E+01 0. -1.
        -11    1    4    4    0    0  0.10232662448E+03 -0.44474342170E+02 -0.67664590357E+02  0.13048832123E+03  0.00000000000E+00 0.  1.
         12    1    4    4    0    0 -0.18241066564E+01  0.19513171732E+02 -0.82881193081E+01  0.21278725474E+02  0.00000000000E+00 0. -1.
         -5    1    5    5    0  502 -0.94858438663E+02  0.16361097825E+02 -0.20175988594E+02  0.98463035823E+02  0.47000000000E+01 0.  1.
         11    1    6    6    0    0  0.29614648273E+02  0.13352360605E+02 -0.43114286937E+02  0.53982910853E+02  0.00000000000E+00 0. -1.
        -12    1    6    6    0    0 -0.17191698727E+00  0.43593620557E+02  0.23579180360E+02  0.49562193809E+02  0.00000000000E+00 0.  1.
</event>
<event>
12    1  0.1681255E-001  0.1796720E+03  0.7818608E-02  0.1168902E+00
         21   -1    0    0  503  502  0.00000000000E+00  0.00000000000E+00  0.37035691737E+03  0.37035691737E+03  0.00000000000E+00 0. -1.
         21   -1    0    0  501  503 -0.00000000000E+00 -0.00000000000E+00 -0.10296073219E+03  0.10296073219E+03  0.00000000000E+00 0.  1.
          6    2    1    2  501    0  0.45888190718E+02 -0.12061689272E+02  0.35591156613E+02  0.18003348154E+03  0.16998268633E+03 0.  0.
         24    2    3    3    0    0  0.69393613622E+02 -0.56174683101E+01  0.76762232779E+02  0.13195874387E+03  0.81692350567E+02 0.  0.
         -6    2    1    2    0  502 -0.45888190718E+02  0.12061689272E+02  0.23180502857E+03  0.29328416802E+03  0.17329403206E+03 0.  0.
        -24    2    5    5    0    0 -0.32956092834E+02  0.45882366231E+02  0.23713102553E+03  0.25638520341E+03  0.79441511031E+02 0.  0.
          5    1    3    3  501    0 -0.23505422903E+02 -0.64442209621E+01 -0.41171076165E+02  0.48074737672E+02  0.47000000000E+01 0. -1.
        -13    1    4    4    0    0  0.48934083999E+01 -0.35791769077E+02  0.25994318625E+02  0.44505064658E+02  0.00000000000E+00 0.  1.
         14    1    4    4    0    0  0.64500205222E+02  0.30174300767E+02  0.50767914153E+02  0.87453679213E+02  0.00000000000E+00 0. -1.
         -5    1    5    5    0  502 -0.12932097884E+02 -0.33820676959E+02 -0.53259969590E+01  0.36898964610E+02  0.47000000000E+01 0.  1.
         13    1    6    6    0    0 -0.37492098513E+02 -0.11996452625E+02  0.10020541779E+03  0.10766010441E+03  0.00000000000E+00 0. -1.
        -14    1    6    6    0    0  0.45360056784E+01  0.57878818856E+02  0.13692560774E+03  0.14872509900E+03  0.00000000000E+00 0.  1.
</event>
<event>
12    1  0.1681255E-001  0.2403354E+03  0.7818608E-02  0.1119637E+00
         21   -1    0    0  503  502  0.00000000000E+00  0.00000000000E+00  0.11395655801E+03  0.11395655801E+03  0.00000000000E+00 0. -1.
         21   -1    0    0  501  503 -0.00000000000E+00 -0.00000000000E+00 -0.50718921400E+03  0.50718921400E+03  0.00000000000E+00 0. -1.
          6    2    1    2  501    0  0.16882839857E+02 -0.16718254975E+03 -0.21137888706E+03  0.31976243041E+03  0.17126570814E+03 0.  0.
         24    2    3    3    0    0 -0.54710690785E+02 -0.10029858273E+03 -0.14469703224E+03  0.20115527027E+03  0.80455865134E+02 0.  0.
         -6    2    1    2    0  502 -0.16882839857E+02  0.16718254975E+03 -0.18185376893E+03  0.30138334160E+03  0.17183157480E+03 0.  0.
        -24    2    5    5    0    0  0.45870136497E+02  0.49764473256E+02 -0.63462827212E+02  0.12316031893E+03  0.80996058547E+02 0.  0.
          5    1    3    3  501    0  0.71593530641E+02 -0.66883967016E+02 -0.66681854824E+02  0.11860716014E+03  0.47000000000E+01 0. -1.
        -11    1    4    4    0    0 -0.47256365550E+01  0.96788562926E+00  0.91294861589E+01  0.10325500519E+02  0.00000000000E+00 0.  1.
         12    1    4    4    0    0 -0.49985054230E+02 -0.10126646836E+03 -0.15382651840E+03  0.19082976975E+03  0.00000000000E+00 0. -1.
         -5    1    5    5    0  502 -0.62752976354E+02  0.11741807649E+03 -0.11839094172E+03  0.17822302267E+03  0.47000000000E+01 0.  1.
         11    1    6    6    0    0 -0.13197652449E+02  0.20471640227E+02 -0.50356612022E+02  0.55937951858E+02  0.00000000000E+00 0. -1.
        -12    1    6    6    0    0  0.59067788947E+02  0.29292833030E+02 -0.13106215190E+02  0.67222367071E+02  0.00000000000E+00 0.  1.
</event>
<event>
12    1  0.1681255E-001  0.1748501E+03  0.7818608E-02  0.1172957E+00
         21   -1    0    0  503  502  0.00000000000E+00  0.00000000000E+00  0.11019755669E+04  0.11019755669E+04  0.00000000000E+00 0.  1.
         21   -1    0    0  501  503 -0.00000000000E+00 -0.00000000000E+00 -0.31124425164E+02  0.31124425164E+02  0.00000000000E+00 0.  1.
          6    2    1    2  501    0  0.45360393460E+01  0.22289389997E+02  0.72304064482E+03  0.74381257166E+03  0.17306638942E+03 0.  0.
         24    2    3    3    0    0  0.14372713762E+02  0.77080335753E+02  0.57145863096E+03  0.58226380247E+03  0.79487204735E+02 0.  0.
         -6    2    1    2    0  502 -0.45360393460E+01 -0.22289389997E+02  0.34781049696E+03  0.38928742045E+03  0.17336424476E+03 0.  0.
        -24    2    5    5    0    0  0.49252538109E+02 -0.20648966655E+02  0.10883633110E+03  0.14428406536E+03  0.78232679969E+02 0.  0.
          5    1    3    3  501    0 -0.98366744156E+01 -0.54790945756E+02  0.15158201386E+03  0.16154876919E+03  0.47000000000E+01 0. -1.
        -11    1    4    4    0    0  0.33457325586E+01 -0.14486161209E+02  0.15519241461E+03  0.15590294527E+03  0.00000000000E+00 0.  1.
         12    1    4    4    0    0  0.11026981203E+02  0.91566496962E+02  0.41626621635E+03  0.42636085720E+03  0.00000000000E+00 0. -1.
         -5    1    5    5    0  502 -0.53788577455E+02 -0.16404233421E+01  0.23897416587E+03  0.24500335509E+03  0.47000000000E+01 0.  1.
         11    1    6    6    0    0  0.81876114125E+01 -0.21524426901E+02  0.99542265409E+02  0.10217142720E+03  0.00000000000E+00 0. -1.
        -12    1    6    6    0    0  0.41064926697E+02  0.87546024592E+00  0.92940656881E+01  0.42112638154E+02  0.00000000000E+00 0.  1.
</event>
<event>
12    1  0.1681255E-001  0.1965193E+03  0.7818608E-02  0.1152710E+00
         21   -1    0    0  501  502  0.00000000000E+00  0.00000000000E+00  0.82011727485E+02  0.82011727485E+02  0.00000000000E+00 0.  1.
         21   -1    0    0  502  503 -0.00000000000E+00 -0.00000000000E+00 -0.59053617656E+03  0.59053617656E+03  0.00000000000E+00 0.  1.
         -6    2    1    2    0  503  0.47605697857E+02 -0.79357579118E+02 -0.40561909223E+03  0.45071796589E+03  0.17336640091E+03 0.  0.
        -24    2    3    3    0    0 -0.49720867029E+01 -0.36415078456E+02 -0.81460102588E+02  0.11949353690E+03  0.79323246675E+02 0.  0.
          6    2    1    2  501    0 -0.47605697857E+02  0.79357579118E+02 -0.10290535684E+03  0.22182993815E+03  0.17336401345E+03 0.  0.
         24    2    5    5    0    0 -0.91413744995E+02  0.42350805307E+02 -0.10259121190E+03  0.16429008249E+03  0.79474593182E+02 0.  0.
          5    1    5    5  501    0  0.43808047138E+02  0.37006773811E+02 -0.31414493930E+00  0.57539855657E+02  0.47000000000E+01 0. -1.
        -11    1    6    6    0    0 -0.18093690095E+02  0.47675465114E+02 -0.22989959437E+02  0.55936301540E+02  0.00000000000E+00 0.  1.
         12    1    6    6    0    0 -0.73320054900E+02 -0.53246598071E+01 -0.79601252462E+02  0.10835378095E+03  0.00000000000E+00 0. -1.
         -5    1    3    3    0  503  0.52577784560E+02 -0.42942500662E+02 -0.32415898964E+03  0.33122442899E+03  0.47000000000E+01 0.  1.
         13    1    4    4    0    0  0.10620099375E+02  0.13503556948E+02 -0.60939151602E+02  0.63314396143E+02  0.00000000000E+00 0. -1.
        -14    1    4    4    0    0 -0.15592186078E+02 -0.49918635404E+02 -0.20520950986E+02  0.56179140761E+02  0.00000000000E+00 0.  1.
</event>
<event>
12    1  0.1681255E-001  0.2201725E+03  0.7818608E-02  0.1134191E+00
         21   -1    0    0  501  502  0.00000000000E+00  0.00000000000E+00  0.32409924615E+02  0.32409924615E+02  0.00000000000E+00 0.  1.
         21   -1    0    0  502  503 -0.00000000000E+00 -0.00000000000E+00 -0.17109959532E+04  0.17109959532E+04  0.00000000000E+00 0.  1.
         -6    2    1    2    0  503  0.11909397371E+03  0.57450159152E+02 -0.11635103381E+04  0.11841588682E+04  0.17604551384E+03 0.  0.
        -24    2    3    3    0    0  0.10482626791E+03  0.89435948634E+02 -0.10996885241E+04  0.11112070204E+04  0.80491346139E+02 0.  0.
          6    2    1    2  501    0 -0.11909397371E+03 -0.57450159152E+02 -0.51507569049E+03  0.55924700961E+03  0.17311948319E+03 0.  0.
         24    2    5    5    0    0 -0.10115472562E+03 -0.10538231228E+03 -0.42777441373E+03  0.45794098387E+03  0.73357245121E+02 0.  0.
          5    1    5    5  501    0 -0.17939248089E+02  0.47932153131E+02 -0.87301276766E+02  0.10130602574E+03  0.47000000000E+01 0. -1.
        -13    1    6    6    0    0 -0.59991236878E+02 -0.16915864950E+02 -0.21514757436E+03  0.22399458418E+03  0.00000000000E+00 0.  1.
         14    1    6    6    0    0 -0.41163488742E+02 -0.88466447332E+02 -0.21262683937E+03  0.23394639969E+03  0.00000000000E+00 0. -1.
         -5    1    3    3    0  503  0.14267705799E+02 -0.31985789482E+02 -0.63821814043E+02  0.72951847854E+02  0.47000000000E+01 0.  1.
         11    1    4    4    0    0  0.11146283904E+03  0.86241629507E+02 -0.86520284691E+03  0.87660569782E+03  0.00000000000E+00 0. -1.
        -12    1    4    4    0    0 -0.66365711319E+01  0.31943191264E+01 -0.23448567714E+03  0.23460132254E+03  0.00000000000E+00 0.  1.
</event>
<event>
12    1  0.1681255E-001  0.1816139E+03  0.7818608E-02  0.1166806E+00
         21   -1    0    0  503  502  0.00000000000E+00  0.00000000000E+00  0.18214725898E+04  0.18214725898E+04  0.00000000000E+00 0. -1.
         21   -1    0    0  501  503 -0.00000000000E+00 -0.00000000000E+00 -0.21374260798E+02  0.21374260798E+02  0.00000000000E+00 0. -1.
          6    2    1    2  501    0 -0.34962364393E+02  0.37848043340E+02  0.12774630781E+04  0.12903083092E+04  0.17415158796E+03 0.  0.
         24    2    3    3    0    0  0.39104816789E+02  0.20659475581E+02  0.93605112422E+03  0.94050035269E+03  0.79957523898E+02 0.  0.
         -6    2    1    2    0  502  0.34962364393E+02 -0.37848043340E+02  0.52263525096E+03  0.55253854145E+03  0.17174513947E+03 0.  0.
        -24    2    5    5    0    0  0.80492105935E+02 -0.46967254994E+02  0.28363916694E+03  0.30902809904E+03  0.79763944323E+02 0.  0.
          5    1    3    3  501    0 -0.74067181181E+02  0.17188567759E+02  0.34141195386E+03  0.34980795650E+03  0.47000000000E+01 0. -1.
        -11    1    4    4    0    0  0.18733960911E+02 -0.41453764524E+01  0.45617441567E+02  0.49488346229E+02  0.00000000000E+00 0.  1.
         12    1    4    4    0    0  0.20370855877E+02  0.24804852034E+02  0.89043368265E+03  0.89101200646E+03  0.00000000000E+00 0. -1.
         -5    1    5    5    0  502 -0.45529741542E+02  0.91192116541E+01  0.23899608402E+03  0.24351044241E+03  0.47000000000E+01 0.  1.
         13    1    6    6    0    0 -0.11683906436E+02 -0.15797410547E+02  0.92305595816E+02  0.94373697970E+02  0.00000000000E+00 0. -1.
        -14    1    6    6    0    0  0.92176012370E+02 -0.31169844448E+02  0.19133357113E+03  0.21465440107E+03  0.00000000000E+00 0.  1.
</event>
<event>
12    1  0.1681255E-001  0.2097166E+03  0.7818608E-02  0.1142266E+00
         21   -1    0    0  503  502  0.00000000000E+00  0.00000000000E+00  0.47458264249E+02  0.47458264249E+02  0.00000000000E+00 0.  1.
         21   -1    0    0  501  503 -0.00000000000E+00 -0.00000000000E+00 -0.12585613881E+04  0.12585613881E+04  0.00000000000E+00 0.  1.
          6    2    1    2  501    0 -0.25976504826E+02 -0.11202168266E+03 -0.94359717354E+03  0.96610716832E+03  0.17252187856E+03 0.  0.
         24    2    3    3    0    0 -0.15622657103E+01 -0.13083167062E+03 -0.53540899264E+03  0.55673013948E+03  0.78525741596E+02 0.  0.
         -6    2    1    2    0  502  0.25976504826E+02  0.11202168266E+03 -0.26750595030E+03  0.33991248401E+03  0.17537795516E+03 0.  0.
        -24    2    5    5    0    0  0.24400618975E+02  0.14582827218E+03 -0.24988098537E+03  0.30146644000E+03  0.81118631800E+02 0.  0.
          5    1    3    3  501    0 -0.24414239116E+02  0.18809987957E+02 -0.40818818090E+03  0.40937702884E+03  0.47000000000E+01 0. -1.
        -13    1    4    4    0    0  0.16340924610E+02  0.36452649467E+01 -0.68048623797E+02  0.70078020622E+02  0.00000000000E+00 0.  1.
         14    1    4    4    0    0 -0.17903190320E+02 -0.13447693556E+03 -0.46736036885E+03  0.48665211886E+03  0.00000000000E+00 0. -1.
         -5    1    5    5    0  502  0.15758858515E+01 -0.33806589522E+02 -0.17624964928E+02  0.38446044010E+02  0.47000000000E+01 0.  1.
         11    1    6    6    0    0 -0.72597857151E+01  0.11527749431E+03 -0.13070670560E+03  0.17443006642E+03  0.00000000000E+00 0. -1.
        -12    1    6    6    0    0  0.31660404690E+02  0.30550777868E+02 -0.11917427977E+03  0.12703637358E+03  0.00000000000E+00 0.  1.
</event>
<event>
12    1  0.1681255E-001  0.2734004E+03  0.7818608E-02  0.1099495E+00
         21   -1    0    0  503  502  0.00000000000E+00  0.00000000000E+00  0.52376226301E+02  0.52376226301E+02  0.00000000000E+00 0. -1.
         21   -1    0    0  501  503 -0.00000000000E+00 -0.00000000000E+00 -0.32342928484E+04  0.32342928484E+04  0.00000000000E+00 0.  1.
          6    2    1    2  501    0 -0.21064851387E+03 -0.14401609708E+02 -0.28198485702E+04  0.28329720094E+04  0.17205883970E+03 0.  0.
         24    2    3    3    0    0 -0.18809238640E+03  0.83125941501E+01 -0.27264163222E+04  0.27340963860E+04  0.80555823052E+02 0.  0.
         -6    2    1    2    0  502  0.21064851387E+03  0.14401609708E+02 -0.36206805197E+03  0.45369706539E+03  0.17368808286E+03 0.  0.
        -24    2    5    5    0    0  0.15823087155E+03 -0.23820213324E+02 -0.34349491008E+03  0.38605411615E+03  0.73787641732E+02 0.  0.
          5    1    3    3  501    0 -0.22556127468E+02 -0.22714203858E+02 -0.93432247950E+02  0.98875623387E+02  0.47000000000E+01 0. -1.
        -13    1    4    4    0    0 -0.70179258548E+02  0.39715502058E+02 -0.89822077262E+03  0.90183313634E+03  0.00000000000E+00 0.  1.
         14    1    4    4    0    0 -0.11791312785E+03 -0.31402907908E+02 -0.18281955496E+04  0.18322632496E+04  0.00000000000E+00 0. -1.
         -5    1    5    5    0  502  0.52417642317E+02  0.38221823032E+02 -0.18573141891E+02  0.67642949238E+02  0.47000000000E+01 0.  1.
         11    1    6    6    0    0  0.11259166024E+03  0.18694661358E+00 -0.16135318619E+03  0.19675306248E+03  0.00000000000E+00 0. -1.
        -12    1    6    6    0    0  0.45639211318E+02 -0.24007159937E+02 -0.18214172389E+03  0.18930105367E+03  0.00000000000E+00 0.  1.
</event>
<event>
12    1  0.1681255E-001  0.1853654E+03  0.7818608E-02  0.1162820E+00
         21   -1    0    0  503  502  0.00000000000E+00  0.00000000000E+00  0.46654475140E+02  0.46654475140E+02  0.00000000000E+00 0.  1.
         21   -1    0    0  501  503 -0.00000000000E+00 -0.00000000000E+00 -0.10699571203E+04  0.10699571203E+04  0.00000000000E+00 0.  1.
          6    2    1    2  501    0  0.65402746773E+02 -0.26878757628E+02 -0.82376800772E+03  0.84426183218E+03  0.17083419987E+03 0.  0.
         24    2    3    3    0    0  0.21782199913E+02  0.45748768326E+01 -0.74181555937E+03  0.74612734783E+03  0.76943494366E+02 0.  0.
         -6    2    1    2    0  502 -0.65402746773E+02  0.26878757628E+02 -0.19953463749E+03  0.27234976330E+03  0.17134857781E+03 0.  0.
        -24    2    5    5    0    0 -0.69381296489E+02  0.43242502860E+02 -0.21847563830E+03  0.24657278661E+03  0.79892779477E+02 0.  0.
          5    1    3    3  501    0  0.43620546860E+02 -0.31453634461E+02 -0.81952448345E+02  0.98134484351E+02  0.47000000000E+01 0. -1.
        -11    1    4    4    0    0  0.43236970872E+02 -0.15607534785E+02 -0.56579264619E+03  0.56765689397E+03  0.00000000000E+00 0.  1.
         12    1    4    4    0    0 -0.21454770959E+02  0.20182411618E+02 -0.17602291318E+03  0.17847045386E+03  0.00000000000E+00 0. -1.
         -5    1    5    5    0  502  0.39785497158E+01 -0.16363745231E+02  0.18941000806E+02  0.25776976692E+02  0.47000000000E+01 0.  1.
         11    1    6    6    0    0 -0.35401570689E+02  0.18627987520E+02 -0.19382299926E+03  0.19790813062E+03  0.00000000000E+00 0. -1.
        -12    1    6    6    0    0 -0.33979725800E+02  0.24614515340E+02 -0.24652639041E+02  0.48664655989E+02  0.00000000000E+00 0.  1.
</event>
<event>
12    1  0.1681255E-001  0.1850977E+03  0.7818608E-02  0.1164500E+00
         21   -1    0    0  503  502  0.00000000000E+00  0.00000000000E+00  0.10214348174E+04  0.10214348174E+04  0.00000000000E+00 0.  1.
         21   -1    0    0  501  503 -0.00000000000E+00 -0.00000000000E+00 -0.33858505080E+02  0.33858505080E+02  0.00000000000E+00 0.  1.
          6    2    1    2  501    0  0.23321366729E+02  0.52161048831E+02  0.37505617161E+03  0.41541670997E+03  0.16923135021E+03 0.  0.
         24    2    3    3    0    0  0.68415687140E+02 -0.11151272599E+01  0.18210205758E+03  0.21017239508E+03  0.79557064570E+02 0.  0.
         -6    2    1    2    0  502 -0.23321366729E+02 -0.52161048831E+02  0.61252014070E+03  0.63987661251E+03  0.17605821567E+03 0.  0.
        -24    2    5    5    0    0 -0.15650990077E+01 -0.88641327751E+02  0.27862802651E+03  0.30326083769E+03  0.80460077057E+02 0.  0.
          5    1    3    3  501    0 -0.45094320410E+02  0.53276176091E+02  0.19295411403E+03  0.20524431489E+03  0.47000000000E+01 0. -1.
        -13    1    4    4    0    0  0.80757774538E+02 -0.18543010238E+02  0.15400710257E+03  0.17488238625E+03  0.00000000000E+00 0.  1.
         14    1    4    4    0    0 -0.12342087399E+02  0.17427882978E+02  0.28094955009E+02  0.35290008833E+02  0.00000000000E+00 0. -1.
         -5    1    5    5    0  502 -0.21756267722E+02  0.36480278920E+02  0.33389211419E+03  0.33661577481E+03  0.47000000000E+01 0.  1.
         11    1    6    6    0    0 -0.31913068455E+02 -0.53380526264E+02  0.92907890804E+02  0.11180250756E+03  0.00000000000E+00 0. -1.
        -12    1    6    6    0    0  0.30347969447E+02 -0.35260801487E+02  0.18572013571E+03  0.19145833014E+03  0.00000000000E+00 0.  1.
</event>
<event>
12    1  0.1681255E-001  0.1865190E+03  0.7818608E-02  0.1161940E+00
         21   -1    0    0  503  502  0.00000000000E+00  0.00000000000E+00  0.28549987220E+03  0.28549987220E+03  0.00000000000E+00 0.  1.
         21   -1    0    0  501  503 -0.00000000000E+00 -0.00000000000E+00 -0.13433931056E+03  0.13433931056E+03  0.00000000000E+00 0.  1.
          6    2    1    2  501    0 -0.70761682358E+02 -0.53910736263E+01  0.92110704923E+01  0.18544847367E+03  0.17108481289E+03 0.  0.
         24    2    3    3    0    0  0.27766300678E+02  0.26634543919E+01 -0.21468789713E+01  0.85830544167E+02  0.81143156089E+02 0.  0.
         -6    2    1    2    0  502  0.70761682358E+02  0.53910736263E+01  0.14194949116E+03  0.23439070909E+03  0.17249077396E+03 0.  0.
        -24    2    5    5    0    0  0.66870334443E+02 -0.12317109238E+02  0.17121302460E+03  0.19964640425E+03  0.76950855280E+02 0.  0.
          5    1    3    3  501    0 -0.98527983036E+02 -0.80545280182E+01  0.11357949464E+02  0.99617929504E+02  0.47000000000E+01 0. -1.
        -11    1    4    4    0    0  0.79684309223E+01 -0.27536047408E+02 -0.29040766843E+02  0.40805587081E+02  0.00000000000E+00 0.  1.
         12    1    4    4    0    0  0.19797869756E+02  0.30199501800E+02  0.26893887871E+02  0.45024957087E+02  0.00000000000E+00 0. -1.
         -5    1    5    5    0  502  0.38913479151E+01  0.17708182865E+02 -0.29263533445E+02  0.34744304838E+02  0.47000000000E+01 0.  1.
         11    1    6    6    0    0 -0.48496220371E+01 -0.22275902483E+02  0.14511045644E+02  0.27024157915E+02  0.00000000000E+00 0. -1.
        -12    1    6    6    0    0  0.71719956480E+02  0.99587932450E+01  0.15670197896E+03  0.17262224633E+03  0.00000000000E+00 0.  1.
</event>
<event>
12    1  0.1681255E-001  0.1820850E+03  0.7818608E-02  0.1166419E+00
         21   -1    0    0  503  502  0.00000000000E+00  0.00000000000E+00  0.34009442876E+03  0.34009442876E+03  0.00000000000E+00 0. -1.
         21   -1    0    0  501  503 -0.00000000000E+00 -0.00000000000E+00 -0.10679698982E+03  0.10679698982E+03  0.00000000000E+00 0. -1.
          6    2    1    2  501    0  0.59737057835E+02  0.11148301810E+02  0.46724019385E+02  0.18798429392E+03  0.17164544870E+03 0.  0.
         24    2    3    3    0    0 -0.12342148786E+02 -0.71705268036E+01  0.75087499894E+02  0.10824993159E+03  0.76656180165E+02 0.  0.
         -6    2    1    2    0  502 -0.59737057835E+02 -0.11148301810E+02  0.18657341955E+03  0.25890712467E+03  0.16890961373E+03 0.  0.
        -24    2    5    5    0    0 -0.22495961364E+02  0.13966566471E+02  0.19570440445E+03  0.21282979011E+03  0.79342122365E+02 0.  0.
          5    1    3    3  501    0  0.72079206621E+02  0.18318828614E+02 -0.28363480509E+02  0.79734362326E+02  0.47000000000E+01 0. -1.
        -11    1    4    4    0    0  0.25501408850E+02  0.17536159160E+02  0.19383781836E+02  0.36518074014E+02  0.00000000000E+00 0.  1.
         12    1    4    4    0    0 -0.37843557636E+02 -0.24706685963E+02  0.55703718058E+02  0.71731857576E+02  0.00000000000E+00 0. -1.
         -5    1    5    5    0  502 -0.37241096471E+02 -0.25114868281E+02 -0.91309848932E+01  0.46077334561E+02  0.47000000000E+01 0.  1.
         11    1    6    6    0    0 -0.40192235996E+02 -0.68613734689E+01  0.49679887022E+02  0.64269630890E+02  0.00000000000E+00 0. -1.
        -12    1    6    6    0    0  0.17696274632E+02  0.20827939939E+02  0.14602451743E+03  0.14856015922E+03  0.00000000000E+00 0.  1.
</event>
<event>
12    1  0.1681255E-001  0.2250275E+03  0.7818608E-02  0.1130196E+00
         21   -1    0    0  503  502  0.00000000000E+00  0.00000000000E+00  0.10074251384E+03  0.10074251384E+03  0.00000000000E+00 0. -1.
         21   -1    0    0  501  503 -0.00000000000E+00 -0.00000000000E+00 -0.51943131672E+03  0.51943131672E+03  0.00000000000E+00 0.  1.
          6    2    1    2  501    0 -0.13816240311E+03  0.42564950254E+02 -0.26523488281E+03  0.34783174319E+03  0.17244348026E+03 0.  0.
         24    2    3    3    0    0 -0.20564532485E+02  0.13682522767E+01 -0.44934464700E+02  0.94689902866E+02  0.80760754555E+02 0.  0.
         -6    2    1    2    0  502  0.13816240311E+03 -0.42564950254E+02 -0.15345392006E+03  0.27234208737E+03  0.17239919473E+03 0.  0.
        -24    2    5    5    0    0  0.71974000776E+02 -0.89323015544E+02 -0.11821262340E+03  0.18384767927E+03  0.81651007032E+02 0.  0.
          5    1    3    3  501    0 -0.11759787063E+03  0.41196697977E+02 -0.22030041811E+03  0.25314184032E+03  0.47000000000E+01 0. -1.
        -13    1    4    4    0    0  0.15014836805E+02 -0.29291041295E+02 -0.32156763910E+02  0.46015952555E+02  0.00000000000E+00 0.  1.
         14    1    4    4    0    0 -0.35579369290E+02  0.30659293572E+02 -0.12777700790E+02  0.48673950311E+02  0.00000000000E+00 0. -1.
         -5    1    5    5    0  502  0.66188402335E+02  0.46758065291E+02 -0.35241296668E+02  0.88494408095E+02  0.47000000000E+01 0.  1.
         11    1    6    6    0    0  0.70867682759E+02 -0.32093127606E+02 -0.41620839567E+02  0.88229765869E+02  0.00000000000E+00 0. -1.
        -12    1    6    6    0    0  0.11063180174E+01 -0.57229887939E+02 -0.76591783830E+02  0.95617913402E+02  0.00000000000E+00 0.  1.
</event>
<event>
12    1  0.1681255E-001  0.1801007E+03  0.7818608E-02  0.1168762E+00
         21   -1    0    0  501  502  0.00000000000E+00  0.00000000000E+00  0.60987398286E+02  0.60987398286E+02  0.00000000000E+00 0.  1.
         21   -1    0    0  502  503 -0.00000000000E+00 -0.00000000000E+00 -0.55984823164E+03  0.55984823164E+03  0.00000000000E+00 0.  1.
         -6    2    1    2    0  503 -0.41356080814E+02  0.24040198576E+02 -0.33588024109E+03  0.38111914609E+03  0.17363182483E+03 0.  0.
        -24    2    3    3    0    0  0.13538005596E+02  0.54422883174E+02 -0.28012886906E+03  0.29705504121E+03  0.81390333683E+02 0.  0.
          6    2    1    2  501    0  0.41356080814E+02 -0.24040198576E+02 -0.16298059227E+03  0.23971648384E+03  0.16915396123E+03 0.  0.
         24    2    5    5    0    0  0.20173963498E+02 -0.75412930508E+02 -0.71017540375E+02  0.13216587904E+03  0.79562740335E+02 0.  0.
          5    1    5    5  501    0  0.21182117316E+02  0.51372731932E+02 -0.91963051894E+02  0.10755060480E+03  0.47000000000E+01 0. -1.
        -11    1    6    6    0    0 -0.66777736327E+01 -0.61405477416E+02 -0.80451701360E+01  0.62289245299E+02  0.00000000000E+00 0.  1.
         12    1    6    6    0    0  0.26851737131E+02 -0.14007453092E+02 -0.62972370239E+02  0.69876633738E+02  0.00000000000E+00 0. -1.
         -5    1    3    3    0  503 -0.54894086411E+02 -0.30382684598E+02 -0.55751372026E+02  0.84064104879E+02  0.47000000000E+01 0.  1.
         13    1    4    4    0    0  0.51989479702E+00 -0.12516582232E+02 -0.48142454995E+01  0.13420584231E+02  0.00000000000E+00 0. -1.
        -14    1    4    4    0    0  0.13018110799E+02  0.66939465406E+02 -0.27531462356E+03  0.28363445698E+03  0.00000000000E+00 0.  1.
</event>
<event>
12    1  0.1681255E-001  0.1835422E+03  0.7818608E-02  0.1164488E+00
         21   -1    0    0  503  502  0.00000000000E+00  0.00000000000E+00  0.97044550524E+02  0.97044550524E+02  0.00000000000E+00 0. -1.
         21   -1    0    0  501  503 -0.00000000000E+00 -0.00000000000E+00 -0.34921654995E+03  0.34921654995E+03  0.00000000000E+00 0. -1.
          6    2    1    2  501    0 -0.75353309408E+01  0.62065318138E+02 -0.14538798621E+03  0.23391572872E+03  0.17224986700E+03 0.  0.
         24    2    3    3    0    0 -0.94934895656E+01  0.61898833384E+02 -0.17601809804E+03  0.20286486959E+03  0.79058159350E+02 0.  0.
         -6    2    1    2    0  502  0.75353309408E+01 -0.62065318138E+02 -0.10678401321E+03  0.21234537175E+03  0.17256548466E+03 0.  0.
        -24    2    5    5    0    0 -0.29388498727E+02 -0.98040959784E+02 -0.89643397198E+02  0.15781550189E+03  0.79962993460E+02 0.  0.
          5    1    3    3  501    0  0.19581586248E+01  0.16648475452E+00  0.30630111825E+02  0.31050859131E+02  0.47000000000E+01 0. -1.
        -11    1    4    4    0    0  0.17863930104E+02  0.49782258260E+02 -0.48090638753E+02  0.71484982842E+02  0.00000000000E+00 0.  1.
         12    1    4    4    0    0 -0.27357419670E+02  0.12116575123E+02 -0.12792745928E+03  0.13137988675E+03  0.00000000000E+00 0. -1.
         -5    1    5    5    0  502  0.36923829668E+02  0.35975641646E+02 -0.17140616013E+02  0.54529869856E+02  0.47000000000E+01 0.  1.
         13    1    6    6    0    0  0.19119132781E+02 -0.71575315497E+02 -0.58411176599E+02  0.94342103954E+02  0.00000000000E+00 0. -1.
        -14    1    6    6    0    0 -0.48507631509E+02 -0.26465644287E+02 -0.31232220599E+02  0.63473397937E+02  0.00000000000E+00 0.  1.
</event>
<event>
12    1  0.1681255E-001  0.2720689E+03  0.7818608E-02  0.1100430E+00
         21   -1    0    0  503  502  0.00000000000E+00  0.00000000000E+00  0.92289575296E+03  0.92289575296E+03  0.00000000000E+00 0. -1.
         21   -1    0    0  501  503 -0.00000000000E+00 -0.00000000000E+00 -0.13012921707E+03  0.13012921707E+03  0.00000000000E+00 0.  1.
          6    2    1    2  501    0  0.18234004107E+03 -0.10681768666E+03  0.67027963117E+02  0.27796501400E+03  0.16767197860E+03 0.  0.
         24    2    3    3    0    0  0.15289315683E+03 -0.30861115508E+02  0.64483074865E+01  0.17633576443E+03  0.81999971292E+02 0.  0.
         -6    2    1    2    0  502 -0.18234004107E+03  0.10681768666E+03  0.72573857277E+03  0.77505995604E+03  0.17135796067E+03 0.  0.
        -24    2    5    5    0    0 -0.18956840217E+03  0.53538578681E+02  0.50806809101E+03  0.55079796376E+03  0.80266140251E+02 0.  0.
          5    1    3    3  501    0  0.29446884241E+02 -0.75956571150E+02  0.60579655630E+02  0.10162924957E+03  0.47000000000E+01 0. -1.
        -11    1    4    4    0    0  0.11796883272E+03 -0.50096336041E+02 -0.18215230469E+02  0.12945301464E+03  0.00000000000E+00 0.  1.
         12    1    4    4    0    0  0.34924324105E+02  0.19235220532E+02  0.24663537955E+02  0.46882749787E+02  0.00000000000E+00 0. -1.
         -5    1    5    5    0  502  0.72283610983E+01  0.53279107977E+02  0.21767048176E+03  0.22426199227E+03  0.47000000000E+01 0.  1.
         11    1    6    6    0    0 -0.78440750157E+02  0.46469648606E+02  0.14727021001E+03  0.17320766231E+03  0.00000000000E+00 0. -1.
        -12    1    6    6    0    0 -0.11112765201E+03  0.70689300758E+01  0.36079788100E+03  0.37759030145E+03  0.00000000000E+00 0.  1.
</event>
<event>
12    1  0.1681255E-001  0.1789826E+03  0.7818608E-02  0.1169943E+00
         21   -1    0    0  503  502  0.00000000000E+00  0.00000000000E+00  0.52861718689E+03  0.52861718689E+03  0.00000000000E+00 0. -1.
         21   -1    0    0  501  503 -0.00000000000E+00 -0.00000000000E+00 -0.63218148859E+02  0.63218148859E+02  0.00000000000E+00 0. -1.
          6    2    1    2  501    0 -0.52053125544E+01  0.32159760965E+02  0.15371724557E+03  0.23241869978E+03  0.17125453255E+03 0.  0.
         24    2    3    3    0    0  0.16705148968E+02  0.64584105395E+02  0.16157787547E+03  0.19222807976E+03  0.79962842209E+02 0.  0.
         -6    2    1    2    0  502  0.52053125544E+01 -0.32159760965E+02  0.31168179246E+03  0.35941663597E+03  0.17599270711E+03 0.  0.
        -24    2    5    5    0    0  0.20577460105E+02  0.45106869256E+02  0.21106714184E+03  0.23154235010E+03  0.81267828861E+02 0.  0.
          5    1    3    3  501    0 -0.21910461523E+02 -0.32424344430E+02 -0.78606298947E+01  0.40190620027E+02  0.47000000000E+01 0. -1.
        -11    1    4    4    0    0  0.21767903310E+02 -0.13641176808E+02  0.37167641123E+02  0.45181377423E+02  0.00000000000E+00 0.  1.
         12    1    4    4    0    0 -0.50627543415E+01  0.78225282203E+02  0.12441023435E+03  0.14704670233E+03  0.00000000000E+00 0. -1.
         -5    1    5    5    0  502 -0.15372147551E+02 -0.77266630221E+02  0.10061465062E+03  0.12787428586E+03  0.47000000000E+01 0.  1.
         13    1    6    6    0    0  0.29705798997E+02  0.24144469818E+02  0.20407369310E+03  0.20763299866E+03  0.00000000000E+00 0. -1.
        -14    1    6    6    0    0 -0.91283388920E+01  0.20962399438E+02  0.69934487408E+01  0.23909351443E+02  0.00000000000E+00 0.  1.
</event>
<event>
12    1  0.1681255E-001  0.2025045E+03  0.7818608E-02  0.1147757E+00
         21   -1    0    0  501  502  0.00000000000E+00  0.00000000000E+00  0.43964517241E+03  0.43964517241E+03  0.00000000000E+00 0. -1.
         21   -1    0    0  502  503 -0.00000000000E+00 -0.00000000000E+00 -0.11279713302E+03  0.11279713302E+03  0.00000000000E+00 0. -1.
         -6    2    1    2    0  503  0.50650454969E+02  0.95066826970E+02  0.47955178073E+02  0.20810516266E+03  0.17147853931E+03 0.  0.
        -24    2    3    3    0    0  0.67947693531E+02  0.12834042854E+03  0.39820138818E+02  0.16944515895E+03  0.77703692206E+02 0.  0.
          6    2    1    2  501    0 -0.50650454969E+02 -0.95066826970E+02  0.27889286132E+03  0.34433714276E+03  0.17083228504E+03 0.  0.
         24    2    5    5    0    0 -0.74433677287E+02 -0.29866139253E+02  0.23924334559E+03  0.26426876298E+03  0.78538156927E+02 0.  0.
          5    1    5    5  501    0  0.23783222318E+02 -0.65200687717E+02  0.39649515734E+02  0.80068379780E+02  0.47000000000E+01 0. -1.
        -13    1    6    6    0    0 -0.72959690215E+02 -0.35527771936E+01  0.10785276629E+03  0.13026111399E+03  0.00000000000E+00 0.  1.
         14    1    6    6    0    0 -0.14739870723E+01 -0.26313362059E+02  0.13139057929E+03  0.13400764899E+03  0.00000000000E+00 0. -1.
         -5    1    3    3    0  503 -0.17297238562E+02 -0.33273601570E+02  0.81350392548E+01  0.38660003712E+02  0.47000000000E+01 0.  1.
         13    1    4    4    0    0 -0.13790861433E+02  0.16197512213E+01  0.40671077504E+01  0.14469029634E+02  0.00000000000E+00 0. -1.
        -14    1    4    4    0    0  0.81738554964E+02  0.12672067732E+03  0.35753031068E+02  0.15497612932E+03  0.00000000000E+00 0.  1.
</event>
<event>
12    1  0.1681255E-001  0.1874467E+03  0.7818608E-02  0.1160804E+00
         21   -1    0    0  501  502  0.00000000000E+00  0.00000000000E+00  0.70308803231E+03  0.70308803231E+03  0.00000000000E+00 0. -1.
         21   -1    0    0  502  503 -0.00000000000E+00 -0.00000000000E+00 -0.75144473563E+02  0.75144473563E+02  0.00000000000E+00 0. -1.
         -6    2    1    2    0  503 -0.55241452573E+02  0.49247169321E+02  0.88623250908E+02  0.20726607648E+03  0.17212856848E+03 0.  0.
        -24    2    3    3    0    0  0.68825018435E+01 -0.29895791807E+02  0.27487198470E+02  0.89441202550E+02  0.79391784427E+02 0.  0.
          6    2    1    2  501    0  0.55241452573E+02 -0.49247169321E+02  0.53932030784E+03  0.57096642939E+03  0.17221895157E+03 0.  0.
         24    2    5    5    0    0  0.48986656542E+00  0.33974887843E+02  0.28236097285E+03  0.29533291038E+03  0.79619570388E+02 0.  0.
          5    1    5    5  501    0  0.54751586007E+02 -0.83222057164E+02  0.25695933498E+03  0.27563351901E+03  0.47000000000E+01 0. -1.
        -11    1    6    6    0    0  0.28087963936E+02  0.47542912028E+02  0.16424950276E+03  0.17328347111E+03  0.00000000000E+00 0.  1.
         12    1    6    6    0    0 -0.27598097370E+02 -0.13568024185E+02  0.11811147009E+03  0.12204943927E+03  0.00000000000E+00 0. -1.
         -5    1    3    3    0  503 -0.62123954416E+02  0.79142961128E+02  0.61136052438E+02  0.11782487393E+03  0.47000000000E+01 0.  1.
         11    1    4    4    0    0 -0.18542502891E+02  0.18600046579E+02  0.22273856351E+02  0.34437055956E+02  0.00000000000E+00 0. -1.
        -12    1    4    4    0    0  0.25425004734E+02 -0.48495838386E+02  0.52133421187E+01  0.55004146594E+02  0.00000000000E+00 0.  1.
</event>
<event>
12    1  0.1681255E-001  0.1982583E+03  0.7818608E-02  0.1151377E+00
         21   -1    0    0  503  502  0.00000000000E+00  0.00000000000E+00  0.80251109924E+02  0.80251109924E+02  0.00000000000E+00 0. -1.
         21   -1    0    0  501  503 -0.00000000000E+00 -0.00000000000E+00 -0.89877460607E+03  0.89877460607E+03  0.00000000000E+00 0. -1.
          6    2    1    2  501    0 -0.92849239844E+02  0.33784729143E+02 -0.74064012871E+03  0.76671648037E+03  0.17188359942E+03 0.  0.
         24    2    3    3    0    0  0.14854083525E+02  0.38483026909E+02 -0.33754022539E+03  0.34942317594E+03  0.80383860122E+02 0.  0.
         -6    2    1    2    0  502  0.92849239844E+02 -0.33784729143E+02 -0.77883367438E+02  0.21230923563E+03  0.17101755274E+03 0.  0.
        -24    2    5    5    0    0  0.40058446361E+02 -0.80769658552E+02 -0.27146689641E+02  0.12518431415E+03  0.82496987120E+02 0.  0.
          5    1    3    3  501    0 -0.10770332337E+03 -0.46982977663E+01 -0.40309990332E+03  0.41729330443E+03  0.47000000000E+01 0. -1.
        -11    1    4    4    0    0  0.43988144743E+01  0.24950091485E+01  0.36146258555E+01  0.62161209372E+01  0.00000000000E+00 0.  1.
         12    1    4    4    0    0  0.10455269051E+02  0.35988017761E+02 -0.34115485125E+03  0.34320705500E+03  0.00000000000E+00 0. -1.
         -5    1    5    5    0  502  0.52790793483E+02  0.46984929409E+02 -0.50736677797E+02  0.87124921475E+02  0.47000000000E+01 0.  1.
         11    1    6    6    0    0  0.43369471058E+02 -0.26920123798E+02 -0.45313810857E+02  0.68256468848E+02  0.00000000000E+00 0. -1.
        -12    1    6    6    0    0 -0.33110246971E+01 -0.53849534754E+02  0.18167121216E+02  0.56927845305E+02  0.00000000000E+00 0.  1.
</event>
<event>
12    1  0.1681255E-001  0.1935271E+03  0.7818608E-02  0.1155774E+00
         21   -1    0    0  501  502  0.00000000000E+00  0.00000000000E+00  0.85413126905E+03  0.85413126905E+03  0.00000000000E+00 0.  1.
         21   -1    0    0  502  503 -0.00000000000E+00 -0.00000000000E+00 -0.44584629109E+02  0.44584629109E+02  0.00000000000E+00 0.  1.
         -6    2    1    2    0  503 -0.79364108275E+02  0.25980820938E+02  0.32891385441E+03  0.38058406708E+03  0.17229696387E+03 0.  0.
        -24    2    3    3    0    0 -0.56152891147E+02  0.70184315724E+02  0.29848929547E+03  0.32192868934E+03  0.80394254461E+02 0.  0.
          6    2    1    2  501    0  0.79364108275E+02 -0.25980820938E+02  0.48063278554E+03  0.51813183108E+03  0.17458251661E+03 0.  0.
         24    2    5    5    0    0  0.65127579485E+02  0.73701408751E+01  0.47042163142E+03  0.48016707013E+03  0.70483922591E+02 0.  0.
          5    1    5    5  501    0  0.14236528790E+02 -0.33350961813E+02  0.10211154124E+02  0.37964760955E+02  0.47000000000E+01 0. -1.
        -13    1    6    6    0    0  0.63090386853E+02  0.38284402273E+01  0.20076627853E+03  0.21048076506E+03  0.00000000000E+00 0.  1.
         14    1    6    6    0    0  0.20371926322E+01  0.35417006477E+01  0.26965535289E+03  0.26968630506E+03  0.00000000000E+00 0. -1.
         -5    1    3    3    0  503 -0.23211217128E+02 -0.44203494786E+02  0.30424558932E+02  0.58655377742E+02  0.47000000000E+01 0.  1.
         13    1    4    4    0    0 -0.56685481429E+02  0.69657036037E+02  0.30368159469E+03  0.31668258150E+03  0.00000000000E+00 0. -1.
        -14    1    4    4    0    0  0.53259028253E+00  0.52727968645E+00 -0.51922992166E+01  0.52461078364E+01  0.00000000000E+00 0.  1.
</event>
<event>
12    1  0.1681255E-001  0.2643921E+03  0.7818608E-02  0.1104561E+00
         21   -1    0    0  503  502  0.00000000000E+00  0.00000000000E+00  0.58929359720E+02  0.58929359720E+02  0.00000000000E+00 0.  1.
         21   -1    0    0  501  503 -0.00000000000E+00 -0.00000000000E+00 -0.16405541514E+04  0.16405541514E+04  0.00000000000E+00 0. -1.
          6    2    1    2  501    0 -0.17492425652E+03  0.99170932862E+02 -0.12386183579E+04  0.12665222503E+04  0.17166771514E+03 0.  0.
         24    2    3    3    0    0 -0.29557976021E+02  0.58995501771E+02 -0.68032343000E+03  0.68819644477E+03  0.80126362787E+02 0.  0.
         -6    2    1    2    0  502  0.17492425652E+03 -0.99170932862E+02 -0.34300643378E+03  0.43296126086E+03  0.17137289853E+03 0.  0.
        -24    2    5    5    0    0  0.84757900138E+01 -0.18475950809E+02 -0.96422149027E+02  0.12467134598E+03  0.76370897016E+02 0.  0.
          5    1    3    3  501    0 -0.14536628050E+03  0.40175431091E+02 -0.55829492790E+03  0.57832580549E+03  0.47000000000E+01 0. -1.
        -13    1    4    4    0    0  0.21395209320E+02  0.64579949273E+01 -0.69519926923E+02  0.73023838024E+02  0.00000000000E+00 0.  1.
         14    1    4    4    0    0 -0.50953185341E+02  0.52537506844E+02 -0.61080350308E+03  0.61517260675E+03  0.00000000000E+00 0. -1.
         -5    1    5    5    0  502  0.16644846651E+03 -0.80694982053E+02 -0.24658428475E+03  0.30828991488E+03  0.47000000000E+01 0.  1.
         11    1    6    6    0    0  0.12481859559E+02  0.51338461665E+00  0.10304871256E+02  0.16194158003E+02  0.00000000000E+00 0. -1.
        -12    1    6    6    0    0 -0.40060695456E+01 -0.18989335425E+02 -0.10672702028E+03  0.10847718798E+03  0.00000000000E+00 0.  1.
</event>
<event>
12    1  0.1681255E-001  0.1875030E+03  0.7818608E-02  0.1160766E+00
         21   -1    0    0  501  502  0.00000000000E+00  0.00000000000E+00  0.11827031386E+04  0.11827031386E+04  0.00000000000E+00 0.  1.
         21   -1    0    0  502  503 -0.00000000000E+00 -0.00000000000E+00 -0.41581382633E+02  0.41581382633E+02  0.00000000000E+00 0.  1.
         -6    2    1    2    0  503  0.73950514835E+02  0.24453037158E+01  0.24323007668E+03  0.30702401741E+03  0.17212849534E+03 0.  0.
        -24    2    3    3    0    0  0.19621291974E+02  0.27992551911E+02  0.41976636936E+02  0.96954116291E+02  0.80433106095E+02 0.  0.
          6    2    1    2  501    0 -0.73950514835E+02 -0.24453037158E+01  0.89789167927E+03  0.91726050380E+03  0.17228669707E+03 0.  0.
         24    2    5    5    0    0 -0.11222696244E+03  0.68737164075E+01  0.79657838484E+03  0.80845607280E+03  0.80137128627E+02 0.  0.
          5    1    5    5  501    0  0.38276447607E+02 -0.93190201233E+01  0.10131329443E+03  0.10880443100E+03  0.47000000000E+01 0. -1.
        -13    1    6    6    0    0 -0.17220165588E+02 -0.29447350961E+02  0.26979294149E+03  0.27194100805E+03  0.00000000000E+00 0.  1.
         14    1    6    6    0    0 -0.95006796854E+02  0.36321067369E+02  0.52678544335E+03  0.53651506476E+03  0.00000000000E+00 0. -1.
         -5    1    3    3    0  503  0.54329222860E+02 -0.25547248195E+02  0.20125343974E+03  0.21006990112E+03  0.47000000000E+01 0.  1.
         11    1    4    4    0    0 -0.63863606732E+01 -0.26251794373E+02  0.98568895007E+01  0.28759356409E+02  0.00000000000E+00 0. -1.
        -12    1    4    4    0    0  0.26007652648E+02  0.54244346284E+02  0.32119747435E+02  0.68194759882E+02  0.00000000000E+00 0.  1.
</event>
<event>
12    1  0.1681255E-001  0.2014214E+03  0.7818608E-02  0.1151971E+00
         21   -1    0    0  503  502  0.00000000000E+00  0.00000000000E+00  0.48905937379E+02  0.48905937379E+02  0.00000000000E+00 0. -1.
         21   -1    0    0  501  503 -0.00000000000E+00 -0.00000000000E+00 -0.86379432279E+03  0.86379432279E+03  0.00000000000E+00 0.  1.
          6    2    1    2  501    0  0.46426807347E+02 -0.60739642904E+02 -0.57540274187E+03  0.60963834409E+03  0.18634871227E+03 0.  0.
         24    2    3    3    0    0  0.16422527464E+02  0.16064059684E+02 -0.11631242955E+03  0.14317819529E+03  0.80272416920E+02 0.  0.
         -6    2    1    2    0  502 -0.46426807347E+02  0.60739642904E+02 -0.23948564354E+03  0.30306191608E+03  0.16925837898E+03 0.  0.
        -24    2    5    5    0    0  0.34818050867E+02  0.56365764378E+02 -0.14417819700E+03  0.17766073122E+03  0.79916123943E+02 0.  0.
          5    1    3    3  501    0  0.30004279884E+02 -0.76803702588E+02 -0.45909031233E+03  0.46646014880E+03  0.47000000000E+01 0. -1.
        -11    1    4    4    0    0  0.18906101751E+01 -0.56453973317E+01 -0.11689590601E+03  0.11704741672E+03  0.00000000000E+00 0.  1.
         12    1    4    4    0    0  0.14531917289E+02  0.21709457015E+02  0.58347646827E+00  0.26130778572E+02  0.00000000000E+00 0. -1.
         -5    1    5    5    0  502 -0.81244858214E+02  0.43738785267E+01 -0.95307446534E+02  0.12540118486E+03  0.47000000000E+01 0.  1.
         13    1    6    6    0    0 -0.19008292941E+02  0.19082310149E+02 -0.10689252867E+02  0.28977748152E+02  0.00000000000E+00 0. -1.
        -14    1    6    6    0    0  0.53826343807E+02  0.37283454229E+02 -0.13348894413E+03  0.14868298306E+03  0.00000000000E+00 0.  1.
</event>
<event>
12    1  0.1681255E-001  0.2006818E+03  0.7818608E-02  0.1149198E+00
         21   -1    0    0  501  502  0.00000000000E+00  0.00000000000E+00  0.33763465684E+03  0.33763465684E+03  0.00000000000E+00 0. -1.
         21   -1    0    0  502  503 -0.00000000000E+00 -0.00000000000E+00 -0.11926661299E+03  0.11926661299E+03  0.00000000000E+00 0. -1.
         -6    2    1    2    0  503  0.70995197373E+02 -0.75378730685E+02  0.11512195889E+03  0.23135736860E+03  0.17190373904E+03 0.  0.
        -24    2    3    3    0    0 -0.22957665719E+02 -0.37595018463E+02  0.86805778557E+02  0.12610222402E+03  0.80162883447E+02 0.  0.
          6    2    1    2  501    0 -0.70995197373E+02  0.75378730685E+02  0.10324608496E+03  0.22554390124E+03  0.17172077986E+03 0.  0.
         24    2    5    5    0    0 -0.91036211431E+02  0.70164101588E+02  0.21855141452E+02  0.14142844317E+03  0.79459199504E+02 0.  0.
          5    1    5    5  501    0  0.20041014058E+02  0.52146290973E+01  0.81390943510E+02  0.84115458071E+02  0.47000000000E+01 0. -1.
        -13    1    6    6    0    0 -0.68619346162E+01 -0.10777429103E+02 -0.14306128310E+02  0.19180835018E+02  0.00000000000E+00 0.  1.
         14    1    6    6    0    0 -0.84174276815E+02  0.80941530691E+02  0.36161269762E+02  0.12224760815E+03  0.00000000000E+00 0. -1.
         -5    1    3    3    0  503  0.93952863092E+02 -0.37783712222E+02  0.28316180331E+02  0.10525514458E+03  0.47000000000E+01 0.  1.
         13    1    4    4    0    0  0.87874330329E+01 -0.41254171405E+02  0.10634648516E+02  0.43499671110E+02  0.00000000000E+00 0. -1.
        -14    1    4    4    0    0 -0.31745098752E+02  0.36591529419E+01  0.76171130040E+02  0.82602552906E+02  0.00000000000E+00 0.  1.
</event>
<event>
12    1  0.1681255E-001  0.2269549E+03  0.7818608E-02  0.1128998E+00
         21   -1    0    0  501  502  0.00000000000E+00  0.00000000000E+00  0.17608122049E+03  0.17608122049E+03  0.00000000000E+00 0. -1.
         21   -1    0    0  502  503 -0.00000000000E+00 -0.00000000000E+00 -0.32239513320E+03  0.32239513320E+03  0.00000000000E+00 0. -1.
         -6    2    1    2    0  503 -0.14564584276E+03  0.78603296534E+00 -0.15062938850E+03  0.27148043716E+03  0.17262411685E+03 0.  0.
        -24    2    3    3    0    0 -0.12039535171E+02 -0.12557882653E+02 -0.97129222912E+02  0.12686694114E+03  0.79740102755E+02 0.  0.
          6    2    1    2  501    0  0.14564584276E+03 -0.78603296534E+00  0.43154757881E+01  0.22699591653E+03  0.17405514480E+03 0.  0.
         24    2    5    5    0    0  0.56711810506E+02  0.64989258023E+02  0.16565912516E+02  0.11560554802E+03  0.75169010676E+02 0.  0.
          5    1    5    5  501    0  0.88934032256E+02 -0.65775290989E+02 -0.12250436728E+02  0.11139036852E+03  0.47000000000E+01 0. -1.
        -11    1    6    6    0    0  0.33490514757E+02  0.41302618084E+02  0.46715623348E+02  0.70780437298E+02  0.00000000000E+00 0.  1.
         12    1    6    6    0    0  0.23221295749E+02  0.23686639940E+02 -0.30149710832E+02  0.44825110721E+02  0.00000000000E+00 0. -1.
         -5    1    3    3    0  503 -0.13360630759E+03  0.13343915618E+02 -0.53500165587E+02  0.14461349602E+03  0.47000000000E+01 0.  1.
         13    1    4    4    0    0  0.10555952066E+02  0.40699030994E+01  0.10625108843E+02  0.15520475933E+02  0.00000000000E+00 0. -1.
        -14    1    4    4    0    0 -0.22595487237E+02 -0.16627785753E+02 -0.10775433176E+03  0.11134646521E+03  0.00000000000E+00 0.  1.
</event>
<event>
12    1  0.1681255E-001  0.2445468E+03  0.7818608E-02  0.1117036E+00
         21   -1    0    0  501  502  0.00000000000E+00  0.00000000000E+00  0.29369168255E+03  0.29369168255E+03  0.00000000000E+00 0.  1.
         21   -1    0    0  502  503 -0.00000000000E+00 -0.00000000000E+00 -0.22575590606E+03  0.22575590606E+03  0.00000000000E+00 0.  1.
         -6    2    1    2    0  503 -0.15731690874E+03  0.75022526464E+02 -0.49439972317E+02  0.24949438339E+03  0.17154051192E+03 0.  0.
        -24    2    3    3    0    0 -0.74378847275E+02  0.70630380162E+02  0.30123440465E+02  0.13438382940E+03  0.81429284742E+02 0.  0.
          6    2    1    2  501    0  0.15731690874E+03 -0.75022526464E+02  0.11737574880E+03  0.26995320521E+03  0.16947175972E+03 0.  0.
         24    2    5    5    0    0  0.16694437581E+03 -0.26958478326E+02  0.11644687923E+03  0.22070085862E+03  0.80943246442E+02 0.  0.
          5    1    5    5  501    0 -0.96274670739E+01 -0.48064048138E+02  0.92886956859E+00  0.49252346587E+02  0.47000000000E+01 0. -1.
        -11    1    6    6    0    0  0.93644898940E+02 -0.54085723752E+02  0.79682521878E+02  0.13432772202E+03  0.00000000000E+00 0.  1.
         12    1    6    6    0    0  0.73299476873E+02  0.27127245426E+02  0.36764357357E+02  0.86373136600E+02  0.00000000000E+00 0. -1.
         -5    1    3    3    0  503 -0.82938061464E+02  0.43921463022E+01 -0.79563412782E+02  0.11511055400E+03  0.47000000000E+01 0.  1.
         11    1    4    4    0    0  0.10559639316E+02 -0.94561899345E+01  0.44073861595E+01  0.14844209757E+02  0.00000000000E+00 0. -1.
        -12    1    4    4    0    0 -0.84938486591E+02  0.80086570096E+02  0.25716054306E+02  0.11953961964E+03  0.00000000000E+00 0.  1.
</event>
<event>
12    1  0.1681255E-001  0.2508938E+03  0.7818608E-02  0.1112838E+00
         21   -1    0    0  503  502  0.00000000000E+00  0.00000000000E+00  0.73505837384E+03  0.73505837384E+03  0.00000000000E+00 0. -1.
         21   -1    0    0  501  503 -0.00000000000E+00 -0.00000000000E+00 -0.18035239939E+03  0.18035239939E+03  0.00000000000E+00 0. -1.
          6    2    1    2  501    0  0.45701201368E+02  0.17670594489E+03 -0.54546281180E+02  0.25675470883E+03  0.17214555744E+03 0.  0.
         24    2    3    3    0    0  0.56675236747E+02  0.17220546676E+03  0.14575407883E-01  0.20072203240E+03  0.86154099351E+02 0.  0.
         -6    2    1    2    0  502 -0.45701201368E+02 -0.17670594489E+03  0.60925225563E+03  0.65865606440E+03  0.17124809316E+03 0.  0.
        -24    2    5    5    0    0 -0.32784584237E+02 -0.91182236966E+02  0.17316305635E+03  0.21404722132E+03  0.80260448341E+02 0.  0.
          5    1    3    3  501    0 -0.10974035379E+02  0.45004781283E+01 -0.54560856588E+02  0.56032676427E+02  0.47000000000E+01 0. -1.
        -11    1    4    4    0    0  0.13832929348E+02  0.33703877582E+02  0.36135619416E+02  0.51313587762E+02  0.00000000000E+00 0.  1.
         12    1    4    4    0    0  0.42842307399E+02  0.13850158918E+03 -0.36121044008E+02  0.14940844464E+03  0.00000000000E+00 0. -1.
         -5    1    5    5    0  502 -0.12916617131E+02 -0.85523707924E+02  0.43608919929E+03  0.44460884308E+03  0.47000000000E+01 0.  1.
         11    1    6    6    0    0 -0.31847424012E+02 -0.31628044355E+02  0.13746494973E+03  0.14460706764E+03  0.00000000000E+00 0. -1.
        -12    1    6    6    0    0 -0.93716022474E+00 -0.59554192611E+02  0.35698106613E+02  0.69440153676E+02  0.00000000000E+00 0.  1.
</event>
<event>
12    1  0.1681255E-001  0.2112715E+03  0.7818608E-02  0.1141549E+00
         21   -1    0    0  501  502  0.00000000000E+00  0.00000000000E+00  0.35018995453E+03  0.35018995453E+03  0.00000000000E+00 0. -1.
         21   -1    0    0  502  503 -0.00000000000E+00 -0.00000000000E+00 -0.22791377463E+03  0.22791377463E+03  0.00000000000E+00 0. -1.
         -6    2    1    2    0  503  0.11229729131E+03 -0.48570015796E+02 -0.13396706740E+03  0.24599495355E+03  0.16612228615E+03 0.  0.
        -24    2    3    3    0    0  0.13727266633E+03 -0.55713880753E+02 -0.13492991063E+03  0.21957864739E+03  0.89782404626E+02 0.  0.
          6    2    1    2  501    0 -0.11229729131E+03  0.48570015796E+02  0.25624324730E+03  0.33210877562E+03  0.17223794294E+03 0.  0.
         24    2    5    5    0    0  0.87628963677E+01  0.16128392889E+02  0.78881023681E+02  0.11488199020E+03  0.81478477925E+02 0.  0.
          5    1    5    5  501    0 -0.12106018768E+03  0.32441622907E+02  0.17736222361E+03  0.21722678542E+03  0.47000000000E+01 0. -1.
        -13    1    6    6    0    0  0.27288372204E+02  0.14958397471E+02 -0.26808286012E+01  0.31234528241E+02  0.00000000000E+00 0.  1.
         14    1    6    6    0    0 -0.18525475836E+02  0.11699954181E+01  0.81561852282E+02  0.83647461958E+02  0.00000000000E+00 0. -1.
         -5    1    3    3    0  503 -0.24975375017E+02  0.71438649566E+01  0.96284323032E+00  0.26416306154E+02  0.47000000000E+01 0.  1.
         11    1    4    4    0    0  0.53291805282E+02 -0.39090868435E+02 -0.11347807397E+03  0.13132168814E+03  0.00000000000E+00 0. -1.
        -12    1    4    4    0    0  0.83980861045E+02 -0.16623012318E+02 -0.21451836661E+02  0.88256959253E+02  0.00000000000E+00 0.  1.
</event>
<event>
12    1  0.1681255E-001  0.1762000E+03  0.7818608E-02  0.1171979E+00
         21   -1    0    0  501  502  0.00000000000E+00  0.00000000000E+00  0.57074173832E+03  0.57074173832E+03  0.00000000000E+00 0.  1.
         21   -1    0    0  502  503 -0.00000000000E+00 -0.00000000000E+00 -0.60700932124E+02  0.60700932124E+02  0.00000000000E+00 0.  1.
         -6    2    1    2    0  503  0.36961381193E+02  0.19926156419E+01  0.14778077666E+03  0.22860430061E+03  0.17044252429E+03 0.  0.
        -24    2    3    3    0    0 -0.51619955062E+01 -0.14092667884E+02  0.11754895741E+02  0.85222832166E+02  0.83063253385E+02 0.  0.
          6    2    1    2  501    0 -0.36961381193E+02 -0.19926156419E+01  0.36226002954E+03  0.40283836984E+03  0.17226813112E+03 0.  0.
         24    2    5    5    0    0 -0.57574063532E+02  0.33680827534E+01  0.10202997200E+03  0.14169589416E+03  0.79633500878E+02 0.  0.
          5    1    5    5  501    0  0.20612682339E+02 -0.53606983952E+01  0.26023005754E+03  0.26114247569E+03  0.47000000000E+01 0. -1.
        -11    1    6    6    0    0 -0.16850622093E+02  0.20188113823E+02  0.93096361027E+02  0.96739008891E+02  0.00000000000E+00 0.  1.
         12    1    6    6    0    0 -0.40723441439E+02 -0.16820031070E+02  0.89336109690E+01  0.44956885265E+02  0.00000000000E+00 0. -1.
         -5    1    3    3    0  503  0.42123376699E+02  0.16085283526E+02  0.13602588092E+03  0.14338146844E+03  0.47000000000E+01 0.  1.
         11    1    4    4    0    0 -0.27267402482E+02  0.24519829988E+02  0.17005321242E+02  0.40421705200E+02  0.00000000000E+00 0. -1.
        -12    1    4    4    0    0  0.22105406976E+02 -0.38612497872E+02 -0.52504255006E+01  0.44801126966E+02  0.00000000000E+00 0.  1.
</event>
<event>
12    1  0.1681255E-001  0.2306868E+03  0.7818608E-02  0.1126364E+00
         21   -1    0    0  503  502  0.00000000000E+00  0.00000000000E+00  0.14154745108E+03  0.14154745108E+03  0.00000000000E+00 0. -1.
         21   -1    0    0  501  503 -0.00000000000E+00 -0.00000000000E+00 -0.59306869167E+03  0.59306869167E+03  0.00000000000E+00 0. -1.
          6    2    1    2  501    0  0.14167612245E+03 -0.55210586380E+02 -0.44860921214E+03  0.50391093211E+03  0.17191762493E+03 0.  0.
         24    2    3    3    0    0  0.12736717407E+03 -0.68671289627E+02 -0.22339619920E+03  0.27779386567E+03  0.79532552699E+02 0.  0.
         -6    2    1    2    0  502 -0.14167612245E+03  0.55210586380E+02 -0.29120284506E+01  0.23070521064E+03  0.17348222326E+03 0.  0.
        -24    2    5    5    0    0 -0.14962094364E+03  0.12922276984E+02 -0.37200932677E+02  0.17548528445E+03  0.82811615419E+02 0.  0.
          5    1    3    3  501    0  0.14308948377E+02  0.13460703247E+02 -0.22521301294E+03  0.22611706644E+03  0.47000000000E+01 0. -1.
        -13    1    4    4    0    0  0.76569723963E+02  0.37354653849E+01 -0.10239061785E+03  0.12790901044E+03  0.00000000000E+00 0.  1.
         14    1    4    4    0    0  0.50797450108E+02 -0.72406755012E+02 -0.12100558136E+03  0.14988485523E+03  0.00000000000E+00 0. -1.
         -5    1    5    5    0  502  0.79448211932E+01  0.42288309396E+02  0.34288904227E+02  0.55219926190E+02  0.47000000000E+01 0.  1.
         11    1    6    6    0    0 -0.14557727658E+03  0.33974657641E+02 -0.27686142955E+02  0.15203138929E+03  0.00000000000E+00 0. -1.
        -12    1    6    6    0    0 -0.40436670596E+01 -0.21052380657E+02 -0.95147897226E+01  0.23453895158E+02  0.00000000000E+00 0.  1.
</event>
<event>
12    1  0.1681255E-001  0.2341409E+03  0.7818608E-02  0.1124150E+00
         21   -1    0    0  503  502  0.00000000000E+00  0.00000000000E+00  0.63013260653E+03  0.63013260653E+03  0.00000000000E+00 0.  1.
         21   -1    0    0  501  503 -0.00000000000E+00 -0.00000000000E+00 -0.88490915964E+02  0.88490915964E+02  0.00000000000E+00 0. -1.
          6    2    1    2  501    0 -0.19489175944E+02  0.15775103528E+03  0.33040692223E+03  0.40495767487E+03  0.17192081627E+03 0.  0.
         24    2    3    3    0    0  0.91317663595E+01  0.53686531749E+02  0.62700116048E+02  0.11627514455E+03  0.81381643143E+02 0.  0.
         -6    2    1    2    0  502  0.19489175944E+02 -0.15775103528E+03  0.21123476834E+03  0.31366584763E+03  0.16882215347E+03 0.  0.
        -24    2    5    5    0    0 -0.35105685735E+02 -0.11800020352E+03  0.83271422671E+02  0.16889901655E+03  0.80226496587E+02 0.  0.
          5    1    3    3  501    0 -0.28620942303E+02  0.10406450353E+03  0.26770680618E+03  0.28868253031E+03  0.47000000000E+01 0. -1.
        -13    1    4    4    0    0  0.18121766542E+02  0.40919867401E+02  0.80803006540E+02  0.92368608502E+02  0.00000000000E+00 0.  1.
         14    1    4    4    0    0 -0.89900001821E+01  0.12766664349E+02 -0.18102890492E+02  0.23906536053E+02  0.00000000000E+00 0. -1.
         -5    1    5    5    0  502  0.54594861679E+02 -0.39750831754E+02  0.12796334567E+03  0.14476683108E+03  0.47000000000E+01 0.  1.
         13    1    6    6    0    0 -0.22185943102E+02 -0.56891506231E+02 -0.44351838442E+01  0.61225243228E+02  0.00000000000E+00 0. -1.
        -14    1    6    6    0    0 -0.12919742633E+02 -0.61108697291E+02  0.87706606515E+02  0.10767377332E+03  0.00000000000E+00 0.  1.
</event>
<event>
12    1  0.1681255E-001  0.1786610E+03  0.7818608E-02  0.1169145E+00
         21   -1    0    0  503  502  0.00000000000E+00  0.00000000000E+00  0.34996316006E+02  0.34996316006E+02  0.00000000000E+00 0.  1.
         21   -1    0    0  501  503 -0.00000000000E+00 -0.00000000000E+00 -0.12099513893E+04  0.12099513893E+04  0.00000000000E+00 0.  1.
          6    2    1    2  501    0  0.28541965967E+02  0.39140097822E+02 -0.89695045792E+03  0.91457086850E+03  0.17196848101E+03 0.  0.
         24    2    3    3    0    0  0.66117473921E+02  0.72783254805E+02 -0.59213951861E+03  0.60557963960E+03  0.80178350350E+02 0.  0.
         -6    2    1    2    0  502 -0.28541965967E+02 -0.39140097822E+02 -0.27800461542E+03  0.33037683686E+03  0.17180133020E+03 0.  0.
        -24    2    5    5    0    0 -0.42239880348E+01  0.42953878232E+02 -0.16780265423E+03  0.19074393527E+03  0.79766160408E+02 0.  0.
          5    1    3    3  501    0 -0.37575507954E+02 -0.33643156983E+02 -0.30481093931E+03  0.30899122889E+03  0.47000000000E+01 0. -1.
        -13    1    4    4    0    0 -0.13243508190E+02  0.31523748941E+02 -0.10924223858E+03  0.11446835347E+03  0.00000000000E+00 0.  1.
         14    1    4    4    0    0  0.79360982111E+02  0.41259505864E+02 -0.48289728003E+03  0.49111128613E+03  0.00000000000E+00 0. -1.
         -5    1    5    5    0  502 -0.24317977932E+02 -0.82093976053E+02 -0.11020196119E+03  0.13963290159E+03  0.47000000000E+01 0.  1.
         13    1    6    6    0    0  0.88111157292E+01  0.63808789634E+02 -0.10360473576E+03  0.12199646989E+03  0.00000000000E+00 0. -1.
        -14    1    6    6    0    0 -0.13035103764E+02 -0.20854911403E+02 -0.64197918470E+02  0.68747465377E+02  0.00000000000E+00 0.  1.
</event>
<event>
12    1  0.1681255E-001  0.1742716E+03  0.7818608E-02  0.1173948E+00
         21   -1    0    0  503  502  0.00000000000E+00  0.00000000000E+00  0.77449884257E+02  0.77449884257E+02  0.00000000000E+00 0. -1.
         21   -1    0    0  501  503 -0.00000000000E+00 -0.00000000000E+00 -0.68954146707E+03  0.68954146707E+03  0.00000000000E+00 0. -1.
          6    2    1    2  501    0 -0.22437058672E+02  0.18760152871E+02 -0.56064678688E+03  0.58710767514E+03  0.17179999311E+03 0.  0.
         24    2    3    3    0    0 -0.27156804150E+02 -0.12196103817E+02 -0.16645980383E+03  0.19165093487E+03  0.90194110579E+02 0.  0.
         -6    2    1    2    0  502  0.22437058672E+02 -0.18760152871E+02 -0.51444795937E+02  0.17988367619E+03  0.16987114232E+03 0.  0.
        -24    2    5    5    0    0  0.49655772729E+02 -0.66627073301E+02 -0.21096640201E+02  0.11683448093E+03  0.79374838860E+02 0.  0.
          5    1    3    3  501    0  0.47197454780E+01  0.30956256688E+02 -0.39418698304E+03  0.39545674027E+03  0.47000000000E+01 0. -1.
        -13    1    4    4    0    0 -0.36490013834E+02  0.26517409619E+02 -0.44537615234E+02  0.63390009412E+02  0.00000000000E+00 0.  1.
         14    1    4    4    0    0  0.93332096842E+01 -0.38713513436E+02 -0.12192218860E+03  0.12826092546E+03  0.00000000000E+00 0. -1.
         -5    1    5    5    0  502 -0.27218714058E+02  0.47866920430E+02 -0.30348155736E+02  0.63049195260E+02  0.47000000000E+01 0.  1.
         13    1    6    6    0    0  0.53507833599E+01  0.31128063056E+00  0.24116320946E+02  0.24704750842E+02  0.00000000000E+00 0. -1.
        -14    1    6    6    0    0  0.44304989369E+02 -0.66938353932E+02 -0.45212961147E+02  0.92129730087E+02  0.00000000000E+00 0.  1.
</event>
<event>
12    1  0.1681255E-001  0.3148979E+03  0.7818608E-02  0.1078061E+00
         21   -1    0    0  501  502  0.00000000000E+00  0.00000000000E+00  0.50332427810E+02  0.50332427810E+02  0.00000000000E+00 0.  1.
         21   -1    0    0  502  503 -0.00000000000E+00 -0.00000000000E+00 -0.21434302689E+04  0.21434302689E+04  0.00000000000E+00 0. -1.
         -6    2    1    2    0  503  0.59009811123E+02  0.25741348854E+03 -0.13598195525E+04  0.13957290342E+04  0.17089897537E+03 0.  0.
        -24    2    3    3    0    0 -0.26815828957E+01  0.10857150102E+03 -0.86125620831E+03  0.87175645527E+03  0.80013119135E+02 0.  0.
          6    2    1    2  501    0 -0.59009811123E+02 -0.25741348854E+03 -0.73327828858E+03  0.79803366246E+03  0.17151331149E+03 0.  0.
         24    2    5    5    0    0 -0.59976536425E+01 -0.10593194359E+03 -0.20220692228E+03  0.24322213283E+03  0.83736598676E+02 0.  0.
          5    1    5    5  501    0 -0.53012157481E+02 -0.15148154495E+03 -0.53107136631E+03  0.55481152963E+03  0.47000000000E+01 0. -1.
        -13    1    6    6    0    0 -0.40296119650E+02 -0.60480722012E+02 -0.78138252616E+02  0.10671120614E+03  0.00000000000E+00 0.  1.
         14    1    6    6    0    0  0.34298466007E+02 -0.45451221580E+02 -0.12406866966E+03  0.13651092669E+03  0.00000000000E+00 0. -1.
         -5    1    3    3    0  503  0.61691394019E+02  0.14884198753E+03 -0.49856334416E+03  0.52397257895E+03  0.47000000000E+01 0.  1.
         13    1    4    4    0    0  0.31786311910E+02  0.77865984029E+02 -0.65625370267E+03  0.66162104211E+03  0.00000000000E+00 0. -1.
        -14    1    4    4    0    0 -0.34467894806E+02  0.30705516988E+02 -0.20500250564E+03  0.21013541316E+03  0.00000000000E+00 0.  1.
</event>
<event>
12    1  0.1681255E-001  0.2360164E+03  0.7818608E-02  0.1122597E+00
         21   -1    0    0  503  502  0.00000000000E+00  0.00000000000E+00  0.12117955089E+03  0.12117955089E+03  0.00000000000E+00 0. -1.
         21   -1    0    0  501  503 -0.00000000000E+00 -0.00000000000E+00 -0.54298557172E+03  0.54298557172E+03  0.00000000000E+00 0.  1.
          6    2    1    2  501    0 -0.18372164643E+02 -0.15837822760E+03 -0.34232403539E+03  0.41579983352E+03  0.17401884076E+03 0.  0.
         24    2    3    3    0    0 -0.66588100384E+02 -0.50656358788E+02 -0.14499562381E+03  0.18582294448E+03  0.80662221457E+02 0.  0.
         -6    2    1    2    0  502  0.18372164643E+02  0.15837822760E+03 -0.79481985438E+02  0.24836528909E+03  0.17305123925E+03 0.  0.
        -24    2    5    5    0    0  0.19733521683E+01  0.13572133610E+03  0.48698879780E+01  0.15937324264E+03  0.83378291360E+02 0.  0.
          5    1    3    3  501    0  0.48215935740E+02 -0.10772186881E+03 -0.19732841158E+03  0.22997688905E+03  0.47000000000E+01 0. -1.
        -13    1    4    4    0    0 -0.28362848318E+02  0.40439256178E+00 -0.10890078809E+03  0.11253442294E+03  0.00000000000E+00 0.  1.
         14    1    4    4    0    0 -0.38225252065E+02 -0.51060751350E+02 -0.36094835718E+02  0.73288521539E+02  0.00000000000E+00 0. -1.
         -5    1    5    5    0  502  0.16398812475E+02  0.22656891502E+02 -0.84351873416E+02  0.88992046453E+02  0.47000000000E+01 0.  1.
         11    1    6    6    0    0  0.15014261512E+02  0.14308112857E+03  0.79466841160E+01  0.14408604093E+03  0.00000000000E+00 0. -1.
        -12    1    6    6    0    0 -0.13040909343E+02 -0.73597924732E+01 -0.30767961380E+01  0.15287201713E+02  0.00000000000E+00 0.  1.
</event>
<event>
12    1  0.1681255E-001  0.3157727E+03  0.7818608E-02  0.1078077E+00
         21   -1    0    0  501  502  0.00000000000E+00  0.00000000000E+00  0.39924289226E+03  0.39924289226E+03  0.00000000000E+00 0.  1.
         21   -1    0    0  502  503 -0.00000000000E+00 -0.00000000000E+00 -0.56642597959E+03  0.56642597959E+03  0.00000000000E+00 0. -1.
         -6    2    1    2    0  503  0.12046037141E+03 -0.23085261392E+03 -0.44615244348E+03  0.54431827051E+03  0.17154225824E+03 0.  0.
        -24    2    3    3    0    0  0.11045030107E+03 -0.10646840286E+03 -0.33636206046E+03  0.37804244042E+03  0.79005450654E+02 0.  0.
          6    2    1    2  501    0 -0.12046037141E+03  0.23085261392E+03  0.27896935615E+03  0.42135060134E+03  0.17863033658E+03 0.  0.
         24    2    5    5    0    0 -0.15259128959E+03  0.22374581814E+03  0.24683968372E+03  0.37511956955E+03  0.80240695475E+02 0.  0.
          5    1    5    5  501    0  0.32130918181E+02  0.71067957772E+01  0.32129672434E+02  0.46231031787E+02  0.47000000000E+01 0. -1.
        -11    1    6    6    0    0 -0.28559726127E+00  0.50840647512E+02  0.31951521910E+02  0.60047920511E+02  0.00000000000E+00 0.  1.
         12    1    6    6    0    0 -0.15230569233E+03  0.17290517063E+03  0.21488816181E+03  0.31507164904E+03  0.00000000000E+00 0. -1.
         -5    1    3    3    0  503  0.10010070342E+02 -0.12438421106E+03 -0.10979038302E+03  0.16627583009E+03  0.47000000000E+01 0.  1.
         11    1    4    4    0    0  0.11246612607E+03 -0.91072549205E+02 -0.23861505497E+03  0.27906985360E+03  0.00000000000E+00 0. -1.
        -12    1    4    4    0    0 -0.20158250011E+01 -0.15395853655E+02 -0.97747005492E+02  0.98972586825E+02  0.00000000000E+00 0.  1.
</event>
<event>
12    1  0.1681255E-001  0.1873931E+03  0.7818608E-02  0.1160897E+00
         21   -1    0    0  501  502  0.00000000000E+00  0.00000000000E+00  0.16218734757E+03  0.16218734757E+03  0.00000000000E+00 0. -1.
         21   -1    0    0  502  503 -0.00000000000E+00 -0.00000000000E+00 -0.30098580538E+03  0.30098580538E+03  0.00000000000E+00 0. -1.
         -6    2    1    2    0  503  0.54376896906E+02 -0.50913991716E+02 -0.19234933994E+03  0.26854130226E+03  0.17195080975E+03 0.  0.
        -24    2    3    3    0    0  0.85458086276E+01 -0.54990054078E+02 -0.19929937939E+03  0.22177062784E+03  0.79781149736E+02 0.  0.
          6    2    1    2  501    0 -0.54376896906E+02  0.50913991716E+02  0.53550882127E+02  0.19463185070E+03  0.17165307705E+03 0.  0.
         24    2    5    5    0    0 -0.94808236529E+02  0.65920716792E+02  0.18582875952E+02  0.13891159875E+03  0.74946423349E+02 0.  0.
          5    1    5    5  501    0  0.40431339623E+02 -0.15006725076E+02  0.34968006175E+02  0.55720251947E+02  0.47000000000E+01 0. -1.
        -11    1    6    6    0    0 -0.25009152898E+02  0.15133862842E+02  0.40409871873E+02  0.49874334862E+02  0.00000000000E+00 0.  1.
         12    1    6    6    0    0 -0.69799083631E+02  0.50786853950E+02 -0.21826995921E+02  0.89037263889E+02  0.00000000000E+00 0. -1.
         -5    1    3    3    0  503  0.45831088278E+02  0.40760623614E+01  0.69500394533E+01  0.46770674418E+02  0.47000000000E+01 0.  1.
         13    1    4    4    0    0  0.54580271335E+00 -0.17643047193E+01  0.76844101604E+01  0.79032165134E+01  0.00000000000E+00 0. -1.
        -14    1    4    4    0    0  0.80000059143E+01 -0.53225749359E+02 -0.20698378955E+03  0.21386741132E+03  0.00000000000E+00 0.  1.
</event>
<event>
12    1  0.1681255E-001  0.1922188E+03  0.7818608E-02  0.1156486E+00
         21   -1    0    0  503  502  0.00000000000E+00  0.00000000000E+00  0.37580484127E+03  0.37580484127E+03  0.00000000000E+00 0. -1.
         21   -1    0    0  501  503 -0.00000000000E+00 -0.00000000000E+00 -0.10727491655E+03  0.10727491655E+03  0.00000000000E+00 0.  1.
          6    2    1    2  501    0  0.23221933853E+02  0.84128663638E+02  0.64352876054E+02  0.20265802686E+03  0.17120774789E+03 0.  0.
         24    2    3    3    0    0 -0.44529067240E+02  0.50477170752E+02  0.58276885574E+01  0.10689838664E+03  0.82840331463E+02 0.  0.
         -6    2    1    2    0  502 -0.23221933853E+02 -0.84128663638E+02  0.20417704867E+03  0.28042173096E+03  0.17126350964E+03 0.  0.
        -24    2    5    5    0    0 -0.34305885716E+02 -0.12317443919E+03  0.14502222758E+03  0.20852729838E+03  0.78123949039E+02 0.  0.
          5    1    3    3  501    0  0.67751001093E+02  0.33651492885E+02  0.58525187497E+02  0.95759640215E+02  0.47000000000E+01 0. -1.
        -13    1    4    4    0    0 -0.30402197836E+01  0.57024223980E+02 -0.16351197600E+02  0.59400056564E+02  0.00000000000E+00 0.  1.
         14    1    4    4    0    0 -0.41488847456E+02 -0.65470532280E+01  0.22178886157E+02  0.47498330080E+02  0.00000000000E+00 0. -1.
         -5    1    5    5    0  502  0.11083951863E+02  0.39045775556E+02  0.59154821091E+02  0.71894432580E+02  0.47000000000E+01 0.  1.
         11    1    6    6    0    0 -0.37979862102E+02 -0.54678019870E+02  0.11662027141E+03  0.13428493395E+03  0.00000000000E+00 0. -1.
        -12    1    6    6    0    0  0.36739763857E+01 -0.68496419324E+02  0.28401956173E+02  0.74242364436E+02  0.00000000000E+00 0.  1.
</event>
<event>
12    1  0.1681255E-001  0.2429531E+03  0.7818608E-02  0.1118000E+00
         21   -1    0    0  503  502  0.00000000000E+00  0.00000000000E+00  0.34712762270E+03  0.34712762270E+03  0.00000000000E+00 0. -1.
         21   -1    0    0  501  503 -0.00000000000E+00 -0.00000000000E+00 -0.31727519673E+03  0.31727519673E+03  0.00000000000E+00 0. -1.
          6    2    1    2  501    0 -0.87605981712E+02  0.14768087086E+03  0.24173003488E+03  0.34203917341E+03  0.17050788468E+03 0.  0.
         24    2    3    3    0    0 -0.64187563421E+02  0.11068109743E+02  0.11212864100E+03  0.15222326231E+03  0.79727931767E+02 0.  0.
         -6    2    1    2    0  502  0.87605981712E+02 -0.14768087086E+03 -0.21187760891E+03  0.32236364601E+03  0.17187714062E+03 0.  0.
        -24    2    5    5    0    0  0.34317816614E+02 -0.16068827440E+03 -0.13014967473E+03  0.22382245508E+03  0.78480057956E+02 0.  0.
          5    1    3    3  501    0 -0.23418418291E+02  0.13661276111E+03  0.12960139388E+03  0.18981591111E+03  0.47000000000E+01 0. -1.
        -13    1    4    4    0    0 -0.17177563845E+02 -0.20745337233E+02  0.85277488634E+02  0.89429792487E+02  0.00000000000E+00 0.  1.
         14    1    4    4    0    0 -0.47009999576E+02  0.31813446976E+02  0.26851152365E+02  0.62793469819E+02  0.00000000000E+00 0. -1.
         -5    1    5    5    0  502  0.53288165097E+02  0.13007403548E+02 -0.81727934176E+02  0.98541190937E+02  0.47000000000E+01 0.  1.
         13    1    6    6    0    0 -0.16249596927E+02 -0.18465519036E+02 -0.12591624823E+00  0.24597574035E+02  0.00000000000E+00 0. -1.
        -14    1    6    6    0    0  0.50567413541E+02 -0.14222275537E+03 -0.13002375848E+03  0.19922488104E+03  0.00000000000E+00 0.  1.
</event>
<event>
12    1  0.1681255E-001  0.1907235E+03  0.7818608E-02  0.1158711E+00
         21   -1    0    0  501  502  0.00000000000E+00  0.00000000000E+00  0.34683895312E+02  0.34683895312E+02  0.00000000000E+00 0.  1.
         21   -1    0    0  502  503 -0.00000000000E+00 -0.00000000000E+00 -0.14139752863E+04  0.14139752863E+04  0.00000000000E+00 0.  1.
         -6    2    1    2    0  503 -0.68928720383E+02 -0.25621178518E+02 -0.10632632951E+04  0.10795396633E+04  0.17166664404E+03 0.  0.
        -24    2    3    3    0    0 -0.71535491824E+02 -0.15616783525E+02 -0.10627577242E+04  0.10681717797E+04  0.78586004282E+02 0.  0.
          6    2    1    2  501    0  0.68928720383E+02  0.25621178518E+02 -0.31602809593E+03  0.36911951834E+03  0.17597683973E+03 0.  0.
         24    2    5    5    0    0  0.83463063252E+02 -0.42357267409E+00 -0.11031765808E+03  0.16120499160E+03  0.82769567431E+02 0.  0.
          5    1    5    5  501    0 -0.14534342868E+02  0.26044751192E+02 -0.20571043785E+03  0.20791452674E+03  0.47000000000E+01 0. -1.
        -11    1    6    6    0    0  0.77625990874E+02  0.16681458334E+02 -0.11745468484E+03  0.14177329968E+03  0.00000000000E+00 0.  1.
         12    1    6    6    0    0  0.58370723775E+01 -0.17105031008E+02  0.71370267672E+01  0.19431691919E+02  0.00000000000E+00 0. -1.
         -5    1    3    3    0  503  0.26067714401E+01 -0.10004394992E+02 -0.50557092197E+00  0.11367883640E+02  0.47000000000E+01 0.  1.
         11    1    4    4    0    0 -0.99474208924E+01  0.18792638508E+02 -0.76676343270E+02  0.79569944463E+02  0.00000000000E+00 0. -1.
        -12    1    4    4    0    0 -0.61588070931E+02 -0.34409422034E+02 -0.98608138090E+03  0.98860183520E+03  0.00000000000E+00 0.  1.
</event>
<event>
12    1  0.1681255E-001  0.1809775E+03  0.7818608E-02  0.1167652E+00
         21   -1    0    0  501  502  0.00000000000E+00  0.00000000000E+00  0.58565707293E+02  0.58565707293E+02  0.00000000000E+00 0. -1.
         21   -1    0    0  502  503 -0.00000000000E+00 -0.00000000000E+00 -0.63142694480E+03  0.63142694480E+03  0.00000000000E+00 0. -1.
         -6    2    1    2    0  503 -0.61402038009E+01 -0.54806626492E+02 -0.15968393150E+03  0.23891800401E+03  0.16894196119E+03 0.  0.
        -24    2    3    3    0    0 -0.13012331337E+02  0.11812750627E+02 -0.20635021430E+02  0.84509270655E+02  0.80044680479E+02 0.  0.
          6    2    1    2  501    0  0.61402038009E+01  0.54806626492E+02 -0.41317730600E+03  0.45107464808E+03  0.17236990322E+03 0.  0.
         24    2    5    5    0    0  0.21466632914E+02  0.56415572773E+02 -0.11442731845E+03  0.15189053553E+03  0.79583857641E+02 0.  0.
          5    1    5    5  501    0 -0.15326429113E+02 -0.16089462810E+01 -0.29874998756E+03  0.29918411255E+03  0.47000000000E+01 0. -1.
        -13    1    6    6    0    0  0.56639831796E+01 -0.20020418290E+02 -0.33661704967E+02  0.39572821927E+02  0.00000000000E+00 0.  1.
         14    1    6    6    0    0  0.15802649734E+02  0.76435991063E+02 -0.80765613482E+02  0.11231771361E+03  0.00000000000E+00 0. -1.
         -5    1    3    3    0  503  0.68721275358E+01 -0.66619377119E+02 -0.13904891007E+03  0.15440873335E+03  0.47000000000E+01 0.  1.
         13    1    4    4    0    0 -0.38370757139E+02  0.22638478120E+02  0.74293511525E+01  0.45166480421E+02  0.00000000000E+00 0. -1.
        -14    1    4    4    0    0  0.25358425803E+02 -0.10825727493E+02 -0.28064372583E+02  0.39342790234E+02  0.00000000000E+00 0.  1.
</event>
<event>
12    1  0.1681255E-001  0.2966623E+03  0.7818608E-02  0.1087461E+00
         21   -1    0    0  503  502  0.00000000000E+00  0.00000000000E+00  0.11970753647E+03  0.11970753647E+03  0.00000000000E+00 0. -1.
         21   -1    0    0  501  503 -0.00000000000E+00 -0.00000000000E+00 -0.91612681181E+03  0.91612681181E+03  0.00000000000E+00 0.  1.
          6    2    1    2  501    0  0.18056423894E+03  0.15926456049E+03 -0.63265557188E+03  0.69697293138E+03  0.16598057067E+03 0.  0.
         24    2    3    3    0    0  0.19066113714E+03  0.99153151994E+02 -0.52768529800E+03  0.57549792497E+03  0.81012783892E+02 0.  0.
         -6    2    1    2    0  502 -0.18056423894E+03 -0.15926456049E+03 -0.16376370347E+03  0.33886141690E+03  0.17332012196E+03 0.  0.
        -24    2    5    5    0    0 -0.58771687087E+02 -0.12953448553E+03 -0.52841831603E+02  0.17140081048E+03  0.79703729652E+02 0.  0.
          5    1    3    3  501    0 -0.10096898203E+02  0.60111408492E+02 -0.10497027388E+03  0.12147500641E+03  0.47000000000E+01 0. -1.
        -13    1    4    4    0    0  0.10852160208E+02 -0.42891292879E+01 -0.94361853765E+02  0.95080626087E+02  0.00000000000E+00 0.  1.
         14    1    4    4    0    0  0.17980897693E+03  0.10344228128E+03 -0.43332344423E+03  0.48041729888E+03  0.00000000000E+00 0. -1.
         -5    1    5    5    0  502 -0.12179255185E+03 -0.29730074952E+02 -0.11092187186E+03  0.16746060642E+03  0.47000000000E+01 0.  1.
         13    1    6    6    0    0 -0.71685779501E+02 -0.98292832178E+02 -0.18222656485E+02  0.12301380837E+03  0.00000000000E+00 0. -1.
        -14    1    6    6    0    0  0.12914092415E+02 -0.31241653356E+02 -0.34619175119E+02  0.48387002110E+02  0.00000000000E+00 0.  1.
</event>
<event>
12    1  0.1681255E-001  0.1773719E+03  0.7818608E-02  0.1171149E+00
         21   -1    0    0  501  502  0.00000000000E+00  0.00000000000E+00  0.16567041190E+03  0.16567041190E+03  0.00000000000E+00 0. -1.
         21   -1    0    0  502  503 -0.00000000000E+00 -0.00000000000E+00 -0.18909954406E+03  0.18909954406E+03  0.00000000000E+00 0. -1.
         -6    2    1    2    0  503  0.20711716604E+02  0.38650973409E+02  0.89076297442E+01  0.17447445123E+03  0.16863900888E+03 0.  0.
        -24    2    3    3    0    0  0.26080114609E+02  0.21209518161E+02 -0.58388200857E+02  0.10458995457E+03  0.79999128484E+02 0.  0.
          6    2    1    2  501    0 -0.20711716604E+02 -0.38650973409E+02 -0.32336761904E+02  0.18029550473E+03  0.17186602312E+03 0.  0.
         24    2    5    5    0    0  0.31251928296E+02  0.27664517839E+01 -0.63635903644E+02  0.10669285685E+03  0.79683757396E+02 0.  0.
          5    1    5    5  501    0 -0.51963644900E+02 -0.41417425193E+02  0.31299141739E+02  0.73602647877E+02  0.47000000000E+01 0. -1.
        -13    1    6    6    0    0  0.35504283631E+02 -0.66355256768E+01  0.57238163764E+01  0.36569747484E+02  0.00000000000E+00 0.  1.
         14    1    6    6    0    0 -0.42523553345E+01  0.94019774606E+01 -0.69359720020E+02  0.70123109367E+02  0.00000000000E+00 0. -1.
         -5    1    3    3    0  503 -0.53683980043E+01  0.17441455248E+02  0.67295830601E+02  0.69884496669E+02  0.47000000000E+01 0.  1.
         11    1    4    4    0    0 -0.54368514130E+01 -0.20095617142E+02 -0.46994610171E+02  0.51399285663E+02  0.00000000000E+00 0. -1.
        -12    1    4    4    0    0  0.31516966022E+02  0.41305135303E+02 -0.11393590687E+02  0.53190668903E+02  0.00000000000E+00 0.  1.
</event>
<event>
12    1  0.1681255E-001  0.2311778E+03  0.7818608E-02  0.1126099E+00
         21   -1    0    0  501  502  0.00000000000E+00  0.00000000000E+00  0.71696740698E+02  0.71696740698E+02  0.00000000000E+00 0.  1.
         21   -1    0    0  502  503 -0.00000000000E+00 -0.00000000000E+00 -0.76882686427E+03  0.76882686427E+03  0.00000000000E+00 0. -1.
         -6    2    1    2    0  503 -0.10875680613E+03 -0.11062078111E+03 -0.26623599356E+03  0.35153184753E+03  0.16919821354E+03 0.  0.
        -24    2    3    3    0    0 -0.11260051322E+03 -0.21696315188E+02 -0.18174614816E+03  0.22871914989E+03  0.78301861325E+02 0.  0.
          6    2    1    2  501    0  0.10875680613E+03  0.11062078111E+03 -0.43089413001E+03  0.48899175743E+03  0.17140066357E+03 0.  0.
         24    2    5    5    0    0  0.13401465066E+03  0.12626365590E+03 -0.38348733211E+03  0.43284772188E+03  0.79951104158E+02 0.  0.
          5    1    5    5  501    0 -0.25257844526E+02 -0.15642874788E+02 -0.47406797894E+02  0.56144035554E+02  0.47000000000E+01 0. -1.
        -13    1    6    6    0    0  0.11911837809E+03  0.13754007664E+03 -0.35160141740E+03  0.39589142122E+03  0.00000000000E+00 0.  1.
         14    1    6    6    0    0  0.14896272570E+02 -0.11276420744E+02 -0.31885914712E+02  0.36956300657E+02  0.00000000000E+00 0. -1.
         -5    1    3    3    0  503  0.38437070949E+01 -0.88924465922E+02 -0.84489845407E+02  0.12281269764E+03  0.47000000000E+01 0.  1.
         11    1    4    4    0    0  0.31817307696E+01 -0.20800608301E+02 -0.44007059525E+02  0.48779196430E+02  0.00000000000E+00 0. -1.
        -12    1    4    4    0    0 -0.11578224399E+03 -0.89570688721E+00 -0.13773908863E+03  0.17993995346E+03  0.00000000000E+00 0.  1.
</event>
<event>
12    1  0.1681255E-001  0.2102099E+03  0.7818608E-02  0.1141693E+00
         21   -1    0    0  503  502  0.00000000000E+00  0.00000000000E+00  0.93475863539E+02  0.93475863539E+02  0.00000000000E+00 0.  1.
         21   -1    0    0  501  503 -0.00000000000E+00 -0.00000000000E+00 -0.54367290995E+03  0.54367290995E+03  0.00000000000E+00 0.  1.
          6    2    1    2  501    0  0.89440864038E+02  0.79310683760E+02 -0.34215447880E+03  0.40079863453E+03  0.17111401275E+03 0.  0.
         24    2    3    3    0    0  0.11298271251E+03  0.90705780496E+02 -0.33453714487E+03  0.37315481722E+03  0.79603921862E+02 0.  0.
         -6    2    1    2    0  502 -0.89440864038E+02 -0.79310683760E+02 -0.10804256761E+03  0.23635013896E+03  0.17291136184E+03 0.  0.
        -24    2    5    5    0    0  0.21214695240E+02 -0.33854472768E+02 -0.58081430864E+02  0.10662302112E+03  0.79992670925E+02 0.  0.
          5    1    3    3  501    0 -0.23541848472E+02 -0.11395096736E+02 -0.76173339285E+01  0.27643817306E+02  0.47000000000E+01 0. -1.
        -13    1    4    4    0    0  0.85270688402E+01  0.52710799531E+02 -0.92262651281E+02  0.10659988795E+03  0.00000000000E+00 0.  1.
         14    1    4    4    0    0  0.10445564367E+03  0.37994980965E+02 -0.24227449359E+03  0.26655492927E+03  0.00000000000E+00 0. -1.
         -5    1    5    5    0  502 -0.11065555928E+03 -0.45456210992E+02 -0.49961136745E+02  0.12972711784E+03  0.47000000000E+01 0.  1.
         11    1    6    6    0    0 -0.17033354445E+02 -0.43062829507E+02 -0.46468667536E+02  0.65603959571E+02  0.00000000000E+00 0. -1.
        -12    1    6    6    0    0  0.38248049685E+02  0.92083567390E+01 -0.11612763328E+02  0.41019061552E+02  0.00000000000E+00 0.  1.
</event>
<event>
12    1  0.1681255E-001  0.2136777E+03  0.7818608E-02  0.1138801E+00
         21   -1    0    0  503  502  0.00000000000E+00  0.00000000000E+00  0.87711466628E+03  0.87711466628E+03  0.00000000000E+00 0.  1.
         21   -1    0    0  501  503 -0.00000000000E+00 -0.00000000000E+00 -0.52442323660E+02  0.52442323660E+02  0.00000000000E+00 0. -1.
          6    2    1    2  501    0 -0.12371466179E+03  0.25955256111E+02  0.45855166983E+03  0.50564365112E+03  0.17154263362E+03 0.  0.
         24    2    3    3    0    0 -0.80984614392E+02  0.75193275510E+02  0.22254279727E+03  0.26075078182E+03  0.79076780116E+02 0.  0.
         -6    2    1    2    0  502  0.12371466179E+03 -0.25955256111E+02  0.36612067279E+03  0.42391333882E+03  0.17227646074E+03 0.  0.
        -24    2    5    5    0    0  0.80543113016E+02  0.52599546769E+02  0.20068914835E+03  0.23569984579E+03  0.77616864579E+02 0.  0.
          5    1    3    3  501    0 -0.42730047402E+02 -0.49238019399E+02  0.23600887256E+03  0.24489286930E+03  0.47000000000E+01 0. -1.
        -13    1    4    4    0    0 -0.84413656344E+02  0.34312400057E+02  0.12291318572E+03  0.15300541624E+03  0.00000000000E+00 0.  1.
         14    1    4    4    0    0  0.34290419523E+01  0.40880875453E+02  0.99629611550E+02  0.10774536558E+03  0.00000000000E+00 0. -1.
         -5    1    5    5    0  502  0.43171548778E+02 -0.78554802881E+02  0.16543152444E+03  0.18821349303E+03  0.47000000000E+01 0.  1.
         13    1    6    6    0    0  0.92834555368E+02  0.34554708018E+02  0.14247808872E+03  0.17352892636E+03  0.00000000000E+00 0. -1.
        -14    1    6    6    0    0 -0.12291442352E+02  0.18044838751E+02  0.58211059624E+02  0.62170919433E+02  0.00000000000E+00 0.  1.
</event>
<event>
12    1  0.1681255E-001  0.2633080E+03  0.7818608E-02  0.1105671E+00
         21   -1    0    0  503  502  0.00000000000E+00  0.00000000000E+00  0.52946617429E+03  0.52946617429E+03  0.00000000000E+00 0. -1.
         21   -1    0    0  501  503 -0.00000000000E+00 -0.00000000000E+00 -0.13248254952E+03  0.13248254952E+03  0.00000000000E+00 0. -1.
          6    2    1    2  501    0  0.10761471287E+03 -0.16675367038E+03  0.14829522654E+03  0.30219623891E+03  0.17304155451E+03 0.  0.
         24    2    3    3    0    0  0.70348013234E+02 -0.16821083218E+02  0.46623031660E+02  0.11718836663E+03  0.79546303403E+02 0.  0.
         -6    2    1    2    0  502 -0.10761471287E+03  0.16675367038E+03  0.24868839824E+03  0.35975248490E+03  0.16789347206E+03 0.  0.
        -24    2    5    5    0    0 -0.78882602071E+02  0.16178929846E+03  0.12739006998E+03  0.23491037014E+03  0.80971662088E+02 0.  0.
          5    1    3    3  501    0  0.37266699635E+02 -0.14993258716E+03  0.10167219488E+03  0.18500787228E+03  0.47000000000E+01 0. -1.
        -13    1    4    4    0    0  0.11733205672E+02  0.24762457057E+02  0.34899288358E+02  0.44371248830E+02  0.00000000000E+00 0.  1.
         14    1    4    4    0    0  0.58614807561E+02 -0.41583540275E+02  0.11723743302E+02  0.72817117797E+02  0.00000000000E+00 0. -1.
         -5    1    5    5    0  502 -0.28732110798E+02  0.49643719175E+01  0.12129832826E+03  0.12484211476E+03  0.47000000000E+01 0.  1.
         11    1    6    6    0    0 -0.77329928173E+02  0.74203476070E+02  0.88824883265E+02  0.13919746240E+03  0.00000000000E+00 0. -1.
        -12    1    6    6    0    0 -0.15526738975E+01  0.87585822394E+02  0.38565186716E+02  0.95712907735E+02  0.00000000000E+00 0.  1.
</event>
<event>
12    1  0.1681255E-001  0.1811038E+03  0.7818608E-02  0.1166818E+00
         21   -1    0    0  503  502  0.00000000000E+00  0.00000000000E+00  0.10414036749E+04  0.10414036749E+04  0.00000000000E+00 0.  1.
         21   -1    0    0  501  503 -0.00000000000E+00 -0.00000000000E+00 -0.18766087966E+03  0.18766087966E+03  0.00000000000E+00 0.  1.
          6    2    1    2  501    0 -0.40944632732E+02 -0.39495888204E+02 -0.13389384948E+03  0.22496060344E+03  0.17159056512E+03 0.  0.
         24    2    3    3    0    0 -0.91592620613E+01 -0.82975956318E+02 -0.46982243225E+02  0.12260561620E+03  0.76523882132E+02 0.  0.
         -6    2    1    2    0  502  0.40944632732E+02  0.39495888204E+02  0.98763664474E+03  0.10041039511E+04  0.17193665849E+03 0.  0.
        -24    2    5    5    0    0 -0.33271128679E+01  0.39205022796E+02  0.25828754552E+03  0.27339725856E+03  0.80532610298E+02 0.  0.
          5    1    3    3  501    0 -0.31785370671E+02  0.43480068114E+02 -0.86911606257E+02  0.10235498725E+03  0.47000000000E+01 0. -1.
        -11    1    4    4    0    0 -0.23470797737E+02 -0.48303939971E+02 -0.62155885910E+02  0.82143186671E+02  0.00000000000E+00 0.  1.
         12    1    4    4    0    0  0.14311535675E+02 -0.34672016346E+02  0.15173642685E+02  0.40462429527E+02  0.00000000000E+00 0. -1.
         -5    1    5    5    0  502  0.44271745600E+02  0.29086540794E+00  0.72934909921E+03  0.73070669258E+03  0.47000000000E+01 0.  1.
         11    1    6    6    0    0 -0.33107096607E+02  0.48639716499E+01  0.17815432922E+03  0.18126969710E+03  0.00000000000E+00 0. -1.
        -12    1    6    6    0    0  0.29779983739E+02  0.34341051146E+02  0.80133216304E+02  0.92127561460E+02  0.00000000000E+00 0.  1.
</event>
<event>
12    1  0.1681255E-001  0.2496296E+03  0.7818608E-02  0.1113719E+00
         21   -1    0    0  503  502  0.00000000000E+00  0.00000000000E+00  0.47004715397E+03  0.47004715397E+03  0.00000000000E+00 0. -1.
         21   -1    0    0  501  503 -0.00000000000E+00 -0.00000000000E+00 -0.60550210131E+03  0.60550210131E+03  0.00000000000E+00 0. -1.
          6    2    1    2  501    0 -0.76556158468E+02  0.16194958299E+03 -0.54326688417E+03  0.59740123705E+03  0.17222316270E+03 0.  0.
         24    2    3    3    0    0  0.37977796387E+01  0.14529287310E+03 -0.36028148040E+03  0.39680226062E+03  0.80776523885E+02 0.  0.
         -6    2    1    2    0  502  0.76556158468E+02 -0.16194958299E+03  0.40781193683E+03  0.47814801822E+03  0.17385752409E+03 0.  0.
        -24    2    5    5    0    0  0.61345766294E+02 -0.14822407430E+03  0.19884360617E+03  0.26812516509E+03  0.81355056379E+02 0.  0.
          5    1    3    3  501    0 -0.80353938107E+02  0.16656709888E+02 -0.18298540377E+03  0.20059897643E+03  0.47000000000E+01 0. -1.
        -13    1    4    4    0    0 -0.37713287554E+02  0.53213556252E+02 -0.13643192135E+03  0.15122051378E+03  0.00000000000E+00 0.  1.
         14    1    4    4    0    0  0.41511067192E+02  0.92079316845E+02 -0.22384955906E+03  0.24558174684E+03  0.00000000000E+00 0. -1.
         -5    1    5    5    0  502  0.15210392174E+02 -0.13725508690E+02  0.20896833066E+03  0.21002285314E+03  0.47000000000E+01 0.  1.
         13    1    6    6    0    0  0.23200380608E+01 -0.10653682787E+03  0.13242269464E+03  0.16997425783E+03  0.00000000000E+00 0. -1.
        -14    1    6    6    0    0  0.59025728233E+02 -0.41687246424E+02  0.66420911530E+02  0.98150907262E+02  0.00000000000E+00 0.  1.
</event>
<event>
12    1  0.1681255E-001  0.2127239E+03  0.7818608E-02  0.1139760E+00
         21   -1    0    0  503  502  0.00000000000E+00  0.00000000000E+00  0.62919716246E+03  0.62919716246E+03  0.00000000000E+00 0.  1.
         21   -1    0    0  501  503 -0.00000000000E+00 -0.00000000000E+00 -0.71431229834E+02  0.71431229834E+02  0.00000000000E+00 0.  1.
          6    2    1    2  501    0  0.26318903690E+02  0.12071052924E+03  0.26780258828E+03  0.34200829424E+03  0.17316965808E+03 0.  0.
         24    2    3    3    0    0 -0.46053269998E+02  0.91249156187E+02  0.19955909937E+03  0.23815759465E+03  0.80298776871E+02 0.  0.
         -6    2    1    2    0  502 -0.26318903690E+02 -0.12071052924E+03  0.28996334435E+03  0.35862009805E+03  0.17107284151E+03 0.  0.
        -24    2    5    5    0    0  0.23595054929E+02 -0.59363787586E+02  0.68476241959E+02  0.12338946123E+03  0.80344119483E+02 0.  0.
          5    1    3    3  501    0  0.72372173688E+02  0.29461373055E+02  0.68243488912E+02  0.10385069959E+03  0.47000000000E+01 0. -1.
        -13    1    4    4    0    0 -0.17008406060E+02  0.57057006011E+02  0.38345042271E+02  0.70817583116E+02  0.00000000000E+00 0.  1.
         14    1    4    4    0    0 -0.29044863938E+02  0.34192150177E+02  0.16121405710E+03  0.16734001154E+03  0.00000000000E+00 0. -1.
         -5    1    5    5    0  502 -0.49913958619E+02 -0.61346741657E+02  0.22148710239E+03  0.23523063683E+03  0.47000000000E+01 0.  1.
         13    1    6    6    0    0  0.24930457871E+02  0.14439039101E+02  0.20323156331E+02  0.35256832857E+02  0.00000000000E+00 0. -1.
        -14    1    6    6    0    0 -0.13354029422E+01 -0.73802826687E+02  0.48153085627E+02  0.88132628370E+02  0.00000000000E+00 0.  1.
</event>
<event>
12    1  0.1681255E-001  0.1764481E+03  0.7818608E-02  0.1171501E+00
         21   -1    0    0  503  502  0.00000000000E+00  0.00000000000E+00  0.18838000889E+03  0.18838000889E+03  0.00000000000E+00 0.  1.
         21   -1    0    0  501  503 -0.00000000000E+00 -0.00000000000E+00 -0.18593993568E+03  0.18593993568E+03  0.00000000000E+00 0.  1.
          6    2    1    2  501    0  0.27002005204E+02 -0.21468332636E+02  0.64833966635E+02  0.18798240049E+03  0.17304317979E+03 0.  0.
         24    2    3    3    0    0  0.41979213971E+02 -0.28021020472E+02  0.10709198534E+03  0.14242930350E+03  0.79183212718E+02 0.  0.
         -6    2    1    2    0  502 -0.27002005204E+02  0.21468332636E+02 -0.62393893426E+02  0.18633754408E+03  0.17215889406E+03 0.  0.
        -24    2    5    5    0    0  0.14972883531E+02  0.27259132009E+02  0.28410995594E+02  0.86022826752E+02  0.75003296812E+02 0.  0.
          5    1    3    3  501    0 -0.14977208767E+02  0.65526878357E+01 -0.42258018708E+02  0.45553096991E+02  0.47000000000E+01 0. -1.
        -11    1    4    4    0    0 -0.15951054983E+02 -0.19547659503E+02  0.66669541806E+02  0.71283763591E+02  0.00000000000E+00 0.  1.
         12    1    4    4    0    0  0.57930268954E+02 -0.84733609683E+01  0.40422443537E+02  0.71145539907E+02  0.00000000000E+00 0. -1.
         -5    1    5    5    0  502 -0.41974888734E+02 -0.57907993735E+01 -0.90804889020E+02  0.10031471732E+03  0.47000000000E+01 0.  1.
         13    1    6    6    0    0  0.45794013501E+01 -0.19207328822E+02 -0.12396007092E+02  0.23314231470E+02  0.00000000000E+00 0. -1.
        -14    1    6    6    0    0  0.10393482181E+02  0.46466460832E+02  0.40807002686E+02  0.62708595282E+02  0.00000000000E+00 0.  1.
</event>
<event>
12    1  0.1681255E-001  0.2221673E+03  0.7818608E-02  0.1132418E+00
         21   -1    0    0  503  502  0.00000000000E+00  0.00000000000E+00  0.94973473354E+03  0.94973473354E+03  0.00000000000E+00 0. -1.
         21   -1    0    0  501  503 -0.00000000000E+00 -0.00000000000E+00 -0.54341527756E+02  0.54341527756E+02  0.00000000000E+00 0.  1.
          6    2    1    2  501    0 -0.13561263306E+03  0.31834462806E+02  0.33822967995E+03  0.40425168944E+03  0.17209268651E+03 0.  0.
         24    2    3    3    0    0 -0.13040627223E+03 -0.21916858621E+02  0.17890143124E+03  0.23595465565E+03  0.78630356052E+02 0.  0.
         -6    2    1    2    0  502  0.13561263306E+03 -0.31834462806E+02  0.55716352584E+03  0.59982457186E+03  0.17307253743E+03 0.  0.
        -24    2    5    5    0    0  0.95413987859E+02 -0.26039833120E+02  0.54134340758E+03  0.55598537763E+03  0.79278958234E+02 0.  0.
          5    1    3    3  501    0 -0.52063608359E+01  0.53751321427E+02  0.15932824870E+03  0.16829703379E+03  0.47000000000E+01 0. -1.
        -11    1    4    4    0    0 -0.10928696419E+03 -0.48600069064E+02  0.13400333508E+03  0.17961765244E+03  0.00000000000E+00 0.  1.
         12    1    4    4    0    0 -0.21119308036E+02  0.26683210443E+02  0.44898096165E+02  0.56337003210E+02  0.00000000000E+00 0. -1.
         -5    1    5    5    0  502  0.40198645202E+02 -0.57946296857E+01  0.15820118263E+02  0.43839194234E+02  0.47000000000E+01 0.  1.
         11    1    6    6    0    0  0.57057174424E+02 -0.12628833302E+02  0.47207593905E+03  0.47567919947E+03  0.00000000000E+00 0. -1.
        -12    1    6    6    0    0  0.38356813436E+02 -0.13410999818E+02  0.69267468531E+02  0.80306178154E+02  0.00000000000E+00 0.  1.
</event>
<event>
12    1  0.1681255E-001  0.2218458E+03  0.7818608E-02  0.1133265E+00
         21   -1    0    0  503  502  0.00000000000E+00  0.00000000000E+00  0.55071579256E+03  0.55071579256E+03  0.00000000000E+00 0. -1.
         21   -1    0    0  501  503 -0.00000000000E+00 -0.00000000000E+00 -0.24526397338E+03  0.24526397338E+03  0.00000000000E+00 0. -1.
          6    2    1    2  501    0  0.56944216352E+02  0.12360052547E+03  0.47216571366E+03  0.52168576492E+03  0.17520229018E+03 0.  0.
         24    2    3    3    0    0  0.69747084560E+02  0.33901761275E+02  0.16376005314E+03  0.20021115756E+03  0.85165529321E+02 0.  0.
         -6    2    1    2    0  502 -0.56944216352E+02 -0.12360052547E+03 -0.16671389449E+03  0.27429400102E+03  0.17007040515E+03 0.  0.
        -24    2    5    5    0    0 -0.58730194499E+02 -0.12527232204E+03 -0.19151910534E+03  0.24892920048E+03  0.78382324056E+02 0.  0.
          5    1    3    3  501    0 -0.12802868208E+02  0.89698764199E+02  0.30840566052E+03  0.32147460736E+03  0.47000000000E+01 0. -1.
        -11    1    4    4    0    0 -0.13492372561E+02 -0.13301302501E+02  0.20330610074E+02  0.27790330540E+02  0.00000000000E+00 0.  1.
         12    1    4    4    0    0  0.83239457121E+02  0.47203063776E+02  0.14342944307E+03  0.17242082702E+03  0.00000000000E+00 0. -1.
         -5    1    5    5    0  502  0.17859781473E+01  0.16717965679E+01  0.24805210847E+02  0.25364800549E+02  0.47000000000E+01 0.  1.
         11    1    6    6    0    0  0.61621152613E+01  0.62153731819E+01 -0.27811287053E+02  0.29155963641E+02  0.00000000000E+00 0. -1.
        -12    1    6    6    0    0 -0.64892309761E+02 -0.13148769522E+03 -0.16370781829E+03  0.21977323684E+03  0.00000000000E+00 0.  1.
</event>
<event>
12    1  0.1681255E-001  0.1754889E+03  0.7818608E-02  0.1173070E+00
         21   -1    0    0  503  502  0.00000000000E+00  0.00000000000E+00  0.16236793866E+02  0.16236793866E+02  0.00000000000E+00 0.  1.
         21   -1    0    0  501  503 -0.00000000000E+00 -0.00000000000E+00 -0.19641321144E+04  0.19641321144E+04  0.00000000000E+00 0.  1.
          6    2    1    2  501    0  0.33856113625E+02 -0.72873165883E+01 -0.11916483628E+04  0.12040275976E+04  0.16869289770E+03 0.  0.
         24    2    3    3    0    0  0.59557742329E+02 -0.28013212752E+02 -0.46650466175E+03  0.47811740088E+03  0.81472601695E+02 0.  0.
         -6    2    1    2    0  502 -0.33856113625E+02  0.72873165883E+01 -0.75624695769E+03  0.77634131065E+03  0.17203786850E+03 0.  0.
        -24    2    5    5    0    0 -0.46058189425E+02 -0.15033023066E+02 -0.20944912401E+03  0.22893191255E+03  0.78699024384E+02 0.  0.
          5    1    3    3  501    0 -0.25701628704E+02  0.20725896164E+02 -0.72514370109E+03  0.72591019674E+03  0.47000000000E+01 0. -1.
        -13    1    4    4    0    0  0.78825020378E+01 -0.25062193276E+02 -0.34562888766E+03  0.34662598771E+03  0.00000000000E+00 0.  1.
         14    1    4    4    0    0  0.51675240291E+02 -0.29510194761E+01 -0.12087577409E+03  0.13149141317E+03  0.00000000000E+00 0. -1.
         -5    1    5    5    0  502  0.12202075800E+02  0.22320339654E+02 -0.54679783368E+03  0.54740939810E+03  0.47000000000E+01 0.  1.
         11    1    6    6    0    0  0.20233779000E+02 -0.12557568025E+01 -0.23482275273E+02  0.31022572263E+02  0.00000000000E+00 0. -1.
        -12    1    6    6    0    0 -0.66291968426E+02 -0.13777266263E+02 -0.18596684874E+03  0.19790934029E+03  0.00000000000E+00 0.  1.
</event>
<event>
12    1  0.1681255E-001  0.2102088E+03  0.7818608E-02  0.1141470E+00
         21   -1    0    0  503  502  0.00000000000E+00  0.00000000000E+00  0.13106055467E+03  0.13106055467E+03  0.00000000000E+00 0.  1.
         21   -1    0    0  501  503 -0.00000000000E+00 -0.00000000000E+00 -0.58423453829E+03  0.58423453829E+03  0.00000000000E+00 0. -1.
          6    2    1    2  501    0  0.11778753306E+03 -0.20908982029E+02 -0.45932669207E+03  0.50499623122E+03  0.17242127195E+03 0.  0.
         24    2    3    3    0    0  0.96369160623E+02 -0.55977271557E+01 -0.15419901910E+03  0.19869871569E+03  0.79909276419E+02 0.  0.
         -6    2    1    2    0  502 -0.11778753306E+03  0.20908982029E+02  0.61527084575E+01  0.21029886174E+03  0.17284868225E+03 0.  0.
        -24    2    5    5    0    0  0.12853397597E+02  0.26743147674E+02  0.12373614019E+02  0.79295503322E+02  0.72486307300E+02 0.  0.
          5    1    3    3  501    0  0.21418372436E+02 -0.15311254874E+02 -0.30512767297E+03  0.30629751552E+03  0.47000000000E+01 0. -1.
        -13    1    4    4    0    0  0.29637680737E+02  0.35685826860E+02 -0.49235177587E+02  0.67645939052E+02  0.00000000000E+00 0.  1.
         14    1    4    4    0    0  0.66731479886E+02 -0.41283554016E+02 -0.10496384152E+03  0.13105277664E+03  0.00000000000E+00 0. -1.
         -5    1    5    5    0  502 -0.13064093066E+03 -0.58341656445E+01 -0.62209055616E+01  0.13100335842E+03  0.47000000000E+01 0.  1.
         11    1    6    6    0    0 -0.11139167458E+02  0.26958303505E+02  0.35516734465E+02  0.45959434359E+02  0.00000000000E+00 0. -1.
        -12    1    6    6    0    0  0.23992565055E+02 -0.21515583086E+00 -0.23143120446E+02  0.33336068963E+02  0.00000000000E+00 0.  1.
</event>
<event>
12    1  0.1681255E-001  0.1785187E+03  0.7818608E-02  0.1169368E+00
         21   -1    0    0  501  502  0.00000000000E+00  0.00000000000E+00  0.27811329000E+03  0.27811329000E+03  0.00000000000E+00 0. -1.
         21   -1    0    0  502  503 -0.00000000000E+00 -0.00000000000E+00 -0.14205971865E+03  0.14205971865E+03  0.00000000000E+00 0. -1.
         -6    2    1    2    0  503  0.35774558371E+02 -0.28693533093E+02 -0.24976032551E+02  0.17975779622E+03  0.17200559652E+03 0.  0.
        -24    2    3    3    0    0  0.39657516709E+02 -0.27205042909E+02  0.49201644761E+02  0.10531512849E+03  0.79734819557E+02 0.  0.
          6    2    1    2  501    0 -0.35774558371E+02  0.28693533093E+02  0.16102960390E+03  0.24041521243E+03  0.17252768812E+03 0.  0.
         24    2    5    5    0    0 -0.45562857914E+01 -0.48627229585E+02  0.79665036860E+02  0.12381605440E+03  0.81231336513E+02 0.  0.
          5    1    5    5  501    0 -0.31218272580E+02  0.77320762678E+02  0.81364567037E+02  0.11659915803E+03  0.47000000000E+01 0. -1.
        -13    1    6    6    0    0 -0.18517772321E+02 -0.27229001443E+02 -0.68268035717E+01  0.33629327355E+02  0.00000000000E+00 0.  1.
         14    1    6    6    0    0  0.13961486530E+02 -0.21398228142E+02  0.86491840432E+02  0.90186727045E+02  0.00000000000E+00 0. -1.
         -5    1    3    3    0  503 -0.38829583379E+01 -0.14884901840E+01 -0.74177677312E+02  0.74442667737E+02  0.47000000000E+01 0.  1.
         11    1    4    4    0    0  0.47942144267E+02 -0.48939447682E+02  0.44180421081E+02  0.81519496706E+02  0.00000000000E+00 0. -1.
        -12    1    4    4    0    0 -0.82846275578E+01  0.21734404773E+02  0.50212236801E+01  0.23795631781E+02  0.00000000000E+00 0.  1.
</event>
<event>
12    1  0.1681255E-001  0.2413524E+03  0.7818608E-02  0.1119000E+00
         21   -1    0    0  503  502  0.00000000000E+00  0.00000000000E+00  0.54907842622E+03  0.54907842622E+03  0.00000000000E+00 0.  1.
         21   -1    0    0  501  503 -0.00000000000E+00 -0.00000000000E+00 -0.13468517679E+03  0.13468517679E+03  0.00000000000E+00 0.  1.
          6    2    1    2  501    0  0.10195482696E+02  0.16837322431E+03  0.48687507633E+02  0.24559505832E+03  0.17173517036E+03 0.  0.
         24    2    3    3    0    0  0.64746618121E+02  0.80731762688E+02  0.54029275338E+02  0.14211812053E+03  0.81047242555E+02 0.  0.
         -6    2    1    2    0  502 -0.10195482696E+02 -0.16837322431E+03  0.36570574180E+03  0.43816854468E+03  0.17261950479E+03 0.  0.
        -24    2    5    5    0    0 -0.48704774680E+02 -0.13274136941E+02  0.14986503330E+03  0.16956475857E+03  0.61190860049E+02 0.  0.
          5    1    3    3  501    0 -0.54551135425E+02  0.87641461620E+02 -0.53417677045E+01  0.10347693778E+03  0.47000000000E+01 0. -1.
        -13    1    4    4    0    0 -0.52212174893E+01  0.40753381772E+02 -0.61486444086E+01  0.41544013600E+02  0.00000000000E+00 0.  1.
         14    1    4    4    0    0  0.69967835610E+02  0.39978380916E+02  0.60177919746E+02  0.10057410693E+03  0.00000000000E+00 0. -1.
         -5    1    5    5    0  502  0.38509291984E+02 -0.15509908737E+03  0.21584070850E+03  0.26860378612E+03  0.47000000000E+01 0.  1.
         11    1    6    6    0    0  0.14503895563E+02 -0.42015452006E+01  0.35541149796E+02  0.38615920259E+02  0.00000000000E+00 0. -1.
        -12    1    6    6    0    0 -0.63208670244E+02 -0.90725917402E+01  0.11432388351E+03  0.13094883831E+03  0.00000000000E+00 0.  1.
</event>
<event>
12    1  0.1681255E-001  0.2737230E+03  0.7818608E-02  0.1099590E+00
         21   -1    0    0  503  502  0.00000000000E+00  0.00000000000E+00  0.68749781065E+03  0.68749781065E+03  0.00000000000E+00 0. -1.
         21   -1    0    0  501  503 -0.00000000000E+00 -0.00000000000E+00 -0.11760871345E+03  0.11760871345E+03  0.00000000000E+00 0. -1.
          6    2    1    2  501    0  0.14396055416E+03  0.15187530135E+03  0.17009268170E+03  0.32226663547E+03  0.17644692022E+03 0.  0.
         24    2    3    3    0    0  0.25935991358E+02  0.59566691857E+01  0.35400043159E+02  0.91212006618E+02  0.79739008898E+02 0.  0.
         -6    2    1    2    0  502 -0.14396055416E+03 -0.15187530135E+03  0.39979641551E+03  0.48283988863E+03  0.17177437493E+03 0.  0.
        -24    2    5    5    0    0 -0.80373729434E+02 -0.11642394799E+02  0.20980228919E+03  0.23824142095E+03  0.78399568644E+02 0.  0.
          5    1    3    3  501    0  0.11802456280E+03  0.14591863217E+03  0.13469263854E+03  0.23105462886E+03  0.47000000000E+01 0. -1.
        -11    1    4    4    0    0 -0.41695238179E+01  0.38751713993E+01  0.54957400203E+02  0.55251404682E+02  0.00000000000E+00 0.  1.
         12    1    4    4    0    0  0.30105515176E+02  0.20814977864E+01 -0.19557357044E+02  0.35960601936E+02  0.00000000000E+00 0. -1.
         -5    1    5    5    0  502 -0.63586824726E+02 -0.14023290655E+03  0.18999412631E+03  0.24459846768E+03  0.47000000000E+01 0.  1.
         11    1    6    6    0    0 -0.20970687235E+02 -0.13824645777E+02  0.58317847914E+01  0.25785660120E+02  0.00000000000E+00 0. -1.
        -12    1    6    6    0    0 -0.59403042198E+02  0.21822509785E+01  0.20397050440E+03  0.21245576082E+03  0.00000000000E+00 0.  1.
</event>
<event>
12    1  0.1681255E-001  0.2071507E+03  0.7818608E-02  0.1143885E+00
         21   -1    0    0  501  502  0.00000000000E+00  0.00000000000E+00  0.18516833457E+03  0.18516833457E+03  0.00000000000E+00 0.  1.
         21   -1    0    0  502  503 -0.00000000000E+00 -0.00000000000E+00 -0.39032623162E+03  0.39032623162E+03  0.00000000000E+00 0. -1.
         -6    2    1    2    0  503  0.68283117300E+02 -0.92410777624E+02 -0.28615640995E+03  0.35326607783E+03  0.17236326423E+03 0.  0.
        -24    2    3    3    0    0 -0.13764694451E+02 -0.20745632703E+02 -0.19155564606E+03  0.20890842843E+03  0.79557010018E+02 0.  0.
          6    2    1    2  501    0 -0.68283117300E+02  0.92410777624E+02  0.80998512901E+02  0.22222848836E+03  0.17211160919E+03 0.  0.
         24    2    5    5    0    0 -0.84034723499E+02  0.32439208787E+02  0.10129970642E+03  0.15681495287E+03  0.78836298132E+02 0.  0.
          5    1    5    5  501    0  0.15751606199E+02  0.59971568837E+02 -0.20301193518E+02  0.65413535487E+02  0.47000000000E+01 0. -1.
        -13    1    6    6    0    0 -0.34970756159E+02  0.52663228627E+02  0.36281118214E+02  0.72888195030E+02  0.00000000000E+00 0.  1.
         14    1    6    6    0    0 -0.49063967340E+02 -0.20224019841E+02  0.65018588204E+02  0.83926757841E+02  0.00000000000E+00 0. -1.
         -5    1    3    3    0  503  0.82047811751E+02 -0.71665144921E+02 -0.94600763893E+02  0.14435764939E+03  0.47000000000E+01 0.  1.
         13    1    4    4    0    0  0.83885891596E+01  0.83020489979E+01 -0.16057800290E+03  0.16101114080E+03  0.00000000000E+00 0. -1.
        -14    1    4    4    0    0 -0.22153283610E+02 -0.29047681701E+02 -0.30977643157E+02  0.47897287632E+02  0.00000000000E+00 0.  1.
</event>
<event>
12    1  0.1681255E-001  0.1999707E+03  0.7818608E-02  0.1149836E+00
         21   -1    0    0  503  502  0.00000000000E+00  0.00000000000E+00  0.22169017143E+03  0.22169017143E+03  0.00000000000E+00 0.  1.
         21   -1    0    0  501  503 -0.00000000000E+00 -0.00000000000E+00 -0.18347397556E+03  0.18347397556E+03  0.00000000000E+00 0.  1.
          6    2    1    2  501    0  0.34209972840E+02 -0.96625455430E+02 -0.85078800419E+01  0.19980732591E+03  0.17130027025E+03 0.  0.
         24    2    3    3    0    0  0.37920209435E+02 -0.58418688412E+02 -0.68952158760E+02  0.12804993096E+03  0.82411766032E+02 0.  0.
         -6    2    1    2    0  502 -0.34209972840E+02  0.96625455430E+02  0.46724075910E+02  0.20535682107E+03  0.17170172921E+03 0.  0.
        -24    2    5    5    0    0  0.28942993858E+02  0.71185253702E+02  0.73615066966E+02  0.13200345396E+03  0.78106955744E+02 0.  0.
          5    1    3    3  501    0 -0.37102365952E+01 -0.38206767017E+02  0.60444278718E+02  0.71757394959E+02  0.47000000000E+01 0. -1.
        -13    1    4    4    0    0  0.48210118563E+02 -0.88170233530E+00 -0.40847594492E+02  0.63194294890E+02  0.00000000000E+00 0.  1.
         14    1    4    4    0    0 -0.10289909128E+02 -0.57536986077E+02 -0.28104564268E+02  0.64855636065E+02  0.00000000000E+00 0. -1.
         -5    1    5    5    0  502 -0.63152966698E+02  0.25440201728E+02 -0.26890991056E+02  0.73353367112E+02  0.47000000000E+01 0.  1.
         11    1    6    6    0    0  0.23309122944E+02 -0.46858872798E+01 -0.30801651111E+01  0.23974156276E+02  0.00000000000E+00 0. -1.
        -12    1    6    6    0    0  0.56338709135E+01  0.75871140982E+02  0.76695232078E+02  0.10802929769E+03  0.00000000000E+00 0.  1.
</event>
<event>
12    1  0.1681255E-001  0.2115999E+03  0.7818608E-02  0.1140306E+00
         21   -1    0    0  503  502  0.00000000000E+00  0.00000000000E+00  0.18170999307E+04  0.18170999307E+04  0.00000000000E+00 0. -1.
         21   -1    0    0  501  503 -0.00000000000E+00 -0.00000000000E+00 -0.24855761844E+02  0.24855761844E+02  0.00000000000E+00 0.  1.
          6    2    1    2  501    0 -0.39149453420E+02 -0.11704332270E+03  0.98193206775E+03  0.10044725500E+04  0.17187989677E+03 0.  0.
         24    2    3    3    0    0 -0.40833675967E+02  0.13171250138E+00  0.33778812198E+03  0.34973875801E+03  0.80925750329E+02 0.  0.
         -6    2    1    2    0  502  0.39149453420E+02  0.11704332270E+03  0.81031210115E+03  0.83748314259E+03  0.17187348188E+03 0.  0.
        -24    2    5    5    0    0 -0.11383685507E+02  0.81869091452E+02  0.71608694691E+03  0.72482749753E+03  0.75909480377E+02 0.  0.
          5    1    3    3  501    0  0.16842225466E+01 -0.11717503520E+03  0.64414394577E+03  0.65473379197E+03  0.47000000000E+01 0. -1.
        -13    1    4    4    0    0 -0.15117907860E+02  0.61483052635E+01  0.67700618000E+01  0.17668801104E+02  0.00000000000E+00 0.  1.
         14    1    4    4    0    0 -0.25715768106E+02 -0.60165927622E+01  0.33101806018E+03  0.33206995691E+03  0.00000000000E+00 0. -1.
         -5    1    5    5    0  502  0.50533138927E+02  0.35174231251E+02  0.94225154239E+02  0.11265564507E+03  0.47000000000E+01 0.  1.
         13    1    6    6    0    0 -0.41099574555E+02  0.25384462383E+02  0.29392291651E+03  0.29786612229E+03  0.00000000000E+00 0. -1.
        -14    1    6    6    0    0  0.29715889048E+02  0.56484629069E+02  0.42216403039E+03  0.42696137523E+03  0.00000000000E+00 0.  1.
</event>
<event>
12    1  0.1681255E-001  0.1929589E+03  0.7818608E-02  0.1156031E+00
         21   -1    0    0  501  502  0.00000000000E+00  0.00000000000E+00  0.12751910147E+04  0.12751910147E+04  0.00000000000E+00 0. -1.
         21   -1    0    0  502  503 -0.00000000000E+00 -0.00000000000E+00 -0.39637480765E+02  0.39637480765E+02  0.00000000000E+00 0. -1.
         -6    2    1    2    0  503 -0.81219641741E+02  0.14869961868E+02  0.27694207349E+03  0.33698952354E+03  0.17334151533E+03 0.  0.
        -24    2    3    3    0    0 -0.10795773643E+03  0.51200380614E+02  0.14412831132E+03  0.19664562287E+03  0.60167923667E+02 0.  0.
          6    2    1    2  501    0  0.81219641741E+02 -0.14869961868E+02  0.95861146042E+03  0.97783897190E+03  0.17440004858E+03 0.  0.
         24    2    5    5    0    0  0.56027392120E+02  0.20412114144E+02  0.26418811029E+03  0.28204780098E+03  0.78739325278E+02 0.  0.
          5    1    5    5  501    0  0.25192249621E+02 -0.35282076012E+02  0.69442335013E+03  0.69579117092E+03  0.47000000000E+01 0. -1.
        -13    1    6    6    0    0  0.32155995264E+02 -0.14313920975E+02  0.21232761267E+03  0.21522525750E+03  0.00000000000E+00 0.  1.
         14    1    6    6    0    0  0.23871396856E+02  0.34726035119E+02  0.51860497625E+02  0.66822543478E+02  0.00000000000E+00 0. -1.
         -5    1    3    3    0  503  0.26738094693E+02 -0.36330418746E+02  0.13281376217E+03  0.14034390068E+03  0.47000000000E+01 0.  1.
         13    1    4    4    0    0 -0.71761049605E+02  0.48489848042E+02  0.60986734990E+02  0.10592589602E+03  0.00000000000E+00 0. -1.
        -14    1    4    4    0    0 -0.36196686828E+02  0.27105325716E+01  0.83141576329E+02  0.90719726844E+02  0.00000000000E+00 0.  1.
</event>
<event>
12    1  0.1681255E-001  0.1971304E+03  0.7818608E-02  0.1152309E+00
         21   -1    0    0  501  502  0.00000000000E+00  0.00000000000E+00  0.10066894859E+04  0.10066894859E+04  0.00000000000E+00 0. -1.
         21   -1    0    0  502  503 -0.00000000000E+00 -0.00000000000E+00 -0.11890762386E+03  0.11890762386E+03  0.00000000000E+00 0. -1.
         -6    2    1    2    0  503 -0.69062253276E+01  0.94598927479E+02 -0.18734384033E+02  0.19801864799E+03  0.17281132711E+03 0.  0.
        -24    2    3    3    0    0  0.31840449919E+02  0.46107393122E+02  0.47073184903E+02  0.10743465450E+03  0.78655033534E+02 0.  0.
          6    2    1    2  501    0  0.69062253276E+01 -0.94598927479E+02  0.90651624605E+03  0.92757846174E+03  0.17214367638E+03 0.  0.
         24    2    5    5    0    0  0.70532742497E+02 -0.38465538136E+02  0.46344271587E+03  0.47642933536E+03  0.75837295035E+02 0.  0.
          5    1    5    5  501    0 -0.63626517170E+02 -0.56133389343E+02  0.44307353018E+03  0.45114912638E+03  0.47000000000E+01 0. -1.
        -13    1    6    6    0    0  0.54514636293E+02 -0.61252918528E+02  0.36673336020E+03  0.37578866811E+03  0.00000000000E+00 0.  1.
         14    1    6    6    0    0  0.16018106205E+02  0.22787380392E+02  0.96709355664E+02  0.10064066725E+03  0.00000000000E+00 0. -1.
         -5    1    3    3    0  503 -0.38746675246E+02  0.48491534357E+02 -0.65807568936E+02  0.90583993488E+02  0.47000000000E+01 0.  1.
         13    1    4    4    0    0  0.26312831784E+02 -0.18215877412E+02  0.16318179442E+02  0.35923060653E+02  0.00000000000E+00 0. -1.
        -14    1    4    4    0    0  0.55276181351E+01  0.64323270534E+02  0.30755005460E+02  0.71511593852E+02  0.00000000000E+00 0.  1.
</event>
<event>
12    1  0.1681255E-001  0.2154540E+03  0.7818608E-02  0.1137415E+00
         21   -1    0    0  501  502  0.00000000000E+00  0.00000000000E+00  0.48142813541E+03  0.48142813541E+03  0.00000000000E+00 0.  1.
         21   -1    0    0  502  503 -0.00000000000E+00 -0.00000000000E+00 -0.16345499903E+03  0.16345499903E+03  0.00000000000E+00 0.  1.
         -6    2    1    2    0  503 -0.12677018682E+03 -0.29351546554E+02 -0.47738845428E+02  0.22067949674E+03  0.17172142954E+03 0.  0.
        -24    2    3    3    0    0 -0.76118617193E+02  0.42737419197E+02  0.38577200093E+01  0.11847041664E+03  0.79998917071E+02 0.  0.
          6    2    1    2  501    0  0.12677018682E+03  0.29351546554E+02  0.36571198181E+03  0.42420363771E+03  0.17108851233E+03 0.  0.
         24    2    5    5    0    0  0.83947830852E+02  0.82626456662E+02  0.27978852283E+03  0.31430868322E+03  0.81449132565E+02 0.  0.
          5    1    5    5  501    0  0.42822355973E+02 -0.53274910108E+02  0.85923458981E+02  0.10989495449E+03  0.47000000000E+01 0. -1.
        -13    1    6    6    0    0  0.27991056268E+02  0.34523549186E+02  0.20301395395E+03  0.20782213592E+03  0.00000000000E+00 0.  1.
         14    1    6    6    0    0  0.55956774584E+02  0.48102907476E+02  0.76774568877E+02  0.10648654730E+03  0.00000000000E+00 0. -1.
         -5    1    3    3    0  503 -0.50651569631E+02 -0.72088965751E+02 -0.51596565437E+02  0.10220908010E+03  0.47000000000E+01 0.  1.
         13    1    4    4    0    0 -0.27855787848E+02  0.57195927053E+01  0.38967255678E+02  0.48240083669E+02  0.00000000000E+00 0. -1.
        -14    1    4    4    0    0 -0.48262829345E+02  0.37017826492E+02 -0.35109535668E+02  0.70230332973E+02  0.00000000000E+00 0.  1.
</event>
<event>
12    1  0.1681255E-001  0.2085701E+03  0.7818608E-02  0.1143006E+00
         21   -1    0    0  503  502  0.00000000000E+00  0.00000000000E+00  0.54261535361E+03  0.54261535361E+03  0.00000000000E+00 0.  1.
         21   -1    0    0  501  503 -0.00000000000E+00 -0.00000000000E+00 -0.79758750480E+02  0.79758750480E+02  0.00000000000E+00 0.  1.
          6    2    1    2  501    0 -0.99277417536E+02 -0.57604303332E+02  0.21797594535E+03  0.30168688862E+03  0.17414707754E+03 0.  0.
         24    2    3    3    0    0 -0.13187477889E+03 -0.32788101763E+02  0.13273064913E+03  0.20699115294E+03  0.82230743965E+02 0.  0.
         -6    2    1    2    0  502  0.99277417536E+02  0.57604303332E+02  0.24488065778E+03  0.32068721547E+03  0.17233540616E+03 0.  0.
        -24    2    5    5    0    0  0.56372187446E+02  0.56932489842E+02  0.51896632705E+02  0.12293425333E+03  0.77462495689E+02 0.  0.
          5    1    3    3  501    0  0.32597361353E+02 -0.24816201569E+02  0.85245296223E+02  0.94695735678E+02  0.47000000000E+01 0. -1.
        -13    1    4    4    0    0 -0.25910393015E+02 -0.10503496056E+02  0.83474619569E+02  0.88032289574E+02  0.00000000000E+00 0.  1.
         14    1    4    4    0    0 -0.10596438587E+03 -0.22284605707E+02  0.49256029559E+02  0.11895886336E+03  0.00000000000E+00 0. -1.
         -5    1    5    5    0  502  0.42905230089E+02  0.67181349007E+00  0.19298402507E+03  0.19775296214E+03  0.47000000000E+01 0.  1.
         13    1    6    6    0    0  0.70529710733E+01  0.22542193677E+02  0.57877894930E+02  0.62511963802E+02  0.00000000000E+00 0. -1.
        -14    1    6    6    0    0  0.49319216373E+02  0.34390296165E+02 -0.59812622258E+01  0.60422289528E+02  0.00000000000E+00 0.  1.
</event>
<event>
12    1  0.1681255E-001  0.1779660E+03  0.7818608E-02  0.1171225E+00
         21   -1    0    0  501  502  0.00000000000E+00  0.00000000000E+00  0.60945436349E+02  0.60945436349E+02  0.00000000000E+00 0. -1.
         21   -1    0    0  502  503 -0.00000000000E+00 -0.00000000000E+00 -0.73665377948E+03  0.73665377948E+03  0.00000000000E+00 0. -1.
         -6    2    1    2    0  503 -0.60590914178E+01 -0.80379660657E+01 -0.56622648477E+03  0.59353545942E+03  0.17768114150E+03 0.  0.
        -24    2    3    3    0    0 -0.47331350484E+02 -0.48361678578E+02 -0.46806578251E+03  0.47957487576E+03  0.79544805061E+02 0.  0.
          6    2    1    2  501    0  0.60590914178E+01  0.80379660657E+01 -0.10948185836E+03  0.20406375641E+03  0.17191398397E+03 0.  0.
         24    2    5    5    0    0 -0.28471687995E+02 -0.53111052294E+02 -0.77289558003E+02  0.12666859264E+03  0.80248586850E+02 0.  0.
          5    1    5    5  501    0  0.34530779413E+02  0.61149018360E+02 -0.32192300360E+02  0.77395163774E+02  0.47000000000E+01 0. -1.
        -13    1    6    6    0    0  0.17502453907E+02 -0.20601655403E+02 -0.63032411183E+02  0.68584611668E+02  0.00000000000E+00 0.  1.
         14    1    6    6    0    0 -0.45974141902E+02 -0.32509396891E+02 -0.14257146820E+02  0.58083980970E+02  0.00000000000E+00 0. -1.
         -5    1    3    3    0  503  0.41272259067E+02  0.40323712512E+02 -0.98160702258E+02  0.11396058365E+03  0.47000000000E+01 0.  1.
         13    1    4    4    0    0  0.20699902988E+02 -0.22125991876E+02 -0.17301401267E+03  0.17564707251E+03  0.00000000000E+00 0. -1.
        -14    1    4    4    0    0 -0.68031253472E+02 -0.26235686702E+02 -0.29505176984E+03  0.30392780325E+03  0.00000000000E+00 0.  1.
</event>
<event>
12    1  0.1681255E-001  0.1871106E+03  0.7818608E-02  0.1161573E+00
         21   -1    0    0  503  502  0.00000000000E+00  0.00000000000E+00  0.22446910802E+03  0.22446910802E+03  0.00000000000E+00 0. -1.
         21   -1    0    0  501  503 -0.00000000000E+00 -0.00000000000E+00 -0.19080325141E+03  0.19080325141E+03  0.00000000000E+00 0.  1.
          6    2    1    2  501    0 -0.38661773978E+02 -0.62024441028E+02 -0.73973887634E+02  0.20120270491E+03  0.17224583699E+03 0.  0.
         24    2    3    3    0    0  0.24708665777E+02  0.18105909333E+02 -0.14886301710E+02  0.83092085175E+02  0.75791493737E+02 0.  0.
         -6    2    1    2    0  502  0.38661773978E+02  0.62024441028E+02  0.10763974424E+03  0.21406965452E+03  0.16999334809E+03 0.  0.
        -24    2    5    5    0    0  0.47295439600E+02  0.63510803401E+02  0.13987025943E+03  0.18034065269E+03  0.81783744010E+02 0.  0.
          5    1    3    3  501    0 -0.63370439755E+02 -0.80130350362E+02 -0.59087585924E+02  0.11811061973E+03  0.47000000000E+01 0. -1.
        -13    1    4    4    0    0  0.12576546830E+02 -0.27418973065E+02  0.72688382995E+01  0.31029109306E+02  0.00000000000E+00 0.  1.
         14    1    4    4    0    0  0.12132118947E+02  0.45524882398E+02 -0.22155140009E+02  0.52062975869E+02  0.00000000000E+00 0. -1.
         -5    1    5    5    0  502 -0.86336656214E+01 -0.14863623729E+01 -0.32230515189E+02  0.33729001830E+02  0.47000000000E+01 0.  1.
         11    1    6    6    0    0  0.43726765076E+02  0.78127320807E+02  0.85033157086E+02  0.12347690490E+03  0.00000000000E+00 0. -1.
        -12    1    6    6    0    0  0.35686745234E+01 -0.14616517406E+02  0.54837102344E+02  0.56863747787E+02  0.00000000000E+00 0.  1.
</event>
<event>
12    1  0.1681255E-001  0.2260014E+03  0.7818608E-02  0.1130226E+00
         21   -1    0    0  503  502  0.00000000000E+00  0.00000000000E+00  0.17206633931E+04  0.17206633931E+04  0.00000000000E+00 0.  1.
         21   -1    0    0  501  503 -0.00000000000E+00 -0.00000000000E+00 -0.64569420407E+02  0.64569420407E+02  0.00000000000E+00 0. -1.
          6    2    1    2  501    0 -0.56515309799E+02 -0.12543941773E+03  0.16357959993E+03  0.27570447560E+03  0.17414259844E+03 0.  0.
         24    2    3    3    0    0  0.20748600679E+02 -0.36617712945E+02  0.11624259547E+03  0.14873247438E+03  0.82690063501E+02 0.  0.
         -6    2    1    2    0  502  0.56515309799E+02  0.12543941773E+03  0.14925143727E+04  0.15095283379E+04  0.17929758020E+03 0.  0.
        -24    2    5    5    0    0 -0.34213796690E+02  0.25552952264E+02  0.54507864616E+03  0.55251965310E+03  0.79647343377E+02 0.  0.
          5    1    3    3  501    0 -0.77263910478E+02 -0.88821704788E+02  0.47337004461E+02  0.12697200123E+03  0.47000000000E+01 0. -1.
        -11    1    4    4    0    0 -0.95426766195E+01 -0.31397496865E+02  0.11318134328E+03  0.11784261518E+03  0.00000000000E+00 0.  1.
         12    1    4    4    0    0  0.30291277299E+02 -0.52202160793E+01  0.30612521919E+01  0.30889859198E+02  0.00000000000E+00 0. -1.
         -5    1    5    5    0  502  0.90729106489E+02  0.99886465468E+02  0.94743572656E+03  0.95700868476E+03  0.47000000000E+01 0.  1.
         11    1    6    6    0    0 -0.19558705708E+01 -0.18655387044E+02  0.33186433509E+03  0.33239402191E+03  0.00000000000E+00 0. -1.
        -12    1    6    6    0    0 -0.32257926119E+02  0.44208339308E+02  0.21321431107E+03  0.22012563119E+03  0.00000000000E+00 0.  1.
</event>
<event>
12    1  0.1681255E-001  0.2069042E+03  0.7818608E-02  0.1146279E+00
         21   -1    0    0  501  502  0.00000000000E+00  0.00000000000E+00  0.44536008935E+03  0.44536008935E+03  0.00000000000E+00 0.  1.
         21   -1    0    0  502  503 -0.00000000000E+00 -0.00000000000E+00 -0.14818942545E+03  0.14818942545E+03  0.00000000000E+00 0.  1.
         -6    2    1    2    0  503 -0.84709229432E+02  0.80651912054E+02  0.33016929747E+03  0.38403036519E+03  0.15743942304E+03 0.  0.
        -24    2    3    3    0    0 -0.73784222256E+02  0.24721382548E+02  0.29829959156E+03  0.31856779522E+03  0.80296547971E+02 0.  0.
          6    2    1    2  501    0  0.84709229432E+02 -0.80651912054E+02 -0.32998633561E+02  0.20951914961E+03  0.17067214116E+03 0.  0.
         24    2    5    5    0    0  0.81967622649E+02 -0.23963301105E+02  0.41993476464E+02  0.11535428575E+03  0.65193774344E+02 0.  0.
          5    1    5    5  501    0  0.27416067825E+01 -0.56688610949E+02 -0.74992110026E+02  0.94164863857E+02  0.47000000000E+01 0. -1.
        -11    1    6    6    0    0  0.29700683087E+02  0.21334343083E+02  0.49732328334E+01  0.36905525541E+02  0.00000000000E+00 0.  1.
         12    1    6    6    0    0  0.52266939562E+02 -0.45297644188E+02  0.37020243631E+02  0.78448760211E+02  0.00000000000E+00 0. -1.
         -5    1    3    3    0  503 -0.10925007175E+02  0.55930529507E+02  0.31869705908E+02  0.65462569972E+02  0.47000000000E+01 0.  1.
         11    1    4    4    0    0  0.52884290102E+01  0.31562243766E+02  0.73351736106E+02  0.80028869183E+02  0.00000000000E+00 0. -1.
        -12    1    4    4    0    0 -0.79072651267E+02 -0.68408612184E+01  0.22494785546E+03  0.23853892604E+03  0.00000000000E+00 0.  1.
</event>
<event>
12    1  0.1681255E-001  0.2128823E+03  0.7818608E-02  0.1139305E+00
         21   -1    0    0  503  502  0.00000000000E+00  0.00000000000E+00  0.55352190507E+02  0.55352190507E+02  0.00000000000E+00 0. -1.
         21   -1    0    0  501  503 -0.00000000000E+00 -0.00000000000E+00 -0.10157214598E+04  0.10157214598E+04  0.00000000000E+00 0. -1.
          6    2    1    2  501    0 -0.10495629169E+03  0.68139171762E+02 -0.71604721664E+03  0.74702240217E+03  0.17222102945E+03 0.  0.
         24    2    3    3    0    0 -0.58776651445E+02  0.10898885775E+03 -0.46012099262E+03  0.48373248941E+03  0.83381818098E+02 0.  0.
         -6    2    1    2    0  502  0.10495629169E+03 -0.68139171762E+02 -0.24432205267E+03  0.32405124816E+03  0.17221258989E+03 0.  0.
        -24    2    5    5    0    0  0.54685425974E+02 -0.10527594628E+03 -0.12841985355E+03  0.19228740743E+03  0.80057901496E+02 0.  0.
          5    1    3    3  501    0 -0.46179640249E+02 -0.40849685992E+02 -0.25592622402E+03  0.26328991276E+03  0.47000000000E+01 0. -1.
        -11    1    4    4    0    0  0.15595866980E+02  0.54436167510E+02 -0.19301393346E+03  0.20114896448E+03  0.00000000000E+00 0.  1.
         12    1    4    4    0    0 -0.74372518425E+02  0.54552690244E+02 -0.26710705916E+03  0.28258352493E+03  0.00000000000E+00 0. -1.
         -5    1    5    5    0  502  0.50270865720E+02  0.37136774518E+02 -0.11590219912E+03  0.13176384073E+03  0.47000000000E+01 0.  1.
         13    1    6    6    0    0  0.75138959927E+02 -0.90745862809E+02 -0.10974010253E+03  0.16100796570E+03  0.00000000000E+00 0. -1.
        -14    1    6    6    0    0 -0.20453533953E+02 -0.14530083471E+02 -0.18679751022E+02  0.31279441732E+02  0.00000000000E+00 0.  1.
</event>
<event>
12    1  0.1681255E-001  0.3453992E+03  0.7818608E-02  0.1064572E+00
         21   -1    0    0  501  502  0.00000000000E+00  0.00000000000E+00  0.10668647232E+04  0.10668647232E+04  0.00000000000E+00 0. -1.
         21   -1    0    0  502  503 -0.00000000000E+00 -0.00000000000E+00 -0.28164980927E+03  0.28164980927E+03  0.00000000000E+00 0.  1.
         -6    2    1    2    0  503  0.84959505254E+02  0.28676766580E+03 -0.13109951556E+03  0.36944238247E+03  0.17276220450E+03 0.  0.
        -24    2    3    3    0    0 -0.18553547472E+02  0.14852747579E+03 -0.90483338127E+02  0.19196825453E+03  0.79119726240E+02 0.  0.
          6    2    1    2  501    0 -0.84959505254E+02 -0.28676766580E+03  0.91631442948E+03  0.97907214999E+03  0.17174495494E+03 0.  0.
         24    2    5    5    0    0 -0.74228505933E+01 -0.51732716497E+02  0.29555027537E+03  0.31077312618E+03  0.80613882281E+02 0.  0.
          5    1    5    5  501    0 -0.77536654660E+02 -0.23503494930E+03  0.62076415411E+03  0.66829902381E+03  0.47000000000E+01 0. -1.
        -13    1    6    6    0    0  0.13626362150E+02 -0.25179310845E+02  0.24702045635E+02  0.37813575587E+02  0.00000000000E+00 0.  1.
         14    1    6    6    0    0 -0.21049212743E+02 -0.26553405651E+02  0.27084822974E+03  0.27295955059E+03  0.00000000000E+00 0. -1.
         -5    1    3    3    0  503  0.10351305273E+03  0.13824019000E+03 -0.40616177434E+02  0.17747412793E+03  0.47000000000E+01 0.  1.
         13    1    4    4    0    0 -0.22578840043E+01 -0.92890643185E+01 -0.50271639346E+00  0.95727467251E+01  0.00000000000E+00 0. -1.
        -14    1    4    4    0    0 -0.16295663468E+02  0.15781654011E+03 -0.89980621734E+02  0.18239550781E+03  0.00000000000E+00 0.  1.
</event>
<event>
12    1  0.1681255E-001  0.1878817E+03  0.7818608E-02  0.1160480E+00
         21   -1    0    0  503  502  0.00000000000E+00  0.00000000000E+00  0.97231842617E+03  0.97231842617E+03  0.00000000000E+00 0.  1.
         21   -1    0    0  501  503 -0.00000000000E+00 -0.00000000000E+00 -0.46288014281E+02  0.46288014281E+02  0.00000000000E+00 0. -1.
          6    2    1    2  501    0 -0.46433714212E+02 -0.60035513077E+02  0.22594467005E+03  0.29385460399E+03  0.17186966492E+03 0.  0.
         24    2    3    3    0    0 -0.97577263820E+02 -0.38460346335E+02  0.16479386931E+03  0.21113422611E+03  0.80125660165E+02 0.  0.
         -6    2    1    2    0  502  0.46433714212E+02  0.60035513077E+02  0.70008574185E+03  0.72475183646E+03  0.17142002763E+03 0.  0.
        -24    2    5    5    0    0  0.66795050992E+02 -0.49665887390E+01  0.26669013956E+03  0.28601080196E+03  0.78691184121E+02 0.  0.
          5    1    3    3  501    0  0.51143549608E+02 -0.21575166743E+02  0.61150800737E+02  0.82720377884E+02  0.47000000000E+01 0. -1.
        -13    1    4    4    0    0 -0.22056384005E+02  0.11127952540E+02  0.91560831604E+02  0.94835126864E+02  0.00000000000E+00 0.  1.
         14    1    4    4    0    0 -0.75520879815E+02 -0.49588298875E+02  0.73233037707E+02  0.11629909924E+03  0.00000000000E+00 0. -1.
         -5    1    5    5    0  502 -0.20361336780E+02  0.65002101816E+02  0.43339560228E+03  0.43874103450E+03  0.47000000000E+01 0.  1.
         13    1    6    6    0    0  0.42630079316E+02  0.25723286862E+01  0.25423818676E+03  0.25780030284E+03  0.00000000000E+00 0. -1.
        -14    1    6    6    0    0  0.24164971676E+02 -0.75389174252E+01  0.12451952800E+02  0.28210499120E+02  0.00000000000E+00 0.  1.
</event>
<event>
12    1  0.1681255E-001  0.1868687E+03  0.7818608E-02  0.1161672E+00
         21   -1    0    0  501  502  0.00000000000E+00  0.00000000000E+00  0.86190695938E+03  0.86190695938E+03  0.00000000000E+00 0. -1.
         21   -1    0    0  502  503 -0.00000000000E+00 -0.00000000000E+00 -0.51488884894E+02  0.51488884894E+02  0.00000000000E+00 0. -1.
         -6    2    1    2    0  503  0.58652982918E+01 -0.71916235270E+02  0.19250374274E+03  0.26828638888E+03  0.17237618418E+03 0.  0.
        -24    2    3    3    0    0 -0.16316801107E+02  0.26257618816E+02  0.94408960838E+02  0.12766339149E+03  0.80182224310E+02 0.  0.
          6    2    1    2  501    0 -0.58652982918E+01  0.71916235270E+02  0.61791433174E+03  0.64510945539E+03  0.17070952358E+03 0.  0.
         24    2    5    5    0    0  0.36827642953E+02  0.73222902826E+02  0.56708435397E+03  0.57854992375E+03  0.80109181526E+02 0.  0.
          5    1    5    5  501    0 -0.42692941245E+02 -0.13066675554E+01  0.50829977774E+02  0.66559531644E+02  0.47000000000E+01 0. -1.
        -13    1    6    6    0    0  0.41758520485E+02  0.19435244908E+02  0.12570102975E+03  0.13387401413E+03  0.00000000000E+00 0.  1.
         14    1    6    6    0    0 -0.49308775322E+01  0.53787657918E+02  0.44138332422E+03  0.44467590962E+03  0.00000000000E+00 0. -1.
         -5    1    3    3    0  503  0.22182099399E+02 -0.98173854086E+02  0.98094781902E+02  0.14062299739E+03  0.47000000000E+01 0.  1.
         13    1    4    4    0    0 -0.11328869177E+01 -0.12651394434E+02 -0.93771629439E+01  0.15788362764E+02  0.00000000000E+00 0. -1.
        -14    1    4    4    0    0 -0.15183914189E+02  0.38909013250E+02  0.10378612378E+03  0.11187502872E+03  0.00000000000E+00 0.  1.
</event>
<event>
12    1  0.1681255E-001  0.1923922E+03  0.7818608E-02  0.1156448E+00
         21   -1    0    0  503  502  0.00000000000E+00  0.00000000000E+00  0.81232144244E+03  0.81232144244E+03  0.00000000000E+00 0.  1.
         21   -1    0    0  501  503 -0.00000000000E+00 -0.00000000000E+00 -0.11913664657E+03  0.11913664657E+03  0.00000000000E+00 0. -1.
          6    2    1    2  501    0  0.82234807833E+02 -0.32830159777E+02 -0.19923793757E+02  0.19285221923E+03  0.17016062380E+03 0.  0.
         24    2    3    3    0    0  0.52722647720E+02 -0.86792002378E+02 -0.10765690923E+02  0.13049190413E+03  0.81238584944E+02 0.  0.
         -6    2    1    2    0  502 -0.82234807833E+02  0.32830159777E+02  0.71310858963E+03  0.73860586977E+03  0.17080511483E+03 0.  0.
        -24    2    5    5    0    0 -0.44434246682E+02  0.85850016316E+02  0.50923737969E+03  0.52453684386E+03  0.80446032345E+02 0.  0.
          5    1    3    3  501    0  0.29512160113E+02  0.53961842601E+02 -0.91581028346E+01  0.62360315097E+02  0.47000000000E+01 0. -1.
        -11    1    4    4    0    0  0.62973097565E+02 -0.74801407666E+02  0.16334676298E+02  0.99134672318E+02  0.00000000000E+00 0.  1.
         12    1    4    4    0    0 -0.10250449845E+02 -0.11990594712E+02 -0.27100367221E+02  0.31357231815E+02  0.00000000000E+00 0. -1.
         -5    1    5    5    0  502 -0.37800561151E+02 -0.53019856539E+02  0.20387120994E+03  0.21406902591E+03  0.47000000000E+01 0.  1.
         13    1    6    6    0    0 -0.35220628401E+02  0.18421513267E+02  0.73889298050E+02  0.83901568415E+02  0.00000000000E+00 0. -1.
        -14    1    6    6    0    0 -0.92136182809E+01  0.67428503049E+02  0.43534808164E+03  0.44063527545E+03  0.00000000000E+00 0.  1.
</event>
<event>
12    1  0.1681255E-001  0.3427870E+03  0.7818608E-02  0.1065801E+00
         21   -1    0    0  503  502  0.00000000000E+00  0.00000000000E+00  0.10110110114E+04  0.10110110114E+04  0.00000000000E+00 0. -1.
         21   -1    0    0  501  503 -0.00000000000E+00 -0.00000000000E+00 -0.12567138899E+03  0.12567138899E+03  0.00000000000E+00 0.  1.
          6    2    1    2  501    0 -0.18531919170E+03  0.23125558636E+03  0.60437579396E+03  0.69481868279E+03  0.17228044751E+03 0.  0.
         24    2    3    3    0    0 -0.50204349107E+02  0.11564186601E+03  0.17330573743E+03  0.22848614408E+03  0.79230811980E+02 0.  0.
         -6    2    1    2    0  502  0.18531919170E+03 -0.23125558636E+03  0.28096382848E+03  0.44186371762E+03  0.16876173443E+03 0.  0.
        -24    2    5    5    0    0  0.31932015819E+02 -0.43076124808E+02  0.56143789916E+02  0.11094790475E+03  0.79259739206E+02 0.  0.
          5    1    3    3  501    0 -0.13511484259E+03  0.11561372035E+03  0.43107005653E+03  0.46633253871E+03  0.47000000000E+01 0. -1.
        -13    1    4    4    0    0  0.10333076735E+02  0.71214805185E+01  0.56725786843E+02  0.58097356674E+02  0.00000000000E+00 0.  1.
         14    1    4    4    0    0 -0.60537425842E+02  0.10852038549E+03  0.11657995058E+03  0.17038878740E+03  0.00000000000E+00 0. -1.
         -5    1    5    5    0  502  0.15338717588E+03 -0.18817946155E+03  0.22482003856E+03  0.33091581288E+03  0.47000000000E+01 0.  1.
         13    1    6    6    0    0  0.31897848479E+02  0.14524158339E+02  0.81759351510E+01  0.35989857302E+02  0.00000000000E+00 0. -1.
        -14    1    6    6    0    0  0.34167340472E-01 -0.57600283148E+02  0.47967854764E+02  0.74958047445E+02  0.00000000000E+00 0.  1.
</event>
<event>
12    1  0.1681255E-001  0.1935015E+03  0.7818608E-02  0.1158614E+00
         21   -1    0    0  503  502  0.00000000000E+00  0.00000000000E+00  0.42494965060E+03  0.42494965060E+03  0.00000000000E+00 0.  1.
         21   -1    0    0  501  503 -0.00000000000E+00 -0.00000000000E+00 -0.10185119979E+03  0.10185119979E+03  0.00000000000E+00 0.  1.
          6    2    1    2  501    0  0.38971962475E+02 -0.32138198781E+02  0.39588471916E+02  0.18355056998E+03  0.17196478404E+03 0.  0.
         24    2    3    3    0    0  0.58195376128E+02 -0.59510745378E+02  0.72876091971E+02  0.13612745759E+03  0.79319161060E+02 0.  0.
         -6    2    1    2    0  502 -0.38971962475E+02  0.32138198781E+02  0.28350997890E+03  0.34325028041E+03  0.18679178030E+03 0.  0.
        -24    2    5    5    0    0 -0.13580089084E+02 -0.19117273896E+02  0.27227119366E+03  0.28476719733E+03  0.80067876171E+02 0.  0.
          5    1    3    3  501    0 -0.19223413653E+02  0.27372546597E+02 -0.33287620055E+02  0.47423112388E+02  0.47000000000E+01 0. -1.
        -13    1    4    4    0    0  0.32698668544E+02 -0.51027871183E+01 -0.92547343521E+01  0.34364101455E+02  0.00000000000E+00 0.  1.
         14    1    4    4    0    0  0.25496707584E+02 -0.54407958260E+02  0.82130826323E+02  0.10176335614E+03  0.00000000000E+00 0. -1.
         -5    1    5    5    0  502 -0.25391873390E+02  0.51255472677E+02  0.11238785234E+02  0.58483083085E+02  0.47000000000E+01 0.  1.
         11    1    6    6    0    0 -0.41300915049E+02 -0.14882824876E+02  0.87661310874E+02  0.98039632212E+02  0.00000000000E+00 0. -1.
        -12    1    6    6    0    0  0.27720825965E+02 -0.42344490204E+01  0.18460988279E+03  0.18672756512E+03  0.00000000000E+00 0.  1.
</event>
<event>
12    1  0.1681255E-001  0.2154037E+03  0.7818608E-02  0.1137615E+00
         21   -1    0    0  503  502  0.00000000000E+00  0.00000000000E+00  0.13146427839E+03  0.13146427839E+03  0.00000000000E+00 0.  1.
         21   -1    0    0  501  503 -0.00000000000E+00 -0.00000000000E+00 -0.48347363852E+03  0.48347363852E+03  0.00000000000E+00 0.  1.
          6    2    1    2  501    0 -0.12555210460E+03  0.15682246104E+02 -0.33750888402E+03  0.40038854252E+03  0.17432577083E+03 0.  0.
         24    2    3    3    0    0 -0.25089705897E+02  0.40021018179E+02 -0.24307018180E+03  0.26029633054E+03  0.80248932561E+02 0.  0.
         -6    2    1    2    0  502  0.12555210460E+03 -0.15682246104E+02 -0.14500476116E+02  0.21454937439E+03  0.17266124763E+03 0.  0.
        -24    2    5    5    0    0  0.90371806913E+01  0.41768141945E+01 -0.39837569607E+02  0.93577608783E+02  0.84086981761E+02 0.  0.
          5    1    3    3  501    0 -0.10046239870E+03 -0.24338772075E+02 -0.94438702220E+02  0.14009221197E+03  0.47000000000E+01 0. -1.
        -13    1    4    4    0    0 -0.32187502217E+02  0.14251415595E+02 -0.32100428839E+02  0.47640063781E+02  0.00000000000E+00 0.  1.
         14    1    4    4    0    0  0.70977963195E+01  0.25769602584E+02 -0.21096975296E+03  0.21265626676E+03  0.00000000000E+00 0. -1.
         -5    1    5    5    0  502  0.11651492390E+03 -0.19859060298E+02  0.25337093491E+02  0.12097176561E+03  0.47000000000E+01 0.  1.
         11    1    6    6    0    0 -0.28122976877E+02 -0.19467308274E+02 -0.20930043126E-01  0.34203484588E+02  0.00000000000E+00 0. -1.
        -12    1    6    6    0    0  0.37160157568E+02  0.23644122469E+02 -0.39816639564E+02  0.59374124196E+02  0.00000000000E+00 0.  1.
</event>
<event>
12    1  0.1681255E-001  0.3252317E+03  0.7818608E-02  0.1073308E+00
         21   -1    0    0  503  502  0.00000000000E+00  0.00000000000E+00  0.20127348246E+03  0.20127348246E+03  0.00000000000E+00 0. -1.
         21   -1    0    0  501  503 -0.00000000000E+00 -0.00000000000E+00 -0.72355958578E+03  0.72355958578E+03  0.00000000000E+00 0.  1.
          6    2    1    2  501    0 -0.26412314683E+03 -0.79694241945E+02 -0.18973595503E+02  0.32578467338E+03  0.17223079631E+03 0.  0.
         24    2    3    3    0    0 -0.76804902779E+02 -0.43498975156E+02 -0.55349483382E+02  0.13150776506E+03  0.80246950278E+02 0.  0.
         -6    2    1    2    0  502  0.26412314683E+03  0.79694241945E+02 -0.50331250782E+03  0.59904839485E+03  0.17153218344E+03 0.  0.
        -24    2    5    5    0    0  0.84884210291E+02  0.45645139224E+02 -0.11088506443E+03  0.16625823081E+03  0.77829903677E+02 0.  0.
          5    1    3    3  501    0 -0.18731824405E+03 -0.36195266789E+02  0.36375887879E+02  0.19427690833E+03  0.47000000000E+01 0. -1.
        -13    1    4    4    0    0 -0.37014265313E+01  0.20532670010E+02 -0.28643951106E+01  0.21059341287E+02  0.00000000000E+00 0.  1.
         14    1    4    4    0    0 -0.73103476248E+02 -0.64031645166E+02 -0.52485088271E+02  0.11044842377E+03  0.00000000000E+00 0. -1.
         -5    1    5    5    0  502  0.17923893653E+03  0.34049102720E+02 -0.39242744339E+03  0.43279016404E+03  0.47000000000E+01 0.  1.
         13    1    6    6    0    0  0.29756236845E+02 -0.26266431813E+01 -0.82388792191E+02  0.87637012524E+02  0.00000000000E+00 0. -1.
        -14    1    6    6    0    0  0.55127973446E+02  0.48271782406E+02 -0.28496272239E+02  0.78621218284E+02  0.00000000000E+00 0.  1.
</event>
<event>
12    1  0.1681255E-001  0.2061200E+03  0.7818608E-02  0.1144803E+00
         21   -1    0    0  501  502  0.00000000000E+00  0.00000000000E+00  0.49887323886E+02  0.49887323886E+02  0.00000000000E+00 0.  1.
         21   -1    0    0  502  503 -0.00000000000E+00 -0.00000000000E+00 -0.84906583401E+03  0.84906583401E+03  0.00000000000E+00 0.  1.
         -6    2    1    2    0  503 -0.56341931158E+02  0.98191205648E+02 -0.40183447332E+03  0.45161532597E+03  0.17224846191E+03 0.  0.
        -24    2    3    3    0    0  0.60975065005E+01  0.11572094380E+03 -0.25777986771E+03  0.29356535130E+03  0.79382862575E+02 0.  0.
          6    2    1    2  501    0  0.56341931158E+02 -0.98191205648E+02 -0.39734403680E+03  0.44733783192E+03  0.17150197146E+03 0.  0.
         24    2    5    5    0    0  0.83203858653E+02 -0.40165235076E+02 -0.16786200992E+03  0.20906767628E+03  0.83639169570E+02 0.  0.
          5    1    5    5  501    0 -0.26861927495E+02 -0.58025970572E+02 -0.22948202688E+03  0.23827015564E+03  0.47000000000E+01 0. -1.
        -13    1    6    6    0    0 -0.64942977779E+01 -0.31020177193E+02 -0.64784238749E+02  0.72120904646E+02  0.00000000000E+00 0.  1.
         14    1    6    6    0    0  0.89698156431E+02 -0.91450578831E+01 -0.10307777117E+03  0.13694677163E+03  0.00000000000E+00 0. -1.
         -5    1    3    3    0  503 -0.62439437658E+02 -0.17529738150E+02 -0.14405460561E+03  0.15804997467E+03  0.47000000000E+01 0.  1.
         13    1    4    4    0    0  0.29012347199E+02  0.24084517483E+02 -0.34421895187E+02  0.51055334105E+02  0.00000000000E+00 0. -1.
        -14    1    4    4    0    0 -0.22914840698E+02  0.91636426315E+02 -0.22335797252E+03  0.24251001720E+03  0.00000000000E+00 0.  1.
</event>
<event>
12    1  0.1681255E-001  0.1826101E+03  0.7818608E-02  0.1165466E+00
         21   -1    0    0  503  502  0.00000000000E+00  0.00000000000E+00  0.10570101329E+03  0.10570101329E+03  0.00000000000E+00 0. -1.
         21   -1    0    0  501  503 -0.00000000000E+00 -0.00000000000E+00 -0.42209397529E+03  0.42209397529E+03  0.00000000000E+00 0. -1.
          6    2    1    2  501    0  0.59845213251E+02  0.70231222456E+01 -0.29134662287E+03  0.34347520280E+03  0.17164377788E+03 0.  0.
         24    2    3    3    0    0 -0.33486297432E+02 -0.89040636873E+01 -0.12399282751E+03  0.15113740370E+03  0.79168674736E+02 0.  0.
         -6    2    1    2    0  502 -0.59845213251E+02 -0.70231222456E+01 -0.25046339137E+02  0.18431978578E+03  0.17238239623E+03 0.  0.
        -24    2    5    5    0    0 -0.10323263468E+03  0.17952075785E+02 -0.12893984604E+02  0.13258973093E+03  0.80215509855E+02 0.  0.
          5    1    3    3  501    0  0.93331510683E+02  0.15927185933E+02 -0.16735379536E+03  0.19233779909E+03  0.47000000000E+01 0. -1.
        -11    1    4    4    0    0 -0.19452609298E+01  0.11805056777E+02 -0.11037751350E+03  0.11102404646E+03  0.00000000000E+00 0.  1.
         12    1    4    4    0    0 -0.31541036503E+02 -0.20709120464E+02 -0.13615314007E+02  0.40113357246E+02  0.00000000000E+00 0. -1.
         -5    1    5    5    0  502  0.43387421425E+02 -0.24975198031E+02 -0.12152354533E+02  0.51730054854E+02  0.47000000000E+01 0.  1.
         11    1    6    6    0    0 -0.38947452429E+02 -0.33868314043E+01  0.32676914273E+02  0.50952481825E+02  0.00000000000E+00 0. -1.
        -12    1    6    6    0    0 -0.64285182246E+02  0.21338907189E+02 -0.45570898877E+02  0.81637249102E+02  0.00000000000E+00 0.  1.
</event>
<event>
12    1  0.1681255E-001  0.2135285E+03  0.7818608E-02  0.1139236E+00
         21   -1    0    0  501  502  0.00000000000E+00  0.00000000000E+00  0.34385106064E+03  0.34385106064E+03  0.00000000000E+00 0. -1.
         21   -1    0    0  502  503 -0.00000000000E+00 -0.00000000000E+00 -0.13136377923E+03  0.13136377923E+03  0.00000000000E+00 0.  1.
         -6    2    1    2    0  503  0.12087613354E+03 -0.21834052614E+02  0.98944147417E+02  0.23533880498E+03  0.17466151067E+03 0.  0.
        -24    2    3    3    0    0  0.20724249208E+02  0.13366510408E+01  0.10476843150E+03  0.13226944131E+03  0.78022430896E+02 0.  0.
          6    2    1    2  501    0 -0.12087613354E+03  0.21834052614E+02  0.11354313399E+03  0.23987603488E+03  0.17193226376E+03 0.  0.
         24    2    5    5    0    0 -0.11175934659E+03 -0.30253690864E+01  0.14405944415E+03  0.19920120437E+03  0.80179124242E+02 0.  0.
          5    1    5    5  501    0 -0.91167869515E+01  0.24859421700E+02 -0.30516310159E+02  0.40674830514E+02  0.47000000000E+01 0. -1.
        -13    1    6    6    0    0 -0.71292019769E+02  0.35341783795E+02  0.66646963678E+02  0.10379504580E+03  0.00000000000E+00 0.  1.
         14    1    6    6    0    0 -0.40467326819E+02 -0.38367152881E+02  0.77412480472E+02  0.95406158570E+02  0.00000000000E+00 0. -1.
         -5    1    3    3    0  503  0.10015188433E+03 -0.23170703654E+02 -0.58242840874E+01  0.10306936367E+03  0.47000000000E+01 0.  1.
         11    1    4    4    0    0  0.44425264988E+02  0.20922306827E+02  0.73685956322E+02  0.88549236311E+02  0.00000000000E+00 0. -1.
        -12    1    4    4    0    0 -0.23701015780E+02 -0.19585655786E+02  0.31082475183E+02  0.43720204998E+02  0.00000000000E+00 0.  1.
</event>
<event>
12    1  0.1681255E-001  0.1961229E+03  0.7818608E-02  0.1153162E+00
         21   -1    0    0  503  502  0.00000000000E+00  0.00000000000E+00  0.15919274977E+03  0.15919274977E+03  0.00000000000E+00 0.  1.
         21   -1    0    0  501  503 -0.00000000000E+00 -0.00000000000E+00 -0.38905746666E+03  0.38905746666E+03  0.00000000000E+00 0. -1.
          6    2    1    2  501    0 -0.80060611862E+02  0.48433562808E+02 -0.28394835247E+03  0.34480674383E+03  0.17178332906E+03 0.  0.
         24    2    3    3    0    0 -0.74829390683E+02 -0.48392929421E+01 -0.26699589789E+03  0.28846103813E+03  0.79373198015E+02 0.  0.
         -6    2    1    2    0  502  0.80060611862E+02 -0.48433562808E+02  0.54083635574E+02  0.20344347260E+03  0.17236210526E+03 0.  0.
        -24    2    5    5    0    0  0.10205546271E+03 -0.38564372458E+02 -0.90442204537E+01  0.13570581256E+03  0.80198138046E+02 0.  0.
          5    1    3    3  501    0 -0.52312211789E+01  0.53272855750E+02 -0.16952454581E+02  0.56345705702E+02  0.47000000000E+01 0. -1.
        -11    1    4    4    0    0 -0.19197535201E+02  0.99678269499E+00 -0.40684592240E+01  0.19649205938E+02  0.00000000000E+00 0.  1.
         12    1    4    4    0    0 -0.55631855482E+02 -0.58360756371E+01 -0.26292743866E+03  0.26881183219E+03  0.00000000000E+00 0. -1.
         -5    1    5    5    0  502 -0.21994850847E+02 -0.98691903499E+01  0.63127856027E+02  0.67737660046E+02  0.47000000000E+01 0.  1.
         11    1    6    6    0    0  0.42622104358E+02 -0.58649210524E+02 -0.14787602293E+01  0.72515932089E+02  0.00000000000E+00 0. -1.
        -12    1    6    6    0    0  0.59433358351E+02  0.20084838066E+02 -0.75654602244E+01  0.63189880467E+02  0.00000000000E+00 0.  1.
</event>
<event>
12    1  0.1681255E-001  0.3659387E+03  0.7818608E-02  0.1056304E+00
         21   -1    0    0  503  502  0.00000000000E+00  0.00000000000E+00  0.13270068884E+04  0.13270068884E+04  0.00000000000E+00 0.  1.
         21   -1    0    0  501  503 -0.00000000000E+00 -0.00000000000E+00 -0.11230573412E+03  0.11230573412E+03  0.00000000000E+00 0.  1.
          6    2    1    2  501    0  0.28299765247E+03 -0.15454410178E+03  0.37714072040E+03  0.52549617207E+03  0.17303049783E+03 0.  0.
         24    2    3    3    0    0  0.89346310822E+02 -0.11074401056E+03  0.12899439036E+03  0.20766291197E+03  0.78976788560E+02 0.  0.
         -6    2    1    2    0  502 -0.28299765247E+03  0.15454410178E+03  0.83756043392E+03  0.91381645050E+03  0.17199265692E+03 0.  0.
        -24    2    5    5    0    0 -0.61409630110E+02  0.15312711358E+02  0.24670337163E+03  0.26758058815E+03  0.82043864972E+02 0.  0.
          5    1    3    3  501    0  0.19365134164E+03 -0.43800091220E+02  0.24814633003E+03  0.31783326009E+03  0.47000000000E+01 0. -1.
        -13    1    4    4    0    0  0.53485973416E+02 -0.42924393402E+02  0.14908851451E+02  0.70182097096E+02  0.00000000000E+00 0.  1.
         14    1    4    4    0    0  0.35860337405E+02 -0.67819617163E+02  0.11408553891E+03  0.13748081488E+03  0.00000000000E+00 0. -1.
         -5    1    5    5    0  502 -0.22158802236E+03  0.13923139043E+03  0.59085706228E+03  0.64623586235E+03  0.47000000000E+01 0.  1.
         11    1    6    6    0    0 -0.29370562176E+02  0.47280994401E+02  0.10523351454E+03  0.11904711226E+03  0.00000000000E+00 0. -1.
        -12    1    6    6    0    0 -0.32039067934E+02 -0.31968283043E+02  0.14146985709E+03  0.14853347589E+03  0.00000000000E+00 0.  1.
</event>
<event>
12    1  0.1681255E-001  0.2087849E+03  0.7818608E-02  0.1142632E+00
         21   -1    0    0  503  502  0.00000000000E+00  0.00000000000E+00  0.28306009356E+03  0.28306009356E+03  0.00000000000E+00 0. -1.
         21   -1    0    0  501  503 -0.00000000000E+00 -0.00000000000E+00 -0.19601817885E+03  0.19601817885E+03  0.00000000000E+00 0. -1.
          6    2    1    2  501    0 -0.11740809784E+03 -0.57833964147E+01 -0.67908608936E+02  0.21907676626E+03  0.17194458769E+03 0.  0.
         24    2    3    3    0    0 -0.76307551651E+02 -0.45902648247E+02 -0.98797913586E+02  0.15369291193E+03  0.77010310316E+02 0.  0.
         -6    2    1    2    0  502  0.11740809784E+03  0.57833964147E+01  0.15495052365E+03  0.26000150614E+03  0.17254857086E+03 0.  0.
        -24    2    5    5    0    0  0.13997340697E+03  0.13518655798E+02  0.80000842079E+02  0.18120701280E+03  0.81612119447E+02 0.  0.
          5    1    3    3  501    0 -0.41100546191E+02  0.40119251833E+02  0.30889304649E+02  0.65383854326E+02  0.47000000000E+01 0. -1.
        -13    1    4    4    0    0  0.65993803601E+01 -0.18338828489E+02  0.28052372324E+01  0.19690957504E+02  0.00000000000E+00 0.  1.
         14    1    4    4    0    0 -0.82906932011E+02 -0.27563819758E+02 -0.10160315082E+03  0.13400195443E+03  0.00000000000E+00 0. -1.
         -5    1    5    5    0  502 -0.22565309133E+02 -0.77352593838E+01  0.74949681567E+02  0.78794493342E+02  0.47000000000E+01 0.  1.
         11    1    6    6    0    0  0.74672231296E+02  0.81410746607E+00  0.86604546956E+02  0.11435450341E+03  0.00000000000E+00 0. -1.
        -12    1    6    6    0    0  0.65301175678E+02  0.12704548332E+02 -0.66037048772E+01  0.66852509388E+02  0.00000000000E+00 0.  1.
</event>
<event>
12    1  0.1681255E-001  0.1999119E+03  0.7818608E-02  0.1150171E+00
         21   -1    0    0  503  502  0.00000000000E+00  0.00000000000E+00  0.41909694874E+03  0.41909694874E+03  0.00000000000E+00 0. -1.
         21   -1    0    0  501  503 -0.00000000000E+00 -0.00000000000E+00 -0.99750002821E+02  0.99750002821E+02  0.00000000000E+00 0.  1.
          6    2    1    2  501    0 -0.87205012461E+02 -0.48019302693E+02  0.21822323827E+03  0.29481401692E+03  0.17141573797E+03 0.  0.
         24    2    3    3    0    0 -0.69813411737E+02 -0.89184783883E+02  0.19411366802E+03  0.24381964473E+03  0.94551916484E+02 0.  0.
         -6    2    1    2    0  502  0.87205012461E+02  0.48019302693E+02  0.10112370766E+03  0.22403293465E+03  0.17336142572E+03 0.  0.
        -24    2    5    5    0    0  0.28349710165E+02 -0.12286099637E+02 -0.94157671220E+01  0.84958301291E+02  0.78578635628E+02 0.  0.
          5    1    3    3  501    0 -0.17391600724E+02  0.41165481190E+02  0.24109570250E+02  0.50994372189E+02  0.47000000000E+01 0. -1.
        -11    1    4    4    0    0  0.28862016237E+01 -0.28774642440E+02  0.11422598134E+01  0.28941578478E+02  0.00000000000E+00 0.  1.
         12    1    4    4    0    0 -0.72699613361E+02 -0.60410141443E+02  0.19297140820E+03  0.21487806625E+03  0.00000000000E+00 0. -1.
         -5    1    5    5    0  502  0.58855302296E+02  0.60305402330E+02  0.11053947478E+03  0.13907463335E+03  0.47000000000E+01 0.  1.
         13    1    6    6    0    0 -0.23590736018E+02 -0.34305022450E+01  0.13617213777E+02  0.27453955682E+02  0.00000000000E+00 0. -1.
        -14    1    6    6    0    0  0.51940446183E+02 -0.88555973924E+01 -0.23032980899E+02  0.57504345609E+02  0.00000000000E+00 0.  1.
</event>
<event>
12    1  0.1681255E-001  0.2599817E+03  0.7818608E-02  0.1107343E+00
         21   -1    0    0  503  502  0.00000000000E+00  0.00000000000E+00  0.68173120566E+03  0.68173120566E+03  0.00000000000E+00 0. -1.
         21   -1    0    0  501  503 -0.00000000000E+00 -0.00000000000E+00 -0.99453667438E+02  0.99453667438E+02  0.00000000000E+00 0.  1.
          6    2    1    2  501    0 -0.19440872586E+03  0.93387948635E+00  0.32513489398E+03  0.41551724874E+03  0.17072275739E+03 0.  0.
         24    2    3    3    0    0 -0.19776282715E+03  0.32208203074E+02  0.31591370514E+03  0.38240450746E+03  0.79273161189E+02 0.  0.
         -6    2    1    2    0  502  0.19440872586E+03 -0.93387948635E+00  0.25714264424E+03  0.36566762436E+03  0.17261183967E+03 0.  0.
        -24    2    5    5    0    0  0.11749922101E+03 -0.26564369747E+02  0.24343228087E+03  0.28331437287E+03  0.80597926928E+02 0.  0.
          5    1    3    3  501    0  0.33541012821E+01 -0.31274323587E+02  0.92211888395E+01  0.33112741277E+02  0.47000000000E+01 0. -1.
        -11    1    4    4    0    0 -0.58043835313E+02  0.16070727162E+02  0.38806589763E+02  0.71647096929E+02  0.00000000000E+00 0.  1.
         12    1    4    4    0    0 -0.13971899183E+03  0.16137475912E+02  0.27710711538E+03  0.31075741053E+03  0.00000000000E+00 0. -1.
         -5    1    5    5    0  502  0.76909504851E+02  0.25630490261E+02  0.13710363369E+02  0.82353251491E+02  0.47000000000E+01 0.  1.
         11    1    6    6    0    0  0.39609770040E+02 -0.39729704508E+02  0.53124926761E+02  0.77263452850E+02  0.00000000000E+00 0. -1.
        -12    1    6    6    0    0  0.77889450972E+02  0.13165334760E+02  0.19030735411E+03  0.20605092002E+03  0.00000000000E+00 0.  1.
</event>
<event>
12    1  0.1681255E-001  0.2041541E+03  0.7818608E-02  0.1146395E+00
         21   -1    0    0  501  502  0.00000000000E+00  0.00000000000E+00  0.78293869581E+03  0.78293869581E+03  0.00000000000E+00 0. -1.
         21   -1    0    0  502  503 -0.00000000000E+00 -0.00000000000E+00 -0.60789968037E+02  0.60789968037E+02  0.00000000000E+00 0.  1.
         -6    2    1    2    0  503  0.81290641523E+02  0.74305708642E+02  0.51165016436E+03  0.55087639938E+03  0.17189941815E+03 0.  0.
        -24    2    3    3    0    0  0.11523929083E+03  0.25504865988E+02  0.39598258733E+03  0.42074142556E+03  0.79312958425E+02 0.  0.
          6    2    1    2  501    0 -0.81290641523E+02 -0.74305708642E+02  0.21049856341E+03  0.29285226448E+03  0.17124046506E+03 0.  0.
         24    2    5    5    0    0  0.20647592033E+02 -0.27239642816E+02  0.12099089719E+03  0.14918483488E+03  0.80305644626E+02 0.  0.
          5    1    5    5  501    0 -0.10193823356E+03 -0.47066065826E+02  0.89507666227E+02  0.14366742959E+03  0.47000000000E+01 0. -1.
        -13    1    6    6    0    0 -0.19626769054E+02 -0.39376651223E+02  0.74226596262E+02  0.86286257989E+02  0.00000000000E+00 0.  1.
         14    1    6    6    0    0  0.40274361087E+02  0.12137008407E+02  0.46764300925E+02  0.62898576892E+02  0.00000000000E+00 0. -1.
         -5    1    3    3    0  503 -0.33948649306E+02  0.48800842654E+02  0.11566757704E+03  0.13013497382E+03  0.47000000000E+01 0.  1.
         13    1    4    4    0    0  0.47386565011E+02  0.32600499446E+02  0.86841817205E+02  0.10416227879E+03  0.00000000000E+00 0. -1.
        -14    1    4    4    0    0  0.67852725818E+02 -0.70956334578E+01  0.30914077012E+03  0.31657914677E+03  0.00000000000E+00 0.  1.
</event>
<event>
12    1  0.1681255E-001  0.2068539E+03  0.7818608E-02  0.1144204E+00
         21   -1    0    0  501  502  0.00000000000E+00  0.00000000000E+00  0.23279920475E+04  0.23279920475E+04  0.00000000000E+00 0. -1.
         21   -1    0    0  502  503 -0.00000000000E+00 -0.00000000000E+00 -0.63493362677E+02  0.63493362677E+02  0.00000000000E+00 0. -1.
         -6    2    1    2    0  503 -0.44103381421E+02  0.10509558038E+03  0.12325450776E+03  0.24027292004E+03  0.17189884570E+03 0.  0.
        -24    2    3    3    0    0 -0.56873493772E+02  0.10972891729E+03  0.14978818733E+03  0.21009561512E+03  0.80178780519E+02 0.  0.
          6    2    1    2  501    0  0.44103381421E+02 -0.10509558038E+03  0.21412441771E+04  0.21512124902E+04  0.17262202245E+03 0.  0.
         24    2    5    5    0    0 -0.17987484507E+02 -0.71579787960E+02  0.70360616000E+03  0.71183632593E+03  0.78753481703E+02 0.  0.
          5    1    5    5  501    0  0.62090865928E+02 -0.33515792417E+02  0.14376380171E+04  0.14393761642E+04  0.47000000000E+01 0. -1.
        -13    1    6    6    0    0  0.89528518290E+01 -0.43201889351E+02  0.13806414195E+03  0.14494227848E+03  0.00000000000E+00 0.  1.
         14    1    6    6    0    0 -0.26940336336E+02 -0.28377898609E+02  0.56554201804E+03  0.56689404744E+03  0.00000000000E+00 0. -1.
         -5    1    3    3    0  503  0.12770112351E+02 -0.46333369176E+01 -0.26533679572E+02  0.30177304918E+02  0.47000000000E+01 0.  1.
         11    1    4    4    0    0 -0.41671551477E+02  0.69530613999E+02  0.36444378723E+02  0.88877540616E+02  0.00000000000E+00 0. -1.
        -12    1    4    4    0    0 -0.15201942296E+02  0.40198303296E+02  0.11334380861E+03  0.12121807451E+03  0.00000000000E+00 0.  1.
</event>
<event>
12    1  0.1681255E-001  0.1913050E+03  0.7818608E-02  0.1158278E+00
         21   -1    0    0  501  502  0.00000000000E+00  0.00000000000E+00  0.43406612424E+03  0.43406612424E+03  0.00000000000E+00 0.  1.
         21   -1    0    0  502  503 -0.00000000000E+00 -0.00000000000E+00 -0.33672628626E+03  0.33672628626E+03  0.00000000000E+00 0.  1.
         -6    2    1    2    0  503  0.54463359723E+02 -0.61309353098E+02 -0.28612568475E+03  0.34418817805E+03  0.17283662838E+03 0.  0.
        -24    2    3    3    0    0 -0.19007246965E+02 -0.45635725865E+02 -0.73094956147E+02  0.11825063366E+03  0.78717500178E+02 0.  0.
          6    2    1    2  501    0 -0.54463359723E+02  0.61309353098E+02  0.38346552273E+03  0.42660423245E+03  0.16798889751E+03 0.  0.
         24    2    5    5    0    0 -0.18875703275E+02  0.32713379322E+02  0.36632598802E+03  0.37761377768E+03  0.83492384325E+02 0.  0.
          5    1    5    5  501    0 -0.35587656448E+02  0.28595973775E+02  0.17139534718E+02  0.48990454764E+02  0.47000000000E+01 0. -1.
        -13    1    6    6    0    0  0.32457872042E+02  0.43967571957E+01  0.11802688289E+03  0.12248750963E+03  0.00000000000E+00 0.  1.
         14    1    6    6    0    0 -0.51333575317E+02  0.28316622127E+02  0.24829910513E+03  0.25512626805E+03  0.00000000000E+00 0. -1.
         -5    1    3    3    0  503  0.73470606689E+02 -0.15673627232E+02 -0.21303072860E+03  0.22593754440E+03  0.47000000000E+01 0.  1.
         13    1    4    4    0    0  0.68889706049E+01 -0.28669276262E+02  0.87415352687E+01  0.30753857583E+02  0.00000000000E+00 0. -1.
        -14    1    4    4    0    0 -0.25896217570E+02 -0.16966449603E+02 -0.81836491415E+02  0.87496776076E+02  0.00000000000E+00 0.  1.
</event>
<event>
12    1  0.1681255E-001  0.1853003E+03  0.7818608E-02  0.1162976E+00
         21   -1    0    0  503  502  0.00000000000E+00  0.00000000000E+00  0.99963924826E+03  0.99963924826E+03  0.00000000000E+00 0. -1.
         21   -1    0    0  501  503 -0.00000000000E+00 -0.00000000000E+00 -0.65145556606E+02  0.65145556606E+02  0.00000000000E+00 0. -1.
          6    2    1    2  501    0 -0.28474566289E+02 -0.59969467681E+02  0.10081054331E+03  0.21094778404E+03  0.17300018489E+03 0.  0.
         24    2    3    3    0    0 -0.32732381179E+01  0.35025662059E+02  0.60828401428E+02  0.10474117744E+03  0.77673088913E+02 0.  0.
         -6    2    1    2    0  502  0.28474566289E+02  0.59969467681E+02  0.83368314835E+03  0.85383702082E+03  0.17205501537E+03 0.  0.
        -24    2    5    5    0    0 -0.32045469275E+02 -0.76120003984E+01  0.39195056932E+03  0.40286064571E+03  0.87101070177E+02 0.  0.
          5    1    3    3  501    0 -0.25201328171E+02 -0.94995129740E+02  0.39982141881E+02  0.10620660660E+03  0.47000000000E+01 0. -1.
        -11    1    4    4    0    0  0.35806420993E+02  0.21476554995E+02  0.42243898278E+02  0.59396036404E+02  0.00000000000E+00 0.  1.
         12    1    4    4    0    0 -0.39079659111E+02  0.13549107064E+02  0.18584503150E+02  0.45345141038E+02  0.00000000000E+00 0. -1.
         -5    1    5    5    0  502  0.60520035564E+02  0.67581468079E+02  0.44173257903E+03  0.45097637511E+03  0.47000000000E+01 0.  1.
         11    1    6    6    0    0 -0.12912953015E+02  0.20352417441E+02  0.33989843089E+03  0.34075197516E+03  0.00000000000E+00 0. -1.
        -12    1    6    6    0    0 -0.19132516261E+02 -0.27964417839E+02  0.52052138423E+02  0.62108670554E+02  0.00000000000E+00 0.  1.
</event>
<event>
12    1  0.1681255E-001  0.1988605E+03  0.7818608E-02  0.1151900E+00
         21   -1    0    0  503  502  0.00000000000E+00  0.00000000000E+00  0.51445090768E+02  0.51445090768E+02  0.00000000000E+00 0.  1.
         21   -1    0    0  501  503 -0.00000000000E+00 -0.00000000000E+00 -0.13778277325E+04  0.13778277325E+04  0.00000000000E+00 0.  1.
          6    2    1    2  501    0 -0.45072186314E+02 -0.78094691314E+02 -0.17474242808E+03  0.26058952026E+03  0.17100204416E+03 0.  0.
         24    2    3    3    0    0 -0.87897726070E+02 -0.75320549089E+02 -0.94993129271E+02  0.16990455248E+03  0.80278683238E+02 0.  0.
         -6    2    1    2    0  502  0.45072186314E+02  0.78094691314E+02 -0.11516402136E+04  0.11686833030E+04  0.17724333058E+03 0.  0.
        -24    2    5    5    0    0 -0.34245821326E+02  0.71097817779E+00 -0.54565977353E+03  0.55263625188E+03  0.80554060554E+02 0.  0.
          5    1    3    3  501    0  0.42825539755E+02 -0.27741422253E+01 -0.79749298811E+02  0.90684967780E+02  0.47000000000E+01 0. -1.
        -13    1    4    4    0    0 -0.40016571568E+02 -0.71773366066E+02 -0.89621580841E+02  0.12159263888E+03  0.00000000000E+00 0.  1.
         14    1    4    4    0    0 -0.47881154501E+02 -0.35471830228E+01 -0.53715484305E+01  0.48311913607E+02  0.00000000000E+00 0. -1.
         -5    1    5    5    0  502  0.79318007640E+02  0.77383713136E+02 -0.60598044007E+03  0.61604705107E+03  0.47000000000E+01 0.  1.
         13    1    6    6    0    0 -0.49053461461E+02  0.17292778651E+02 -0.21391664049E+03  0.22014906621E+03  0.00000000000E+00 0. -1.
        -14    1    6    6    0    0  0.14807640135E+02 -0.16581800474E+02 -0.33174313305E+03  0.33248718568E+03  0.00000000000E+00 0.  1.
</event>
<event>
12    1  0.1681255E-001  0.1741146E+03  0.7818608E-02  0.1173842E+00
         21   -1    0    0  503  502  0.00000000000E+00  0.00000000000E+00  0.15651693090E+03  0.15651693090E+03  0.00000000000E+00 0.  1.
         21   -1    0    0  501  503 -0.00000000000E+00 -0.00000000000E+00 -0.21240809411E+03  0.21240809411E+03  0.00000000000E+00 0.  1.
          6    2    1    2  501    0  0.22186190920E+02  0.14860077669E+02 -0.84148032698E+02  0.19338246889E+03  0.17205475550E+03 0.  0.
         24    2    3    3    0    0 -0.48285691097E+02 -0.15512644242E+02 -0.59847760158E+02  0.11275132331E+03  0.80987384301E+02 0.  0.
         -6    2    1    2    0  502 -0.22186190920E+02 -0.14860077669E+02  0.28256869488E+02  0.17554255612E+03  0.17118320408E+03 0.  0.
        -24    2    5    5    0    0  0.22258986537E+02 -0.40092134750E+02  0.65269266324E+02  0.11226508759E+03  0.78997031688E+02 0.  0.
          5    1    3    3  501    0  0.70471882018E+02  0.30372721911E+02 -0.24300272539E+02  0.80631145576E+02  0.47000000000E+01 0. -1.
        -13    1    4    4    0    0 -0.23577388371E+02 -0.48306220422E+02 -0.40826326971E+02  0.67499430722E+02  0.00000000000E+00 0.  1.
         14    1    4    4    0    0 -0.24708302726E+02  0.32793576180E+02 -0.19021433187E+02  0.45251892587E+02  0.00000000000E+00 0. -1.
         -5    1    5    5    0  502 -0.44445177457E+02  0.25232057081E+02 -0.37012396836E+02  0.63277468528E+02  0.47000000000E+01 0.  1.
         13    1    6    6    0    0  0.31119112937E+01 -0.24083493743E+02 -0.14771495620E+02  0.28423506920E+02  0.00000000000E+00 0. -1.
        -14    1    6    6    0    0  0.19147075243E+02 -0.16008641007E+02  0.80040761945E+02  0.83841580674E+02  0.00000000000E+00 0.  1.
</event>
<event>
12    1  0.1681255E-001  0.2479754E+03  0.7818608E-02  0.1115722E+00
         21   -1    0    0  501  502  0.00000000000E+00  0.00000000000E+00  0.87833280365E+02  0.87833280365E+02  0.00000000000E+00 0.  1.
         21   -1    0    0  502  503 -0.00000000000E+00 -0.00000000000E+00 -0.70266158529E+03  0.70266158529E+03  0.00000000000E+00 0.  1.
         -6    2    1    2    0  503 -0.15157147821E+03  0.74668759862E+02 -0.38177740550E+03  0.45524257409E+03  0.18150062591E+03 0.  0.
        -24    2    3    3    0    0 -0.64521352796E+02  0.45524864069E+01 -0.83454118334E+02  0.13663169887E+03  0.86717363724E+02 0.  0.
          6    2    1    2  501    0  0.15157147821E+03 -0.74668759862E+02 -0.23305089943E+03  0.33525229157E+03  0.17184888877E+03 0.  0.
         24    2    5    5    0    0  0.47122892184E+02 -0.33839902926E+02 -0.50813302944E+02  0.12122160626E+03  0.93525291074E+02 0.  0.
          5    1    5    5  501    0  0.10444858603E+03 -0.40828856936E+02 -0.18223759648E+03  0.21403068531E+03  0.47000000000E+01 0. -1.
        -13    1    6    6    0    0  0.61268065159E+02 -0.23102485743E+02 -0.69469307993E+02  0.95464576722E+02  0.00000000000E+00 0.  1.
         14    1    6    6    0    0 -0.14145172975E+02 -0.10737417183E+02  0.18656005049E+02  0.25757029538E+02  0.00000000000E+00 0. -1.
         -5    1    3    3    0  503 -0.87050125416E+02  0.70116273455E+02 -0.29832328716E+03  0.31861087521E+03  0.47000000000E+01 0.  1.
         11    1    4    4    0    0 -0.61068865378E+02 -0.31040139874E+02 -0.71265750945E+02  0.98851928963E+02  0.00000000000E+00 0. -1.
        -12    1    4    4    0    0 -0.34524874180E+01  0.35592626281E+02 -0.12188367389E+02  0.37779769911E+02  0.00000000000E+00 0.  1.
</event>
<event>
12    1  0.1681255E-001  0.2225868E+03  0.7818608E-02  0.1132189E+00
         21   -1    0    0  501  502  0.00000000000E+00  0.00000000000E+00  0.29696341522E+03  0.29696341522E+03  0.00000000000E+00 0.  1.
         21   -1    0    0  502  503 -0.00000000000E+00 -0.00000000000E+00 -0.20540977444E+03  0.20540977444E+03  0.00000000000E+00 0. -1.
         -6    2    1    2    0  503 -0.54834153404E+02  0.12812135047E+03 -0.64425606582E+02  0.23057473295E+03  0.17202378866E+03 0.  0.
        -24    2    3    3    0    0 -0.21139876739E+01  0.14145559361E+03 -0.38707613512E+02  0.17023632825E+03  0.86417441550E+02 0.  0.
          6    2    1    2  501    0  0.54834153404E+02 -0.12812135047E+03  0.15597924736E+03  0.27179845671E+03  0.17355981862E+03 0.  0.
         24    2    5    5    0    0  0.15964637471E+02 -0.74965916948E+02  0.17117251209E+03  0.20405434497E+03  0.80395201671E+02 0.  0.
          5    1    5    5  501    0  0.38869515933E+02 -0.53155433523E+02 -0.15193264737E+02  0.67744111739E+02  0.47000000000E+01 0. -1.
        -11    1    6    6    0    0 -0.26612191139E+02 -0.41470427134E+01  0.57766514873E+02  0.63736778402E+02  0.00000000000E+00 0.  1.
         12    1    6    6    0    0  0.42576828610E+02 -0.70818874235E+02  0.11340599722E+03  0.14031756657E+03  0.00000000000E+00 0. -1.
         -5    1    3    3    0  503 -0.52720165730E+02 -0.13334243138E+02 -0.25717993070E+02  0.60338404704E+02  0.47000000000E+01 0.  1.
         11    1    4    4    0    0 -0.28870170778E+02  0.12362893411E+03 -0.49585575280E+02  0.13629500866E+03  0.00000000000E+00 0. -1.
        -12    1    4    4    0    0  0.26756183104E+02  0.17826659503E+02  0.10877961768E+02  0.33941319590E+02  0.00000000000E+00 0.  1.
</event>
<event>
12    1  0.1681255E-001  0.1865443E+03  0.7818608E-02  0.1161625E+00
         21   -1    0    0  503  502  0.00000000000E+00  0.00000000000E+00  0.25347804106E+03  0.25347804106E+03  0.00000000000E+00 0. -1.
         21   -1    0    0  501  503 -0.00000000000E+00 -0.00000000000E+00 -0.13746644431E+03  0.13746644431E+03  0.00000000000E+00 0. -1.
          6    2    1    2  501    0  0.23527387486E+02 -0.68154247890E+02  0.50311469504E+02  0.19316867464E+03  0.17200102741E+03 0.  0.
         24    2    3    3    0    0  0.16302605100E+02 -0.25386614642E+02 -0.41997363101E+02  0.91069318559E+02  0.74963905577E+02 0.  0.
         -6    2    1    2    0  502 -0.23527387486E+02  0.68154247890E+02  0.65700127249E+02  0.19777581074E+03  0.17204715960E+03 0.  0.
        -24    2    5    5    0    0  0.34305262525E+02  0.81372184012E+02  0.11608618796E+02  0.11735622028E+03  0.76416222366E+02 0.  0.
          5    1    3    3  501    0  0.72247823858E+01 -0.42767633248E+02  0.92308832605E+02  0.10209935608E+03  0.47000000000E+01 0. -1.
        -11    1    4    4    0    0  0.37720732570E+02  0.97648898600E+01 -0.26327452367E+02  0.47024902847E+02  0.00000000000E+00 0.  1.
         12    1    4    4    0    0 -0.21418127470E+02 -0.35151504502E+02 -0.15669910734E+02  0.44044415713E+02  0.00000000000E+00 0. -1.
         -5    1    5    5    0  502 -0.57832650011E+02 -0.13217936121E+02  0.54091508453E+02  0.80419590457E+02  0.47000000000E+01 0.  1.
         11    1    6    6    0    0 -0.12870809362E+02  0.63957235375E+02  0.15042935330E+02  0.66951292697E+02  0.00000000000E+00 0. -1.
        -12    1    6    6    0    0  0.47176071887E+02  0.17414948636E+02 -0.34343165333E+01  0.50404927584E+02  0.00000000000E+00 0.  1.
</event>
<event>
12    1  0.1681255E-001  0.1939131E+03  0.7818608E-02  0.1156578E+00
         21   -1    0    0  501  502  0.00000000000E+00  0.00000000000E+00  0.29382916951E+03  0.29382916951E+03  0.00000000000E+00 0. -1.
         21   -1    0    0  502  503 -0.00000000000E+00 -0.00000000000E+00 -0.17362204442E+03  0.17362204442E+03  0.00000000000E+00 0. -1.
         -6    2    1    2    0  503 -0.16884018733E+02 -0.87581302915E+02  0.18671164551E+03  0.26919051065E+03  0.17218228058E+03 0.  0.
        -24    2    3    3    0    0  0.85353650457E+01  0.13321329197E+02  0.97660148291E+02  0.13215129949E+03  0.87613646908E+02 0.  0.
          6    2    1    2  501    0  0.16884018733E+02  0.87581302915E+02 -0.66504520414E+02  0.19826070328E+03  0.16410027580E+03 0.  0.
         24    2    5    5    0    0 -0.44407059348E+02  0.19668842776E+02 -0.21647148674E+02  0.96265741176E+02  0.80247389879E+02 0.  0.
          5    1    5    5  501    0  0.61291078080E+02  0.67912460139E+02 -0.44857371740E+02  0.10199496210E+03  0.47000000000E+01 0. -1.
        -11    1    6    6    0    0 -0.48353924760E+01  0.78728925290E+01 -0.46941377697E+02  0.47841994077E+02  0.00000000000E+00 0.  1.
         12    1    6    6    0    0 -0.39571666872E+02  0.11795950247E+02  0.25294229023E+02  0.48423747099E+02  0.00000000000E+00 0. -1.
         -5    1    3    3    0  503 -0.25419383778E+02 -0.10090263211E+03  0.89051497215E+02  0.13703921116E+03  0.47000000000E+01 0.  1.
         13    1    4    4    0    0 -0.19948057865E+01 -0.31669785195E+02  0.10367133095E+02  0.33383109398E+02  0.00000000000E+00 0. -1.
        -14    1    4    4    0    0  0.10530170832E+02  0.44991114392E+02  0.87293015196E+02  0.98768190092E+02  0.00000000000E+00 0.  1.
</event>
<event>
12    1  0.1681255E-001  0.1893043E+03  0.7818608E-02  0.1159587E+00
         21   -1    0    0  501  502  0.00000000000E+00  0.00000000000E+00  0.42163785078E+03  0.42163785078E+03  0.00000000000E+00 0.  1.
         21   -1    0    0  502  503 -0.00000000000E+00 -0.00000000000E+00 -0.31490783228E+03  0.31490783228E+03  0.00000000000E+00 0. -1.
         -6    2    1    2    0  503 -0.11653303736E+02 -0.76014535875E+02 -0.26205700119E+03  0.32200983557E+03  0.17059441134E+03 0.  0.
        -24    2    3    3    0    0  0.74859560012E+01 -0.12324437016E+01 -0.21991162826E+03  0.23393603111E+03  0.79419040242E+02 0.  0.
          6    2    1    2  501    0  0.11653303736E+02  0.76014535875E+02  0.36878701968E+03  0.41453584749E+03  0.17298003877E+03 0.  0.
         24    2    5    5    0    0  0.87320496898E+01  0.80322710128E+02  0.38338058170E+03  0.39834461088E+03  0.71901127494E+02 0.  0.
          5    1    5    5  501    0  0.29212540467E+01 -0.43081742529E+01 -0.14593562018E+02  0.16191236610E+02  0.47000000000E+01 0. -1.
        -11    1    6    6    0    0  0.48301195936E+01  0.25051303509E+02  0.27904449703E+03  0.28020836744E+03  0.00000000000E+00 0.  1.
         12    1    6    6    0    0  0.39019300962E+01  0.55271406618E+02  0.10433608468E+03  0.11813624344E+03  0.00000000000E+00 0. -1.
         -5    1    3    3    0  503 -0.19139259738E+02 -0.74782092173E+02 -0.42145372928E+02  0.88073804462E+02  0.47000000000E+01 0.  1.
         13    1    4    4    0    0  0.29699131651E+02 -0.29707949319E+02 -0.14156994876E+03  0.14767075224E+03  0.00000000000E+00 0. -1.
        -14    1    4    4    0    0 -0.22213175650E+02  0.28475505617E+02 -0.78341679498E+02  0.86265278874E+02  0.00000000000E+00 0.  1.
</event>
<event>
12    1  0.1681255E-001  0.1987425E+03  0.7818608E-02  0.1150818E+00
         21   -1    0    0  501  502  0.00000000000E+00  0.00000000000E+00  0.90666922520E+03  0.90666922520E+03  0.00000000000E+00 0. -1.
         21   -1    0    0  502  503 -0.00000000000E+00 -0.00000000000E+00 -0.44877992364E+02  0.44877992364E+02  0.00000000000E+00 0. -1.
         -6    2    1    2    0  503  0.39405758104E+02 -0.91182280314E+02  0.51265397326E+03  0.54980675854E+03  0.17206496860E+03 0.  0.
        -24    2    3    3    0    0  0.21155262107E+02 -0.10147971499E+03  0.50650268819E+03  0.52746741940E+03  0.10455251177E+03 0.  0.
          6    2    1    2  501    0 -0.39405758104E+02  0.91182280314E+02  0.34913725958E+03  0.40174045903E+03  0.17213816654E+03 0.  0.
         24    2    5    5    0    0 -0.37276592089E+02 -0.14426376097E+02  0.19762704542E+03  0.21698343846E+03  0.80172930829E+02 0.  0.
          5    1    5    5  501    0 -0.21291660145E+01  0.10560865641E+03  0.15151021416E+03  0.18475702057E+03  0.47000000000E+01 0. -1.
        -11    1    6    6    0    0 -0.13129030559E+02 -0.27411355051E+02  0.18376407744E+03  0.18626054329E+03  0.00000000000E+00 0.  1.
         12    1    6    6    0    0 -0.24147561530E+02  0.12984978954E+02  0.13862967982E+02  0.30722895169E+02  0.00000000000E+00 0. -1.
         -5    1    3    3    0  503  0.18250495997E+02  0.10297434674E+02  0.61512850703E+01  0.22339339136E+02  0.47000000000E+01 0.  1.
         11    1    4    4    0    0  0.50756487761E+02 -0.31483250554E+02  0.12587438685E+03  0.13932615469E+03  0.00000000000E+00 0. -1.
        -12    1    4    4    0    0 -0.29601225654E+02 -0.69996464434E+02  0.38062830133E+03  0.38814126471E+03  0.00000000000E+00 0.  1.
</event>
<event>
12    1  0.1681255E-001  0.1779333E+03  0.7818608E-02  0.1170005E+00
         21   -1    0    0  501  502  0.00000000000E+00  0.00000000000E+00  0.63619342409E+03  0.63619342409E+03  0.00000000000E+00 0. -1.
         21   -1    0    0  502  503 -0.00000000000E+00 -0.00000000000E+00 -0.92397423393E+02  0.92397423393E+02  0.00000000000E+00 0. -1.
         -6    2    1    2    0  503  0.43784913018E+02  0.81652509543E+01  0.24142773148E+02  0.17956371575E+03  0.17226858270E+03 0.  0.
        -24    2    3    3    0    0  0.59098999341E+02  0.39197609487E+02 -0.41616886690E+02  0.10510600038E+03  0.65468784509E+02 0.  0.
          6    2    1    2  501    0 -0.43784913018E+02 -0.81652509543E+01  0.51965322755E+03  0.54902713173E+03  0.17148622262E+03 0.  0.
         24    2    5    5    0    0 -0.91794283651E+02  0.16396942227E+02  0.36779551539E+03  0.38780971411E+03  0.80173455673E+02 0.  0.
          5    1    5    5  501    0  0.48009370633E+02 -0.24562193181E+02  0.15185771216E+03  0.16121741762E+03  0.47000000000E+01 0. -1.
        -11    1    6    6    0    0 -0.10291072615E+02 -0.24239218814E+02  0.42418714713E+02  0.49927880610E+02  0.00000000000E+00 0.  1.
         12    1    6    6    0    0 -0.81503211036E+02  0.40636161041E+02  0.32537680067E+03  0.33788183350E+03  0.00000000000E+00 0. -1.
         -5    1    3    3    0  503 -0.15314086323E+02 -0.31032358532E+02  0.65759659838E+02  0.74457715369E+02  0.47000000000E+01 0.  1.
         11    1    4    4    0    0  0.23070123680E+01  0.51349681983E+01 -0.38393264648E+02  0.38803775265E+02  0.00000000000E+00 0. -1.
        -12    1    4    4    0    0  0.56791986973E+02  0.34062641288E+02 -0.32236220420E+01  0.66302225113E+02  0.00000000000E+00 0.  1.
</event>
<event>
12    1  0.1681255E-001  0.1803577E+03  0.7818608E-02  0.1167893E+00
         21   -1    0    0  503  502  0.00000000000E+00  0.00000000000E+00  0.26497868931E+03  0.26497868931E+03  0.00000000000E+00 0. -1.
         21   -1    0    0  501  503 -0.00000000000E+00 -0.00000000000E+00 -0.43502614619E+03  0.43502614619E+03  0.00000000000E+00 0. -1.
          6    2    1    2  501    0  0.41517248919E+02  0.13740176247E+02 -0.38201639780E+03  0.42168893823E+03  0.17312584451E+03 0.  0.
         24    2    3    3    0    0 -0.76810611938E+01 -0.34840151092E+02 -0.11950012131E+03  0.15017944052E+03  0.83670487830E+02 0.  0.
         -6    2    1    2    0  502 -0.41517248919E+02 -0.13740176247E+02  0.21196894092E+03  0.27831589728E+03  0.17497551933E+03 0.  0.
        -24    2    5    5    0    0  0.16041388949E+02 -0.46868582165E+01  0.31050290485E+02  0.88188026009E+02  0.80831396083E+02 0.  0.
          5    1    3    3  501    0  0.49198310113E+02  0.48580327338E+02 -0.26251627649E+03  0.27150949770E+03  0.47000000000E+01 0. -1.
        -13    1    4    4    0    0 -0.21063649918E+02 -0.17421000687E+02  0.13320699409E+01  0.27366823402E+02  0.00000000000E+00 0.  1.
         14    1    4    4    0    0  0.13382588724E+02 -0.17419150405E+02 -0.12083219125E+03  0.12281261712E+03  0.00000000000E+00 0. -1.
         -5    1    5    5    0  502 -0.57558637868E+02 -0.90533180302E+01  0.18091865043E+03  0.19012787127E+03  0.47000000000E+01 0.  1.
         11    1    6    6    0    0  0.51257935223E+01  0.25477387923E+02  0.45971808712E+02  0.52808884204E+02  0.00000000000E+00 0. -1.
        -12    1    6    6    0    0  0.10915595427E+02 -0.30164246139E+02 -0.14921518226E+02  0.35379141805E+02  0.00000000000E+00 0.  1.
</event>
<event>
12    1  0.1681255E-001  0.2284323E+03  0.7818608E-02  0.1127920E+00
         21   -1    0    0  503  502  0.00000000000E+00  0.00000000000E+00  0.13434419684E+03  0.13434419684E+03  0.00000000000E+00 0.  1.
         21   -1    0    0  501  503 -0.00000000000E+00 -0.00000000000E+00 -0.38751861639E+03  0.38751861639E+03  0.00000000000E+00 0.  1.
          6    2    1    2  501    0  0.15019635712E+03  0.90945224693E+01 -0.13833119057E+03  0.26705211706E+03  0.17187105314E+03 0.  0.
         24    2    3    3    0    0  0.16640666384E+03 -0.33981169028E+02 -0.85790524086E+02  0.19704568252E+03  0.51196575645E+02 0.  0.
         -6    2    1    2    0  502 -0.15019635712E+03 -0.90945224693E+01 -0.11484322897E+03  0.25481069618E+03  0.17058097084E+03 0.  0.
        -24    2    5    5    0    0 -0.77975448373E+02 -0.52203470906E+02 -0.14918461935E+02  0.12411528630E+03  0.79854059775E+02 0.  0.
          5    1    3    3  501    0 -0.16210306716E+02  0.43075691497E+02 -0.52540666487E+02  0.70006434538E+02  0.47000000000E+01 0. -1.
        -11    1    4    4    0    0  0.37923289380E+02 -0.11507334711E+02 -0.45913942195E+02  0.60652161688E+02  0.00000000000E+00 0.  1.
         12    1    4    4    0    0  0.12848337446E+03 -0.22473834317E+02 -0.39876581891E+02  0.13639352083E+03  0.00000000000E+00 0. -1.
         -5    1    5    5    0  502 -0.72220908750E+02  0.43108948436E+02 -0.99924767038E+02  0.13069540988E+03  0.47000000000E+01 0.  1.
         11    1    6    6    0    0 -0.53513375701E+02 -0.25530255788E+02  0.29985015731E+02  0.66442279521E+02  0.00000000000E+00 0. -1.
        -12    1    6    6    0    0 -0.24462072672E+02 -0.26673215118E+02 -0.44903477666E+02  0.57673006776E+02  0.00000000000E+00 0.  1.
</event>
<event>
12    1  0.1681255E-001  0.1787926E+03  0.7818608E-02  0.1169979E+00
         21   -1    0    0  503  502  0.00000000000E+00  0.00000000000E+00  0.39634065476E+02  0.39634065476E+02  0.00000000000E+00 0.  1.
         21   -1    0    0  501  503 -0.00000000000E+00 -0.00000000000E+00 -0.78864515442E+03  0.78864515442E+03  0.00000000000E+00 0.  1.
          6    2    1    2  501    0  0.42118338892E+02  0.23278716297E+02 -0.37076433867E+03  0.41162239990E+03  0.17219451841E+03 0.  0.
         24    2    3    3    0    0  0.78432710786E+02  0.17807741932E+01 -0.34361030787E+03  0.36122074805E+03  0.79104512335E+02 0.  0.
         -6    2    1    2    0  502 -0.42118338892E+02 -0.23278716297E+02 -0.37824675027E+03  0.41665681999E+03  0.16797752364E+03 0.  0.
        -24    2    5    5    0    0  0.25031328411E+02 -0.40548092483E+02 -0.75545817797E+02  0.10608113888E+03  0.57230431016E+02 0.  0.
          5    1    3    3  501    0 -0.36314371894E+02  0.21497942104E+02 -0.27154030804E+02  0.50401651855E+02  0.47000000000E+01 0. -1.
        -11    1    4    4    0    0  0.54122993878E+02 -0.37054416353E+02 -0.20347631505E+03  0.21378713485E+03  0.00000000000E+00 0.  1.
         12    1    4    4    0    0  0.24309716908E+02  0.38835190546E+02 -0.14013399281E+03  0.14743361320E+03  0.00000000000E+00 0. -1.
         -5    1    5    5    0  502 -0.67149667303E+02  0.17269376185E+02 -0.30270093247E+03  0.31057568110E+03  0.47000000000E+01 0.  1.
         11    1    6    6    0    0  0.38984116221E+00 -0.34444070488E+02 -0.72810941844E+02  0.80547993272E+02  0.00000000000E+00 0. -1.
        -12    1    6    6    0    0  0.24641487249E+02 -0.61040219949E+01 -0.27348759527E+01  0.25533145612E+02  0.00000000000E+00 0.  1.
</event>
<event>
12    1  0.1681255E-001  0.2699516E+03  0.7818608E-02  0.1101417E+00
         21   -1    0    0  503  502  0.00000000000E+00  0.00000000000E+00  0.29261001405E+03  0.29261001405E+03  0.00000000000E+00 0.  1.
         21   -1    0    0  501  503 -0.00000000000E+00 -0.00000000000E+00 -0.30296646279E+03  0.30296646279E+03  0.00000000000E+00 0.  1.
          6    2    1    2  501    0  0.15194909114E+03 -0.14140568040E+03 -0.13163094436E+03  0.30033413201E+03  0.17259719750E+03 0.  0.
         24    2    3    3    0    0  0.14439912703E+03 -0.16571743621E+03 -0.14051582596E+03  0.27296454032E+03  0.80321643261E+02 0.  0.
         -6    2    1    2    0  502 -0.15194909114E+03  0.14140568040E+03  0.12127449563E+03  0.29524234484E+03  0.17139558380E+03 0.  0.
        -24    2    5    5    0    0 -0.14939786122E+03  0.11587080862E+03  0.15166530055E+03  0.25518951130E+03  0.79834566809E+02 0.  0.
          5    1    3    3  501    0  0.75499641162E+01  0.24311755802E+02  0.88848815948E+01  0.27369591690E+02  0.47000000000E+01 0. -1.
        -13    1    4    4    0    0  0.94331402912E+02 -0.11000479676E+03 -0.13467902569E+03  0.19783303275E+03  0.00000000000E+00 0.  1.
         14    1    4    4    0    0  0.50067724116E+02 -0.55712639446E+02 -0.58368002701E+01  0.75131507569E+02  0.00000000000E+00 0. -1.
         -5    1    5    5    0  502 -0.25512299251E+01  0.25534871781E+02 -0.30390804920E+02  0.40052833542E+02  0.47000000000E+01 0.  1.
         13    1    6    6    0    0 -0.21787328720E+02  0.46541156269E+02  0.75144981822E+02  0.91035900680E+02  0.00000000000E+00 0. -1.
        -14    1    6    6    0    0 -0.12761053250E+03  0.69329652353E+02  0.76520318724E+02  0.16415361061E+03  0.00000000000E+00 0.  1.
</event>
<event>
12    1  0.1681255E-001  0.2300301E+03  0.7818608E-02  0.1126927E+00
         21   -1    0    0  501  502  0.00000000000E+00  0.00000000000E+00  0.89192695119E+02  0.89192695119E+02  0.00000000000E+00 0. -1.
         21   -1    0    0  502  503 -0.00000000000E+00 -0.00000000000E+00 -0.62386229134E+03  0.62386229134E+03  0.00000000000E+00 0.  1.
         -6    2    1    2    0  503 -0.11262781972E+03  0.97987698002E+02 -0.18180119287E+03  0.29183063884E+03  0.17270446810E+03 0.  0.
        -24    2    3    3    0    0  0.16131745038E+01  0.83399642482E+02 -0.87004474231E+02  0.14259148852E+03  0.76186950086E+02 0.  0.
          6    2    1    2  501    0  0.11262781972E+03 -0.97987698002E+02 -0.35286840335E+03  0.42122434762E+03  0.17500636049E+03 0.  0.
         24    2    5    5    0    0  0.12640718546E+03 -0.56795667196E+02 -0.34044905896E+03  0.37580425914E+03  0.78222471822E+02 0.  0.
          5    1    5    5  501    0 -0.13779365741E+02 -0.41192030805E+02 -0.12419344393E+02  0.45420088477E+02  0.47000000000E+01 0. -1.
        -13    1    6    6    0    0  0.94677242315E+02 -0.75278694174E+02 -0.28101617232E+03  0.30594239836E+03  0.00000000000E+00 0.  1.
         14    1    6    6    0    0  0.31729943141E+02  0.18483026978E+02 -0.59432886639E+02  0.69861860785E+02  0.00000000000E+00 0. -1.
         -5    1    3    3    0  503 -0.11424099422E+03  0.14588055519E+02 -0.94796718642E+02  0.14923915032E+03  0.47000000000E+01 0.  1.
         13    1    4    4    0    0 -0.24357966386E+02  0.58250739561E+01 -0.28150553408E+01  0.25202510781E+02  0.00000000000E+00 0. -1.
        -14    1    4    4    0    0  0.25971140890E+02  0.77574568526E+02 -0.84189418890E+02  0.11738897774E+03  0.00000000000E+00 0.  1.
</event>
<event>
12    1  0.1681255E-001  0.3360364E+03  0.7818608E-02  0.1068722E+00
         21   -1    0    0  501  502  0.00000000000E+00  0.00000000000E+00  0.12467133674E+04  0.12467133674E+04  0.00000000000E+00 0. -1.
         21   -1    0    0  502  503 -0.00000000000E+00 -0.00000000000E+00 -0.14816359641E+03  0.14816359641E+03  0.00000000000E+00 0.  1.
         -6    2    1    2    0  503 -0.25149053889E+03  0.14167234412E+03  0.11338993466E+03  0.35465160467E+03  0.17205214085E+03 0.  0.
        -24    2    3    3    0    0 -0.62831642680E+02  0.14336676049E+02  0.47973597880E+02  0.11778046121E+03  0.86124417838E+02 0.  0.
          6    2    1    2  501    0  0.25149053889E+03 -0.14167234412E+03  0.98515983635E+03  0.10402253592E+04  0.16795937143E+03 0.  0.
         24    2    5    5    0    0  0.37557679986E+02 -0.48687216043E+02  0.24175436349E+03  0.26106729482E+03  0.77006076535E+02 0.  0.
          5    1    5    5  501    0  0.21393285891E+03 -0.92985128078E+02  0.74340547286E+03  0.77915806435E+03  0.47000000000E+01 0. -1.
        -11    1    6    6    0    0  0.42560040389E+02 -0.17696433932E+02  0.55307178548E+02  0.71995866623E+02  0.00000000000E+00 0.  1.
         12    1    6    6    0    0 -0.50023604035E+01 -0.30990782111E+02  0.18644718494E+03  0.18907142819E+03  0.00000000000E+00 0. -1.
         -5    1    3    3    0  503 -0.18865889621E+03  0.12733566807E+03  0.65416336781E+02  0.23687114346E+03  0.47000000000E+01 0.  1.
         11    1    4    4    0    0 -0.47335868263E+02  0.16974763418E+02  0.72749948999E+02  0.88438578102E+02  0.00000000000E+00 0. -1.
        -12    1    4    4    0    0 -0.15495774417E+02 -0.26380873688E+01 -0.24776351119E+02  0.29341883111E+02  0.00000000000E+00 0.  1.
</event>
<event>
12    1  0.1681255E-001  0.2424450E+03  0.7818608E-02  0.1118235E+00
         21   -1    0    0  503  502  0.00000000000E+00  0.00000000000E+00  0.88947697307E+03  0.88947697307E+03  0.00000000000E+00 0. -1.
         21   -1    0    0  501  503 -0.00000000000E+00 -0.00000000000E+00 -0.84949911385E+02  0.84949911385E+02  0.00000000000E+00 0. -1.
          6    2    1    2  501    0 -0.10010373961E+03 -0.13752950949E+03  0.17181949972E+03  0.29685884340E+03  0.17224432576E+03 0.  0.
         24    2    3    3    0    0 -0.10066548283E+02 -0.12745795181E+03  0.10990796488E+03  0.18702596926E+03  0.80944966242E+02 0.  0.
         -6    2    1    2    0  502  0.10010373961E+03  0.13752950949E+03  0.63270756196E+03  0.67756804105E+03  0.17275551114E+03 0.  0.
        -24    2    5    5    0    0  0.73288389336E+02  0.10320895294E+02  0.34604959682E+03  0.36277291162E+03  0.79850817496E+02 0.  0.
          5    1    3    3  501    0 -0.90037191325E+02 -0.10071557679E+02  0.61911534834E+02  0.10983287414E+03  0.47000000000E+01 0. -1.
        -13    1    4    4    0    0 -0.21862578132E+02  0.33665465525E+00  0.85012602841E+01  0.23459690649E+02  0.00000000000E+00 0.  1.
         14    1    4    4    0    0  0.11796029849E+02 -0.12779460646E+03  0.10140670460E+03  0.16356627861E+03  0.00000000000E+00 0. -1.
         -5    1    5    5    0  502  0.26815350272E+02  0.12720861419E+03  0.28665796514E+03  0.31479512943E+03  0.47000000000E+01 0.  1.
         11    1    6    6    0    0  0.47724155688E+02  0.32327330025E+02  0.30113544079E+03  0.30660268264E+03  0.00000000000E+00 0. -1.
        -12    1    6    6    0    0  0.25564233648E+02 -0.22006434731E+02  0.44914156026E+02  0.56170228975E+02  0.00000000000E+00 0.  1.
</event>
<event>
12    1  0.1681255E-001  0.1807707E+03  0.7818608E-02  0.1167093E+00
         21   -1    0    0  501  502  0.00000000000E+00  0.00000000000E+00  0.26882528755E+03  0.26882528755E+03  0.00000000000E+00 0. -1.
         21   -1    0    0  502  503 -0.00000000000E+00 -0.00000000000E+00 -0.23884143130E+03  0.23884143130E+03  0.00000000000E+00 0. -1.
         -6    2    1    2    0  503 -0.48683314343E+02 -0.26208754442E+02 -0.16295053687E+03  0.24337401690E+03  0.17210773002E+03 0.  0.
        -24    2    3    3    0    0 -0.91256332310E+02  0.11299811802E+02 -0.12764341416E+03  0.17638120151E+03  0.79762667536E+02 0.  0.
          6    2    1    2  501    0  0.48683314343E+02  0.26208754442E+02  0.19293439311E+03  0.26429270195E+03  0.17195926365E+03 0.  0.
         24    2    5    5    0    0 -0.17324357704E+01 -0.45361998799E+02  0.84603952977E+02  0.12493096101E+03  0.79932495833E+02 0.  0.
          5    1    5    5  501    0  0.50415750113E+02  0.71570753241E+02  0.10833044013E+03  0.13936174094E+03  0.47000000000E+01 0. -1.
        -11    1    6    6    0    0  0.13503733094E+02 -0.32610588468E+02 -0.26960013710E+01  0.35398724710E+02  0.00000000000E+00 0.  1.
         12    1    6    6    0    0 -0.15236168865E+02 -0.12751410331E+02  0.87299954348E+02  0.89532236297E+02  0.00000000000E+00 0. -1.
         -5    1    3    3    0  503  0.42573017967E+02 -0.37508566244E+02 -0.35307122707E+02  0.66992815394E+02  0.47000000000E+01 0.  1.
         13    1    4    4    0    0 -0.31796271731E+02  0.38937614777E+02 -0.83067825136E+02  0.97094821249E+02  0.00000000000E+00 0. -1.
        -14    1    4    4    0    0 -0.59460060579E+02 -0.27637802975E+02 -0.44575589025E+02  0.79286380257E+02  0.00000000000E+00 0.  1.
</event>
<event>
12    1  0.1681255E-001  0.1807390E+03  0.7818608E-02  0.1167264E+00
         21   -1    0    0  503  502  0.00000000000E+00  0.00000000000E+00  0.30125781763E+03  0.30125781763E+03  0.00000000000E+00 0.  1.
         21   -1    0    0  501  503 -0.00000000000E+00 -0.00000000000E+00 -0.11520420530E+03  0.11520420530E+03  0.00000000000E+00 0.  1.
          6    2    1    2  501    0  0.40304739829E+02 -0.30608734094E+02  0.41134419870E+02  0.18536075535E+03  0.17350850835E+03 0.  0.
         24    2    3    3    0    0 -0.56808097395E+01  0.26162289623E+02 -0.20611794972E+02  0.89588604123E+02  0.82973097442E+02 0.  0.
         -6    2    1    2    0  502 -0.40304739829E+02  0.30608734094E+02  0.14491919246E+03  0.23110126758E+03  0.17275664062E+03 0.  0.
        -24    2    5    5    0    0  0.91118669165E+01  0.76829292454E+02  0.76805874147E+02  0.13497710220E+03  0.79585862553E+02 0.  0.
          5    1    3    3  501    0  0.45985549569E+02 -0.56771023716E+02  0.61746214842E+02  0.95772151225E+02  0.47000000000E+01 0. -1.
        -11    1    4    4    0    0 -0.29141439586E+02  0.46791907448E+02 -0.18997591324E+02  0.58306213904E+02  0.00000000000E+00 0.  1.
         12    1    4    4    0    0  0.23460629846E+02 -0.20629617825E+02 -0.16142036489E+01  0.31282390219E+02  0.00000000000E+00 0. -1.
         -5    1    5    5    0  502 -0.49416606745E+02 -0.46220558361E+02  0.68113318317E+02  0.96124165377E+02  0.47000000000E+01 0.  1.
         13    1    6    6    0    0 -0.20604552258E+02  0.60973660868E+02  0.78183684021E+02  0.10126708913E+03  0.00000000000E+00 0. -1.
        -14    1    6    6    0    0  0.29716419175E+02  0.15855631586E+02 -0.13778098737E+01  0.33710013077E+02  0.00000000000E+00 0.  1.
</event>
<event>
12    1  0.1681255E-001  0.2421754E+03  0.7818608E-02  0.1118908E+00
         21   -1    0    0  503  502  0.00000000000E+00  0.00000000000E+00  0.66890227573E+03  0.66890227573E+03  0.00000000000E+00 0.  1.
         21   -1    0    0  501  503 -0.00000000000E+00 -0.00000000000E+00 -0.87985035881E+02  0.87985035881E+02  0.00000000000E+00 0.  1.
          6    2    1    2  501    0 -0.90741748067E+02  0.13874066501E+03  0.23879284308E+03  0.33772381031E+03  0.17190786246E+03 0.  0.
         24    2    3    3    0    0 -0.92449541408E+02  0.12112331240E+03  0.25879738155E+03  0.31060261509E+03  0.79247241553E+02 0.  0.
         -6    2    1    2    0  502  0.90741748067E+02 -0.13874066501E+03  0.34212439676E+03  0.41916350129E+03  0.17653866712E+03 0.  0.
        -24    2    5    5    0    0  0.11046520065E+01 -0.12667335099E+03  0.20239082295E+03  0.25264626283E+03  0.82587715771E+02 0.  0.
          5    1    3    3  501    0  0.17077933416E+01  0.17617352604E+02 -0.20004538464E+02  0.27121195218E+02  0.47000000000E+01 0. -1.
        -11    1    4    4    0    0 -0.74008303741E+02  0.10406122422E+03  0.14130819802E+03  0.19045727667E+03  0.00000000000E+00 0.  1.
         12    1    4    4    0    0 -0.18441237667E+02  0.17062088186E+02  0.11748918352E+03  0.12014533842E+03  0.00000000000E+00 0. -1.
         -5    1    5    5    0  502  0.89637096060E+02 -0.12067314015E+02  0.13973357381E+03  0.16651723847E+03  0.47000000000E+01 0.  1.
         11    1    6    6    0    0  0.23291647033E+02 -0.87971464130E+02  0.75836612813E+02  0.11845957608E+03  0.00000000000E+00 0. -1.
        -12    1    6    6    0    0 -0.22186995026E+02 -0.38701886864E+02  0.12655421014E+03  0.13418668674E+03  0.00000000000E+00 0.  1.
</event>
<event>
12    1  0.1681255E-001  0.2661174E+03  0.7818608E-02  0.1103647E+00
         21   -1    0    0  501  502  0.00000000000E+00  0.00000000000E+00  0.80994187996E+03  0.80994187996E+03  0.00000000000E+00 0.  1.
         21   -1    0    0  502  503 -0.00000000000E+00 -0.00000000000E+00 -0.91668922956E+02  0.91668922956E+02  0.00000000000E+00 0.  1.
         -6    2    1    2    0  503  0.12637865348E+03 -0.15788396251E+03  0.45970097909E+03  0.53117180164E+03  0.17297278112E+03 0.  0.
        -24    2    3    3    0    0  0.88855414113E+02 -0.18266854245E+03  0.40662599709E+03  0.46144868776E+03  0.79543126056E+02 0.  0.
          6    2    1    2  501    0 -0.12637865348E+03  0.15788396251E+03  0.25857197791E+03  0.37043900128E+03  0.17165860372E+03 0.  0.
         24    2    5    5    0    0 -0.10440624458E+03  0.18094125173E+03  0.25804044452E+03  0.33823965553E+03  0.64659052569E+02 0.  0.
          5    1    5    5  501    0 -0.21972408899E+02 -0.23057289218E+02  0.53153339235E+00  0.32199345749E+02  0.47000000000E+01 0. -1.
        -13    1    6    6    0    0 -0.88711147024E+02  0.90782303578E+02  0.15764685722E+03  0.20239472780E+03  0.00000000000E+00 0.  1.
         14    1    6    6    0    0 -0.15695097556E+02  0.90158948149E+02  0.10039358730E+03  0.13584492773E+03  0.00000000000E+00 0. -1.
         -5    1    3    3    0  503  0.37523239366E+02  0.24784579941E+02  0.53074981998E+02  0.69723113883E+02  0.47000000000E+01 0.  1.
         11    1    4    4    0    0 -0.40271918653E+01 -0.58666360887E+02  0.74075512308E+02  0.94578759231E+02  0.00000000000E+00 0. -1.
        -12    1    4    4    0    0  0.92882605979E+02 -0.12400218156E+03  0.33255048478E+03  0.36686992852E+03  0.00000000000E+00 0.  1.
</event>
<event>
12    1  0.1681255E-001  0.2105317E+03  0.7818608E-02  0.1141797E+00
         21   -1    0    0  501  502  0.00000000000E+00  0.00000000000E+00  0.10461159806E+04  0.10461159806E+04  0.00000000000E+00 0.  1.
         21   -1    0    0  502  503 -0.00000000000E+00 -0.00000000000E+00 -0.44732861105E+02  0.44732861105E+02  0.00000000000E+00 0.  1.
         -6    2    1    2    0  503 -0.11356850707E+03 -0.30683557327E+02  0.63872512861E+03  0.67151077485E+03  0.17063892972E+03 0.  0.
        -24    2    3    3    0    0 -0.54379351552E+02 -0.27655770077E+02  0.15845179333E+03  0.18757163590E+03  0.79713187690E+02 0.  0.
          6    2    1    2  501    0  0.11356850707E+03  0.30683557327E+02  0.36265799087E+03  0.41933806684E+03  0.17459756433E+03 0.  0.
         24    2    5    5    0    0  0.41861118232E+02  0.67986936686E+02  0.28674291783E+03  0.30834851760E+03  0.80515405983E+02 0.  0.
          5    1    5    5  501    0  0.71707388839E+02 -0.37303379359E+02  0.75915073041E+02  0.11098954924E+03  0.47000000000E+01 0. -1.
        -11    1    6    6    0    0  0.25381019578E+02  0.52500496927E+02  0.73090198826E+02  0.93502275356E+02  0.00000000000E+00 0.  1.
         12    1    6    6    0    0  0.16480098654E+02  0.15486439759E+02  0.21365271901E+03  0.21484624225E+03  0.00000000000E+00 0. -1.
         -5    1    3    3    0  503 -0.59189155519E+02 -0.30277872494E+01  0.48027333528E+03  0.48393913895E+03  0.47000000000E+01 0.  1.
         13    1    4    4    0    0 -0.56013035705E+02  0.93282266620E+01  0.61071096490E+02  0.83391575162E+02  0.00000000000E+00 0. -1.
        -14    1    4    4    0    0  0.16336841525E+01 -0.36983996739E+02  0.97380696841E+02  0.10418006074E+03  0.00000000000E+00 0.  1.
</event>
<event>
12    1  0.1681255E-001  0.4449628E+03  0.7818608E-02  0.1029262E+00
         21   -1    0    0  501  502  0.00000000000E+00  0.00000000000E+00  0.43509089032E+03  0.43509089032E+03  0.00000000000E+00 0.  1.
         21   -1    0    0  502  503 -0.00000000000E+00 -0.00000000000E+00 -0.50897336583E+03  0.50897336583E+03  0.00000000000E+00 0. -1.
         -6    2    1    2    0  503 -0.13837604934E+03  0.38553629531E+03 -0.19111081706E+03  0.48426776289E+03  0.17379803149E+03 0.  0.
        -24    2    3    3    0    0 -0.87720826509E+02  0.17347366194E+03 -0.16013760141E+03  0.26399987563E+03  0.79144350132E+02 0.  0.
          6    2    1    2  501    0  0.13837604934E+03 -0.38553629531E+03  0.11722834155E+03  0.45979649325E+03  0.17287037083E+03 0.  0.
         24    2    5    5    0    0  0.10225063408E+03 -0.24502297990E+03  0.14423651969E+03  0.31214633538E+03  0.78356290273E+02 0.  0.
          5    1    5    5  501    0  0.36125415261E+02 -0.14051331541E+03 -0.27008178141E+02  0.14765015788E+03  0.47000000000E+01 0. -1.
        -11    1    6    6    0    0  0.27190547372E+02 -0.10323385161E+03  0.98669967553E+02  0.14536958582E+03  0.00000000000E+00 0.  1.
         12    1    6    6    0    0  0.75060086704E+02 -0.14178912830E+03  0.45566552142E+02  0.16677674956E+03  0.00000000000E+00 0. -1.
         -5    1    3    3    0  503 -0.50655222828E+02  0.21206263337E+03 -0.30973215650E+02  0.22026788727E+03  0.47000000000E+01 0.  1.
         13    1    4    4    0    0 -0.46740688515E+01  0.96198690849E+02 -0.68818251754E+02  0.11837223836E+03  0.00000000000E+00 0. -1.
        -14    1    4    4    0    0 -0.83046757658E+02  0.77274971088E+02 -0.91319349654E+02  0.14562763726E+03  0.00000000000E+00 0.  1.
</event>
<event>
12    1  0.1681255E-001  0.2094081E+03  0.7818608E-02  0.1143626E+00
         21   -1    0    0  503  502  0.00000000000E+00  0.00000000000E+00  0.34268024909E+03  0.34268024909E+03  0.00000000000E+00 0.  1.
         21   -1    0    0  501  503 -0.00000000000E+00 -0.00000000000E+00 -0.15416611403E+03  0.15416611403E+03  0.00000000000E+00 0.  1.
          6    2    1    2  501    0  0.34098528473E+02 -0.11232712635E+03 -0.18466773098E+02  0.20240987850E+03  0.16385555910E+03 0.  0.
         24    2    3    3    0    0  0.83258737908E+02 -0.59770735084E+02 -0.14009173023E+02  0.13015435516E+03  0.78989499474E+02 0.  0.
         -6    2    1    2    0  502 -0.34098528473E+02  0.11232712635E+03  0.20698090816E+03  0.29443648462E+03  0.17341180517E+03 0.  0.
        -24    2    5    5    0    0 -0.82912990337E+02  0.69981269475E+02  0.94544013705E+02  0.16466680975E+03  0.80029030114E+02 0.  0.
          5    1    3    3  501    0 -0.49160209435E+02 -0.52556391269E+02 -0.44576000754E+01  0.72255523341E+02  0.47000000000E+01 0. -1.
        -11    1    4    4    0    0  0.30901536464E+01 -0.97454610575E+01 -0.32321732262E+02  0.33900109693E+02  0.00000000000E+00 0.  1.
         12    1    4    4    0    0  0.80168584262E+02 -0.50025274026E+02  0.18312559239E+02  0.96254245464E+02  0.00000000000E+00 0. -1.
         -5    1    5    5    0  502  0.48814461863E+02  0.42345856878E+02  0.11243689446E+03  0.12976967487E+03  0.47000000000E+01 0.  1.
         11    1    6    6    0    0 -0.47189597577E+02 -0.89439975358E+01  0.37562880260E+02  0.60973954971E+02  0.00000000000E+00 0. -1.
        -12    1    6    6    0    0 -0.35723392760E+02  0.78925267011E+02  0.56981133446E+02  0.10369285478E+03  0.00000000000E+00 0.  1.
</event>
<event>
12    1  0.1681255E-001  0.1731725E+03  0.7818608E-02  0.1174695E+00
         21   -1    0    0  501  502  0.00000000000E+00  0.00000000000E+00  0.16723618847E+04  0.16723618847E+04  0.00000000000E+00 0. -1.
         21   -1    0    0  502  503 -0.00000000000E+00 -0.00000000000E+00 -0.20887525787E+02  0.20887525787E+02  0.00000000000E+00 0. -1.
         -6    2    1    2    0  503 -0.15099333430E+02 -0.12000473195E+02  0.50382101600E+03  0.53260436350E+03  0.17163854647E+03 0.  0.
        -24    2    3    3    0    0 -0.56782084073E+02  0.39143484742E+02  0.34605806510E+03  0.36153597130E+03  0.78712493638E+02 0.  0.
          6    2    1    2  501    0  0.15099333430E+02  0.12000473195E+02  0.11476533429E+04  0.11606450470E+04  0.17209511427E+03 0.  0.
         24    2    5    5    0    0 -0.20368639050E+02 -0.51556478745E+02  0.55809254394E+03  0.56658992420E+03  0.80522684079E+02 0.  0.
          5    1    5    5  501    0  0.35467972480E+02  0.63556951940E+02  0.58956079895E+03  0.59405512275E+03  0.47000000000E+01 0. -1.
        -13    1    6    6    0    0 -0.21824105920E+02 -0.61040608640E+02  0.24748070613E+03  0.25582991891E+03  0.00000000000E+00 0.  1.
         14    1    6    6    0    0  0.14554668697E+01  0.94841298951E+01  0.31061183781E+03  0.31076000529E+03  0.00000000000E+00 0. -1.
         -5    1    3    3    0  503  0.41682750643E+02 -0.51143957937E+02  0.15776295090E+03  0.17106839220E+03  0.47000000000E+01 0.  1.
         11    1    4    4    0    0 -0.20360863537E+02  0.37696990125E+02  0.63288591595E+02  0.76426917082E+02  0.00000000000E+00 0. -1.
        -12    1    4    4    0    0 -0.36421220536E+02  0.14464946166E+01  0.28276947351E+03  0.28510905422E+03  0.00000000000E+00 0.  1.
</event>
<event>
12    1  0.1681255E-001  0.3135568E+03  0.7818608E-02  0.1078740E+00
         21   -1    0    0  501  502  0.00000000000E+00  0.00000000000E+00  0.20414112221E+03  0.20414112221E+03  0.00000000000E+00 0. -1.
         21   -1    0    0  502  503 -0.00000000000E+00 -0.00000000000E+00 -0.50877691418E+03  0.50877691418E+03  0.00000000000E+00 0. -1.
         -6    2    1    2    0  503  0.20224546513E+03  0.16811370844E+03 -0.23652751837E+03  0.39276344818E+03  0.17074077471E+03 0.  0.
        -24    2    3    3    0    0  0.12709350557E+03  0.96003767277E+02 -0.61139807202E+02  0.18872766733E+03  0.80688127380E+02 0.  0.
          6    2    1    2  501    0 -0.20224546513E+03 -0.16811370844E+03 -0.68108273609E+02  0.32015458821E+03  0.16939532546E+03 0.  0.
         24    2    5    5    0    0 -0.33271809687E+02 -0.29426830794E+02 -0.39829984619E+02  0.99682599301E+02  0.79857631058E+02 0.  0.
          5    1    5    5  501    0 -0.16897365544E+03 -0.13868687765E+03 -0.28278288990E+02  0.22047198891E+03  0.47000000000E+01 0. -1.
        -13    1    6    6    0    0 -0.40207615798E+02 -0.15484409635E+02 -0.60207463049E+02  0.74036193289E+02  0.00000000000E+00 0.  1.
         14    1    6    6    0    0  0.69358061104E+01 -0.13942421159E+02  0.20377478430E+02  0.25646406012E+02  0.00000000000E+00 0. -1.
         -5    1    3    3    0  503  0.75151959559E+02  0.72109941166E+02 -0.17538771116E+03  0.20403578085E+03  0.47000000000E+01 0.  1.
         11    1    4    4    0    0  0.37272124386E+02  0.28527649878E+02 -0.60258445330E+02  0.76381400205E+02  0.00000000000E+00 0. -1.
        -12    1    4    4    0    0  0.89821381186E+02  0.67476117399E+02 -0.88136187241E+00  0.11234626712E+03  0.00000000000E+00 0.  1.
</event>
<event>
12    1  0.1681255E-001  0.2303505E+03  0.7818608E-02  0.1126623E+00
         21   -1    0    0  503  502  0.00000000000E+00  0.00000000000E+00  0.12516757555E+04  0.12516757555E+04  0.00000000000E+00 0.  1.
         21   -1    0    0  501  503 -0.00000000000E+00 -0.00000000000E+00 -0.83526817120E+02  0.83526817120E+02  0.00000000000E+00 0.  1.
          6    2    1    2  501    0  0.14600434445E+03  0.39916902043E+02  0.11337915355E+03  0.25557270631E+03  0.17190680057E+03 0.  0.
         24    2    3    3    0    0  0.13896950137E+03  0.50710639053E+02  0.29762291247E+02  0.17083863148E+03  0.80099642954E+02 0.  0.
         -6    2    1    2    0  502 -0.14600434445E+03 -0.39916902043E+02  0.10547697848E+04  0.10796298663E+04  0.17363963135E+03 0.  0.
        -24    2    5    5    0    0 -0.13342317303E+03  0.23070892007E+02  0.58929980015E+03  0.60972546677E+03  0.78465796419E+02 0.  0.
          5    1    3    3  501    0  0.70348430841E+01 -0.10793737011E+02  0.83616862302E+02  0.84734074829E+02  0.47000000000E+01 0. -1.
        -11    1    4    4    0    0  0.13299047802E+03  0.21993526569E+02  0.38579808165E+02  0.14020907264E+03  0.00000000000E+00 0.  1.
         12    1    4    4    0    0  0.59790233513E+01  0.28717112485E+02 -0.88175169183E+01  0.30629558833E+02  0.00000000000E+00 0. -1.
         -5    1    5    5    0  502 -0.12581171418E+02 -0.62987794049E+02  0.46546998466E+03  0.46990439953E+03  0.47000000000E+01 0.  1.
         13    1    6    6    0    0 -0.13803760327E+03  0.17831966381E+02  0.46884430979E+03  0.48906783350E+03  0.00000000000E+00 0. -1.
        -14    1    6    6    0    0  0.46144302346E+01  0.52389256264E+01  0.12045549036E+03  0.12065763327E+03  0.00000000000E+00 0.  1.
</event>
<event>
12    1  0.1681255E-001  0.2488691E+03  0.7818608E-02  0.1114049E+00
         21   -1    0    0  503  502  0.00000000000E+00  0.00000000000E+00  0.59828197362E+03  0.59828197362E+03  0.00000000000E+00 0.  1.
         21   -1    0    0  501  503 -0.00000000000E+00 -0.00000000000E+00 -0.16548025030E+03  0.16548025030E+03  0.00000000000E+00 0.  1.
          6    2    1    2  501    0  0.83269866318E+02 -0.15887811211E+03 -0.17356089874E+02  0.24947355946E+03  0.17250999354E+03 0.  0.
         24    2    3    3    0    0  0.12288903519E+03 -0.12458159958E+03  0.41462559792E+01  0.19263721378E+03  0.80433915543E+02 0.  0.
         -6    2    1    2    0  502 -0.83269866318E+02  0.15887811211E+03  0.45015781320E+03  0.51428866446E+03  0.17226331141E+03 0.  0.
        -24    2    5    5    0    0 -0.11250177068E+03  0.91689458131E+02  0.37055697466E+03  0.40599645351E+03  0.80355731921E+02 0.  0.
          5    1    3    3  501    0 -0.39619168870E+02 -0.34296512530E+02 -0.21502345853E+02  0.56836345685E+02  0.47000000000E+01 0. -1.
        -11    1    4    4    0    0  0.69875650146E+02 -0.55713296941E+02 -0.36697226368E+02  0.96608821349E+02  0.00000000000E+00 0.  1.
         12    1    4    4    0    0  0.53013385042E+02 -0.68868302640E+02  0.40843482347E+02  0.96028392429E+02  0.00000000000E+00 0. -1.
         -5    1    5    5    0  502  0.29231904358E+02  0.67188653981E+02  0.79600838537E+02  0.10829221095E+03  0.47000000000E+01 0.  1.
         11    1    6    6    0    0 -0.15016693144E+02 -0.13565442655E+02  0.27446584597E+02  0.34100400488E+02  0.00000000000E+00 0. -1.
        -12    1    6    6    0    0 -0.97485077532E+02  0.10525490079E+03  0.34311039007E+03  0.37189605302E+03  0.00000000000E+00 0.  1.
</event>
<event>
12    1  0.1681255E-001  0.2324517E+03  0.7818608E-02  0.1124996E+00
         21   -1    0    0  501  502  0.00000000000E+00  0.00000000000E+00  0.13079082671E+04  0.13079082671E+04  0.00000000000E+00 0.  1.
         21   -1    0    0  502  503 -0.00000000000E+00 -0.00000000000E+00 -0.61751204207E+02  0.61751204207E+02  0.00000000000E+00 0.  1.
         -6    2    1    2    0  503  0.27829022377E+02  0.15437108224E+03  0.22803657917E+03  0.32534003047E+03  0.17099873820E+03 0.  0.
        -24    2    3    3    0    0  0.76771133908E+02  0.14341958167E+03  0.17445556663E+03  0.25179901776E+03  0.80653686880E+02 0.  0.
          6    2    1    2  501    0 -0.27829022377E+02 -0.15437108224E+03  0.10181204837E+04  0.10443194408E+04  0.17154850513E+03 0.  0.
         24    2    5    5    0    0 -0.62490057793E+02 -0.11548365562E+03  0.92094628671E+03  0.93396304595E+03  0.83086859159E+02 0.  0.
          5    1    5    5  501    0  0.34661035415E+02 -0.38887426623E+02  0.97174196972E+02  0.11035639484E+03  0.47000000000E+01 0. -1.
        -13    1    6    6    0    0  0.50010989577E+01 -0.73440384228E+02  0.52253588140E+03  0.52769522300E+03  0.00000000000E+00 0.  1.
         14    1    6    6    0    0 -0.67491156750E+02 -0.42043271392E+02  0.39841040531E+03  0.40626782295E+03  0.00000000000E+00 0. -1.
         -5    1    3    3    0  503 -0.48942111531E+02  0.10951500576E+02  0.53581012536E+02  0.73541012710E+02  0.47000000000E+01 0.  1.
         11    1    4    4    0    0  0.35142085110E+02  0.30573874244E+02  0.10006079839E+03  0.11037160553E+03  0.00000000000E+00 0. -1.
        -12    1    4    4    0    0  0.41629048798E+02  0.11284570742E+03  0.74394768235E+02  0.14142741222E+03  0.00000000000E+00 0.  1.
</event>
<event>
12    1  0.1681255E-001  0.2365715E+03  0.7818608E-02  0.1123546E+00
         21   -1    0    0  501  502  0.00000000000E+00  0.00000000000E+00  0.12836712061E+04  0.12836712061E+04  0.00000000000E+00 0.  1.
         21   -1    0    0  502  503 -0.00000000000E+00 -0.00000000000E+00 -0.42580576511E+02  0.42580576511E+02  0.00000000000E+00 0.  1.
         -6    2    1    2    0  503 -0.72371226285E+02  0.13041910905E+03  0.53689234835E+03  0.58337811717E+03  0.17271333325E+03 0.  0.
        -24    2    3    3    0    0 -0.21648989819E+02  0.14543892212E+03  0.33429047030E+03  0.37393134339E+03  0.80332883769E+02 0.  0.
          6    2    1    2  501    0  0.72371226285E+02 -0.13041910905E+03  0.70419828123E+03  0.74287366542E+03  0.18362822522E+03 0.  0.
         24    2    5    5    0    0  0.36255747489E+02 -0.16462268447E+03  0.53640859550E+03  0.56780316243E+03  0.79064166839E+02 0.  0.
          5    1    5    5  501    0  0.36115478796E+02  0.34203575419E+02  0.16778968573E+03  0.17507050299E+03  0.47000000000E+01 0. -1.
        -11    1    6    6    0    0  0.54058955793E+02 -0.98787509007E+02  0.26454844916E+03  0.28751908561E+03  0.00000000000E+00 0.  1.
         12    1    6    6    0    0 -0.17803208304E+02 -0.65835175463E+02  0.27186014633E+03  0.28028407682E+03  0.00000000000E+00 0. -1.
         -5    1    3    3    0  503 -0.50722236466E+02 -0.15019813065E+02  0.20260187805E+03  0.20944677378E+03  0.47000000000E+01 0.  1.
         11    1    4    4    0    0 -0.50306359189E+01  0.70125586448E+02  0.72393963536E+02  0.10091477161E+03  0.00000000000E+00 0. -1.
        -12    1    4    4    0    0 -0.16618353900E+02  0.75313335669E+02  0.26189650676E+03  0.27301657179E+03  0.00000000000E+00 0.  1.
</event>
<event>
12    1  0.1681255E-001  0.2435288E+03  0.7818608E-02  0.1117565E+00
         21   -1    0    0  501  502  0.00000000000E+00  0.00000000000E+00  0.91200161385E+03  0.91200161385E+03  0.00000000000E+00 0. -1.
         21   -1    0    0  502  503 -0.00000000000E+00 -0.00000000000E+00 -0.68721392546E+02  0.68721392546E+02  0.00000000000E+00 0. -1.
         -6    2    1    2    0  503  0.17077295440E+03  0.24958583660E+02  0.53730184435E+03  0.58966159325E+03  0.17094206549E+03 0.  0.
        -24    2    3    3    0    0  0.86586004646E+02  0.64628077019E+02  0.41334603671E+03  0.43458663247E+03  0.79603206700E+02 0.  0.
          6    2    1    2  501    0 -0.17077295440E+03 -0.24958583660E+02  0.30597837695E+03  0.39106141314E+03  0.17181364567E+03 0.  0.
         24    2    5    5    0    0 -0.16598612951E+03  0.29317424205E+02  0.25839059245E+03  0.31856668260E+03  0.79423714652E+02 0.  0.
          5    1    5    5  501    0 -0.47868248924E+01 -0.54276007865E+02  0.47587784501E+02  0.72494730540E+02  0.47000000000E+01 0. -1.
        -11    1    6    6    0    0  0.64505144891E+01  0.32027054959E+01  0.47185147336E+00  0.72172781213E+01  0.00000000000E+00 0.  1.
         12    1    6    6    0    0 -0.17243664400E+03  0.26114718709E+02  0.25791874097E+03  0.31134940448E+03  0.00000000000E+00 0. -1.
         -5    1    3    3    0  503  0.84186949755E+02 -0.39669493359E+02  0.12395580764E+03  0.15507496078E+03  0.47000000000E+01 0.  1.
         11    1    4    4    0    0  0.33525171055E+02  0.11470063005E+02  0.38637607655E+02  0.52424843013E+02  0.00000000000E+00 0. -1.
        -12    1    4    4    0    0  0.53060833591E+02  0.53158014015E+02  0.37470842905E+03  0.38216178946E+03  0.00000000000E+00 0.  1.
</event>
<event>
12    1  0.1681255E-001  0.1987607E+03  0.7818608E-02  0.1150836E+00
         21   -1    0    0  503  502  0.00000000000E+00  0.00000000000E+00  0.29922748268E+03  0.29922748268E+03  0.00000000000E+00 0. -1.
         21   -1    0    0  501  503 -0.00000000000E+00 -0.00000000000E+00 -0.17875295575E+03  0.17875295575E+03  0.00000000000E+00 0. -1.
          6    2    1    2  501    0 -0.94605172807E+02  0.11860154207E+02  0.18264375645E+03  0.26993435779E+03  0.17439900735E+03 0.  0.
         24    2    3    3    0    0 -0.13369111880E+03  0.14617773333E+02  0.12439173573E+03  0.19957312162E+03  0.79177853038E+02 0.  0.
         -6    2    1    2    0  502  0.94605172807E+02 -0.11860154207E+02 -0.62169229523E+02  0.20804608064E+03  0.17414751388E+03 0.  0.
        -24    2    5    5    0    0  0.24404614147E+02 -0.64705572383E+02 -0.55161547784E+02  0.11977403375E+03  0.80750396402E+02 0.  0.
          5    1    3    3  501    0  0.39085945992E+02 -0.27576191254E+01  0.58252020718E+02  0.70361236168E+02  0.47000000000E+01 0. -1.
        -13    1    4    4    0    0 -0.37537333905E+02 -0.31876714788E+02  0.38038671718E+02  0.62226336294E+02  0.00000000000E+00 0.  1.
         14    1    4    4    0    0 -0.96153784893E+02  0.46494488121E+02  0.86353064014E+02  0.13734678533E+03  0.00000000000E+00 0. -1.
         -5    1    5    5    0  502  0.70200558660E+02  0.52845418175E+02 -0.70076817390E+01  0.88272046888E+02  0.47000000000E+01 0.  1.
         11    1    6    6    0    0  0.52887861618E+02 -0.53872443359E+02 -0.34837547158E+02  0.83144577406E+02  0.00000000000E+00 0. -1.
        -12    1    6    6    0    0 -0.28483247472E+02 -0.10833129024E+02 -0.20324000625E+02  0.36629456349E+02  0.00000000000E+00 0.  1.
</event>
<event>
12    1  0.1681255E-001  0.3350753E+03  0.7818608E-02  0.1068915E+00
         21   -1    0    0  501  502  0.00000000000E+00  0.00000000000E+00  0.33724792986E+03  0.33724792986E+03  0.00000000000E+00 0. -1.
         21   -1    0    0  502  503 -0.00000000000E+00 -0.00000000000E+00 -0.34028580262E+03  0.34028580262E+03  0.00000000000E+00 0.  1.
         -6    2    1    2    0  503  0.23600839866E+03 -0.16421888803E+03 -0.51443499880E+02  0.33898013433E+03  0.17202700476E+03 0.  0.
        -24    2    3    3    0    0  0.61551166204E+02 -0.56982140396E+02  0.27679536078E+02  0.11939509199E+03  0.80333809131E+02 0.  0.
          6    2    1    2  501    0 -0.23600839866E+03  0.16421888803E+03  0.48405627126E+02  0.33855359815E+03  0.17206866845E+03 0.  0.
         24    2    5    5    0    0 -0.40369157336E+02  0.74136230143E+02  0.41510815729E+02  0.12300957383E+03  0.79261326934E+02 0.  0.
          5    1    5    5  501    0 -0.19563924132E+03  0.90082657889E+02  0.68948113966E+01  0.21554402432E+03  0.47000000000E+01 0. -1.
        -13    1    6    6    0    0 -0.40468508777E+02  0.44965324873E+02 -0.12363218113E+02  0.61744876757E+02  0.00000000000E+00 0.  1.
         14    1    6    6    0    0  0.99351441069E-01  0.29170905270E+02  0.53874033842E+02  0.61264697073E+02  0.00000000000E+00 0. -1.
         -5    1    3    3    0  503  0.17445723245E+03 -0.10723674764E+03 -0.79123035958E+02  0.21958504234E+03  0.47000000000E+01 0.  1.
         13    1    4    4    0    0  0.17490353358E+02 -0.17404580290E-01  0.42421321768E+02  0.45885523905E+02  0.00000000000E+00 0. -1.
        -14    1    4    4    0    0  0.44060812846E+02 -0.56964735815E+02 -0.14741785690E+02  0.73509568088E+02  0.00000000000E+00 0.  1.
</event>
<event>
12    1  0.1681255E-001  0.1777544E+03  0.7818608E-02  0.1170025E+00
         21   -1    0    0  503  502  0.00000000000E+00  0.00000000000E+00  0.28583798586E+02  0.28583798586E+02  0.00000000000E+00 0. -1.
         21   -1    0    0  501  503 -0.00000000000E+00 -0.00000000000E+00 -0.18775045322E+04  0.18775045322E+04  0.00000000000E+00 0. -1.
          6    2    1    2  501    0  0.41807046781E+02  0.23459551306E+02 -0.15361208650E+04  0.15463712210E+04  0.17116793407E+03 0.  0.
         24    2    3    3    0    0 -0.46990296763E+01 -0.46653690532E+02 -0.98125622803E+03  0.98514440665E+03  0.73804262637E+02 0.  0.
         -6    2    1    2    0  502 -0.41807046781E+02 -0.23459551306E+02 -0.31279986867E+03  0.35971710981E+03  0.17103935669E+03 0.  0.
        -24    2    5    5    0    0 -0.74929285616E+02 -0.61099485163E+02 -0.25396258633E+03  0.28227188323E+03  0.76373266768E+02 0.  0.
          5    1    3    3  501    0  0.46506076458E+02  0.70113241838E+02 -0.55486463694E+03  0.56122681436E+03  0.47000000000E+01 0. -1.
        -13    1    4    4    0    0 -0.46666505982E+01 -0.13421038582E+02 -0.28857866107E+02  0.32166416348E+02  0.00000000000E+00 0.  1.
         14    1    4    4    0    0 -0.32379078053E-01 -0.33232651950E+02 -0.95239836192E+03  0.95297799030E+03  0.00000000000E+00 0. -1.
         -5    1    5    5    0  502  0.33122238834E+02  0.37639933858E+02 -0.58837282346E+02  0.77445226580E+02  0.47000000000E+01 0.  1.
         13    1    6    6    0    0 -0.40707914122E+02  0.11639088854E+02 -0.99798813708E+02  0.10840851387E+03  0.00000000000E+00 0. -1.
        -14    1    6    6    0    0 -0.34221371494E+02 -0.72738574017E+02 -0.15416377262E+03  0.17386336936E+03  0.00000000000E+00 0.  1.
</event>
<event>
12    1  0.1681255E-001  0.1838261E+03  0.7818608E-02  0.1164376E+00
         21   -1    0    0  503  502  0.00000000000E+00  0.00000000000E+00  0.16731880583E+03  0.16731880583E+03  0.00000000000E+00 0. -1.
         21   -1    0    0  501  503 -0.00000000000E+00 -0.00000000000E+00 -0.22184864191E+03  0.22184864191E+03  0.00000000000E+00 0. -1.
          6    2    1    2  501    0  0.62181333145E+02  0.13217165224E+02 -0.86975692154E+02  0.20249990313E+03  0.17146494713E+03 0.  0.
         24    2    3    3    0    0 -0.27862401019E+01  0.59270104005E+02 -0.29547733634E+02  0.10420585874E+03  0.80405746497E+02 0.  0.
         -6    2    1    2    0  502 -0.62181333145E+02 -0.13217165224E+02  0.32445856075E+02  0.18666754461E+03  0.17248428040E+03 0.  0.
        -24    2    5    5    0    0 -0.23408314373E+02  0.46426409295E+02 -0.21857568592E+02  0.97048043957E+02  0.78976001857E+02 0.  0.
          5    1    3    3  501    0  0.64967573246E+02 -0.46052938781E+02 -0.57427958519E+02  0.98294044396E+02  0.47000000000E+01 0. -1.
        -11    1    4    4    0    0  0.31388781393E+02  0.16902398226E+02  0.98793381931E+01  0.36993891203E+02  0.00000000000E+00 0.  1.
         12    1    4    4    0    0 -0.34175021495E+02  0.42367705779E+02 -0.39427071827E+02  0.67211967536E+02  0.00000000000E+00 0. -1.
         -5    1    5    5    0  502 -0.38773018771E+02 -0.59643574519E+02  0.54303424668E+02  0.89619500650E+02  0.47000000000E+01 0.  1.
         11    1    6    6    0    0 -0.21930469581E+02  0.13129664459E+02  0.27465854324E+02  0.37519418154E+02  0.00000000000E+00 0. -1.
        -12    1    6    6    0    0 -0.14778447926E+01  0.33296744836E+02 -0.49323422916E+02  0.59528625804E+02  0.00000000000E+00 0.  1.
</event>
<event>
12    1  0.1681255E-001  0.2001040E+03  0.7818608E-02  0.1149816E+00
         21   -1    0    0  501  502  0.00000000000E+00  0.00000000000E+00  0.58304313510E+03  0.58304313510E+03  0.00000000000E+00 0. -1.
         21   -1    0    0  502  503 -0.00000000000E+00 -0.00000000000E+00 -0.91248644269E+02  0.91248644269E+02  0.00000000000E+00 0. -1.
         -6    2    1    2    0  503  0.89612571439E+02  0.49794112655E+02  0.76869413696E+02  0.21363527810E+03  0.17094226707E+03 0.  0.
        -24    2    3    3    0    0  0.44235101173E+02  0.40932426617E+02 -0.23375071817E+02  0.10314233189E+03  0.80372501019E+02 0.  0.
          6    2    1    2  501    0 -0.89612571439E+02 -0.49794112655E+02  0.41492507713E+03  0.46065650127E+03  0.17184797325E+03 0.  0.
         24    2    5    5    0    0 -0.18897670441E+02 -0.94912063245E+01  0.33386363110E+03  0.34568707265E+03  0.87105815458E+02 0.  0.
          5    1    5    5  501    0 -0.70714900997E+02 -0.40302906330E+02  0.81061446038E+02  0.11496942861E+03  0.47000000000E+01 0. -1.
        -11    1    6    6    0    0  0.21929095887E+02 -0.23767353712E+02  0.24199934510E+03  0.24415047691E+03  0.00000000000E+00 0.  1.
         12    1    6    6    0    0 -0.40826766328E+02  0.14276147388E+02  0.91864285999E+02  0.10153659574E+03  0.00000000000E+00 0. -1.
         -5    1    3    3    0  503  0.45377470266E+02  0.88616860379E+01  0.10024448551E+03  0.11049294621E+03  0.47000000000E+01 0.  1.
         13    1    4    4    0    0  0.39577388437E+02  0.57108044966E+01 -0.46054992951E+02  0.60992174409E+02  0.00000000000E+00 0. -1.
        -14    1    4    4    0    0  0.46577127361E+01  0.35221622120E+02  0.22679921134E+02  0.42150157477E+02  0.00000000000E+00 0.  1.
</event>
<event>
12    1  0.1681255E-001  0.1920927E+03  0.7818608E-02  0.1156838E+00
         21   -1    0    0  503  502  0.00000000000E+00  0.00000000000E+00  0.60939296949E+03  0.60939296949E+03  0.00000000000E+00 0.  1.
         21   -1    0    0  501  503 -0.00000000000E+00 -0.00000000000E+00 -0.85742313312E+02  0.85742313312E+02  0.00000000000E+00 0.  1.
          6    2    1    2  501    0  0.25104650920E+02  0.85108814884E+02  0.72654803005E+02  0.20537362009E+03  0.17036974368E+03 0.  0.
         24    2    3    3    0    0  0.25171727466E+02  0.11376850083E+03  0.20023204053E+02  0.14526074871E+03  0.84397089827E+02 0.  0.
         -6    2    1    2    0  502 -0.25104650920E+02 -0.85108814884E+02  0.45099585317E+03  0.48976166271E+03  0.16910195982E+03 0.  0.
        -24    2    5    5    0    0 -0.43176481498E+02 -0.11838449572E+03  0.39337468979E+03  0.42065196393E+03  0.79531948372E+02 0.  0.
          5    1    3    3  501    0 -0.67076546016E-01 -0.28659685941E+02  0.52631598952E+02  0.60112871382E+02  0.47000000000E+01 0. -1.
        -13    1    4    4    0    0  0.25776653978E+02  0.91389251548E+02  0.50418796610E+02  0.10751040062E+03  0.00000000000E+00 0.  1.
         14    1    4    4    0    0 -0.60492651252E+00  0.22379249277E+02 -0.30395592557E+02  0.37750348094E+02  0.00000000000E+00 0. -1.
         -5    1    5    5    0  502  0.18071830579E+02  0.33275680837E+02  0.57621163388E+02  0.69109698783E+02  0.47000000000E+01 0.  1.
         11    1    6    6    0    0  0.72235965995E+01  0.46420479329E+01  0.77004473310E+02  0.77481726017E+02  0.00000000000E+00 0. -1.
        -12    1    6    6    0    0 -0.50400078098E+02 -0.12302654365E+03  0.31637021647E+03  0.34317023791E+03  0.00000000000E+00 0.  1.
</event>
<event>
12    1  0.1681255E-001  0.1728981E+03  0.7818608E-02  0.1175063E+00
         21   -1    0    0  503  502  0.00000000000E+00  0.00000000000E+00  0.10959471388E+04  0.10959471388E+04  0.00000000000E+00 0.  1.
         21   -1    0    0  501  503 -0.00000000000E+00 -0.00000000000E+00 -0.41913502078E+02  0.41913502078E+02  0.00000000000E+00 0.  1.
          6    2    1    2  501    0 -0.23917694764E+02  0.10794191023E+02  0.18858146495E+03  0.25530683520E+03  0.17008833144E+03 0.  0.
         24    2    3    3    0    0 -0.44703587534E+02  0.61921317899E+02  0.89773253428E+02  0.14203199640E+03  0.79253962807E+02 0.  0.
         -6    2    1    2    0  502  0.23917694764E+02 -0.10794191023E+02  0.86545217173E+03  0.88255380564E+03  0.17089525334E+03 0.  0.
        -24    2    5    5    0    0  0.14184265848E+02 -0.45458709529E+02  0.25843599585E+03  0.27445258359E+03  0.79166716598E+02 0.  0.
          5    1    3    3  501    0  0.20785892770E+02 -0.51127126876E+02  0.98808211523E+02  0.11327483880E+03  0.47000000000E+01 0. -1.
        -11    1    4    4    0    0 -0.45494038013E+02  0.55906613241E+02  0.10401736681E+03  0.12654986960E+03  0.00000000000E+00 0.  1.
         12    1    4    4    0    0  0.79045047861E+00  0.60147046574E+01 -0.14244113380E+02  0.15482126794E+02  0.00000000000E+00 0. -1.
         -5    1    5    5    0  502  0.97334289161E+01  0.34664518506E+02  0.60701617588E+03  0.60810122205E+03  0.47000000000E+01 0.  1.
         13    1    6    6    0    0  0.30604367214E+02  0.11716673633E+02  0.98824324800E+02  0.10411606459E+03  0.00000000000E+00 0. -1.
        -14    1    6    6    0    0 -0.16420101366E+02 -0.57175383162E+02  0.15961167105E+03  0.17033651900E+03  0.00000000000E+00 0.  1.
</event>
<event>
12    1  0.1681255E-001  0.2049895E+03  0.7818608E-02  0.1145989E+00
         21   -1    0    0  501  502  0.00000000000E+00  0.00000000000E+00  0.47297690787E+03  0.47297690787E+03  0.00000000000E+00 0. -1.
         21   -1    0    0  502  503 -0.00000000000E+00 -0.00000000000E+00 -0.15928879825E+03  0.15928879825E+03  0.00000000000E+00 0. -1.
         -6    2    1    2    0  503  0.99935350740E+02 -0.48458921382E+02 -0.54214195955E+02  0.21203747068E+03  0.17229442399E+03 0.  0.
        -24    2    3    3    0    0  0.10975409016E+03 -0.38432375742E+02 -0.93957425130E+02  0.16962811409E+03  0.80141696636E+02 0.  0.
          6    2    1    2  501    0 -0.99935350740E+02  0.48458921382E+02  0.36790230558E+03  0.42022823544E+03  0.17001271137E+03 0.  0.
         24    2    5    5    0    0 -0.78292989223E+02 -0.12400592756E+02  0.31957598400E+03  0.33942108458E+03  0.82427521188E+02 0.  0.
          5    1    5    5  501    0 -0.21642361517E+02  0.60859514138E+02  0.48326321580E+02  0.80807150863E+02  0.47000000000E+01 0. -1.
        -11    1    6    6    0    0 -0.59783766214E+02  0.14627756212E+02  0.10005598047E+03  0.11747029064E+03  0.00000000000E+00 0.  1.
         12    1    6    6    0    0 -0.18509223009E+02 -0.27028348968E+02  0.21952000353E+03  0.22195079395E+03  0.00000000000E+00 0. -1.
         -5    1    3    3    0  503 -0.98187394164E+01 -0.10026545640E+02  0.39743229175E+02  0.42409356591E+02  0.47000000000E+01 0.  1.
         13    1    4    4    0    0 -0.11391528132E+02  0.31918644082E+01 -0.21374097085E+01  0.12021789877E+02  0.00000000000E+00 0. -1.
        -14    1    4    4    0    0  0.12114561829E+03 -0.41624240151E+02 -0.91820015422E+02  0.15760632421E+03  0.00000000000E+00 0.  1.
</event>
<event>
12    1  0.1681255E-001  0.2417983E+03  0.7818608E-02  0.1118946E+00
         21   -1    0    0  503  502  0.00000000000E+00  0.00000000000E+00  0.15379909007E+03  0.15379909007E+03  0.00000000000E+00 0.  1.
         21   -1    0    0  501  503 -0.00000000000E+00 -0.00000000000E+00 -0.41046966124E+03  0.41046966124E+03  0.00000000000E+00 0.  1.
          6    2    1    2  501    0  0.39118298312E+02  0.16205959199E+03 -0.48139353626E+02  0.24654376633E+03  0.17513674295E+03 0.  0.
         24    2    3    3    0    0  0.79167476853E+02  0.13599980324E+03 -0.74621232482E+02  0.19171285170E+03  0.80137714575E+02 0.  0.
         -6    2    1    2    0  502 -0.39118298312E+02 -0.16205959199E+03 -0.20853121754E+03  0.31772498497E+03  0.17225081935E+03 0.  0.
        -24    2    5    5    0    0 -0.14079542832E+02 -0.22801058328E+02 -0.13858827638E+03  0.15982000249E+03  0.74950657490E+02 0.  0.
          5    1    3    3  501    0 -0.40049178541E+02  0.26059788752E+02  0.26481878856E+02  0.54830914631E+02  0.47000000000E+01 0. -1.
        -13    1    4    4    0    0  0.93790004561E+01  0.95221793145E+02 -0.43373271196E+02  0.10505425357E+03  0.00000000000E+00 0.  1.
         14    1    4    4    0    0  0.69788476397E+02  0.40778010097E+02 -0.31247961286E+02  0.86658598129E+02  0.00000000000E+00 0. -1.
         -5    1    5    5    0  502 -0.25038755480E+02 -0.13925853367E+03 -0.69942941162E+02  0.15790498248E+03  0.47000000000E+01 0.  1.
         11    1    6    6    0    0 -0.31386589166E+02 -0.38613638486E+02 -0.11997912250E+03  0.12988887902E+03  0.00000000000E+00 0. -1.
        -12    1    6    6    0    0  0.17307046334E+02  0.15812580158E+02 -0.18609153880E+02  0.29931123470E+02  0.00000000000E+00 0.  1.
</event>
<event>
12    1  0.1681255E-001  0.2069241E+03  0.7818608E-02  0.1144218E+00
         21   -1    0    0  501  502  0.00000000000E+00  0.00000000000E+00  0.16811214410E+03  0.16811214410E+03  0.00000000000E+00 0. -1.
         21   -1    0    0  502  503 -0.00000000000E+00 -0.00000000000E+00 -0.34072435480E+03  0.34072435480E+03  0.00000000000E+00 0. -1.
         -6    2    1    2    0  503  0.10313229602E+03  0.48062276074E+02 -0.21516420674E+03  0.29851840612E+03  0.17283330139E+03 0.  0.
        -24    2    3    3    0    0  0.41575327268E+02 -0.40283519643E+02 -0.11167476733E+03  0.14909821307E+03  0.80048445893E+02 0.  0.
          6    2    1    2  501    0 -0.10313229602E+03 -0.48062276074E+02  0.42551996040E+02  0.21031809278E+03  0.17168801623E+03 0.  0.
         24    2    5    5    0    0 -0.74572289824E+01  0.98160580352E+01 -0.17277546788E+02  0.83411496386E+02  0.80665970811E+02 0.  0.
          5    1    5    5  501    0 -0.95675067039E+02 -0.57878334110E+02  0.59829542828E+02  0.12690659639E+03  0.47000000000E+01 0. -1.
        -11    1    6    6    0    0  0.15366201678E+02  0.39110461836E+02 -0.19256516980E+02  0.46222957773E+02  0.00000000000E+00 0.  1.
         12    1    6    6    0    0 -0.22823430661E+02 -0.29294403801E+02  0.19789701922E+01  0.37188538613E+02  0.00000000000E+00 0. -1.
         -5    1    3    3    0  503  0.61556968754E+02  0.88345795718E+02 -0.10348943941E+03  0.14942019306E+03  0.47000000000E+01 0.  1.
         13    1    4    4    0    0  0.41798918829E+02 -0.14680038755E+01 -0.10026677908E+03  0.10864037757E+03  0.00000000000E+00 0. -1.
        -14    1    4    4    0    0 -0.22359156097E+00 -0.38815515768E+02 -0.11407988246E+02  0.40457835500E+02  0.00000000000E+00 0.  1.
</event>
<event>
12    1  0.1681255E-001  0.1944621E+03  0.7818608E-02  0.1154927E+00
         21   -1    0    0  501  502  0.00000000000E+00  0.00000000000E+00  0.23177179145E+03  0.23177179145E+03  0.00000000000E+00 0.  1.
         21   -1    0    0  502  503 -0.00000000000E+00 -0.00000000000E+00 -0.27791348052E+03  0.27791348052E+03  0.00000000000E+00 0.  1.
         -6    2    1    2    0  503 -0.39464426353E+02  0.77273555855E+02 -0.18805754250E+03  0.27052014577E+03  0.17403122305E+03 0.  0.
        -24    2    3    3    0    0 -0.53590157101E+02  0.11224647887E+03 -0.11161469641E+03  0.18514895431E+03  0.79693901077E+02 0.  0.
          6    2    1    2  501    0  0.39464426353E+02 -0.77273555855E+02  0.14191585343E+03  0.23916512620E+03  0.17184645691E+03 0.  0.
         24    2    5    5    0    0 -0.12617235807E+02 -0.40973388437E+02  0.10599546614E+02  0.93232730464E+02  0.82109551466E+02 0.  0.
          5    1    5    5  501    0  0.52081662160E+02 -0.36300167418E+02  0.13131630682E+03  0.14593239573E+03  0.47000000000E+01 0. -1.
        -13    1    6    6    0    0 -0.24874415203E+02 -0.41962315989E+02  0.38889566041E+02  0.62385662148E+02  0.00000000000E+00 0.  1.
         14    1    6    6    0    0  0.12257179396E+02  0.98892755149E+00 -0.28290019428E+02  0.30847068316E+02  0.00000000000E+00 0. -1.
         -5    1    3    3    0  503  0.14125730748E+02 -0.34972923020E+02 -0.76442846087E+02  0.85371191462E+02  0.47000000000E+01 0.  1.
         11    1    4    4    0    0 -0.57025722996E+01 -0.10764184012E+02  0.15551710879E+00  0.12182412480E+02  0.00000000000E+00 0. -1.
        -12    1    4    4    0    0 -0.47887584802E+02  0.12301066289E+03 -0.11177021352E+03  0.17296654183E+03  0.00000000000E+00 0.  1.
</event>
<event>
12    1  0.1681255E-001  0.2005714E+03  0.7818608E-02  0.1149350E+00
         21   -1    0    0  501  502  0.00000000000E+00  0.00000000000E+00  0.26964499397E+02  0.26964499397E+02  0.00000000000E+00 0. -1.
         21   -1    0    0  502  503 -0.00000000000E+00 -0.00000000000E+00 -0.19519855220E+04  0.19519855220E+04  0.00000000000E+00 0. -1.
         -6    2    1    2    0  503 -0.74006291689E+02 -0.70859474527E+02 -0.14453874310E+04  0.14592373761E+04  0.17242649959E+03 0.  0.
        -24    2    3    3    0    0 -0.44054777315E+02 -0.10619712757E+03 -0.12750426772E+04  0.12826438652E+04  0.78884745061E+02 0.  0.
          6    2    1    2  501    0  0.74006291689E+02  0.70859474527E+02 -0.47963359168E+03  0.51971264538E+03  0.17191525575E+03 0.  0.
         24    2    5    5    0    0  0.46718475123E+02  0.93777495419E+02 -0.21171093988E+03  0.24938969414E+03  0.79980390831E+02 0.  0.
          5    1    5    5  501    0  0.27287816566E+02 -0.22918020892E+02 -0.26792265180E+03  0.27032295123E+03  0.47000000000E+01 0. -1.
        -13    1    6    6    0    0  0.21975857718E+02  0.27520079703E+01 -0.57899609263E+01  0.22891822073E+02  0.00000000000E+00 0.  1.
         14    1    6    6    0    0  0.24742617405E+02  0.91025487449E+02 -0.20592097895E+03  0.22649787207E+03  0.00000000000E+00 0. -1.
         -5    1    3    3    0  503 -0.29951514374E+02  0.35337653039E+02 -0.17034475382E+03  0.17659351089E+03  0.47000000000E+01 0.  1.
         13    1    4    4    0    0 -0.35515740858E+02 -0.22697286503E+02 -0.72599226353E+03  0.72721475602E+03  0.00000000000E+00 0. -1.
        -14    1    4    4    0    0 -0.85390364572E+01 -0.83499841063E+02 -0.54905041362E+03  0.55542910916E+03  0.00000000000E+00 0.  1.
</event>
<event>
12    1  0.1681255E-001  0.2260371E+03  0.7818608E-02  0.1129809E+00
         21   -1    0    0  501  502  0.00000000000E+00  0.00000000000E+00  0.24737887028E+03  0.24737887028E+03  0.00000000000E+00 0.  1.
         21   -1    0    0  502  503 -0.00000000000E+00 -0.00000000000E+00 -0.48097190804E+03  0.48097190804E+03  0.00000000000E+00 0. -1.
         -6    2    1    2    0  503  0.39493113812E+02 -0.14004585876E+03 -0.39297479550E+03  0.45334531582E+03  0.17297467123E+03 0.  0.
        -24    2    3    3    0    0  0.69364167226E+02 -0.13571037939E+03 -0.22837549407E+03  0.28593535123E+03  0.79843371822E+02 0.  0.
          6    2    1    2  501    0 -0.39493113812E+02  0.14004585876E+03  0.15938175774E+03  0.27500546250E+03  0.17044914523E+03 0.  0.
         24    2    5    5    0    0  0.20949781128E+02  0.51592088914E+02  0.13273924946E+03  0.16450964268E+03  0.79643438026E+02 0.  0.
          5    1    5    5  501    0 -0.60442894940E+02  0.88453769851E+02  0.26642508278E+02  0.11049581982E+03  0.47000000000E+01 0. -1.
        -13    1    6    6    0    0 -0.36005608188E+01  0.56395034081E+02  0.42063418717E+02  0.70446398782E+02  0.00000000000E+00 0.  1.
         14    1    6    6    0    0  0.24550341947E+02 -0.48029451676E+01  0.90675830746E+02  0.94063243903E+02  0.00000000000E+00 0. -1.
         -5    1    3    3    0  503 -0.29871053414E+02 -0.43354793733E+01 -0.16459930143E+03  0.16740996459E+03  0.47000000000E+01 0.  1.
         11    1    4    4    0    0  0.45010279813E+02 -0.79017708316E+02 -0.19641854886E+03  0.21644853858E+03  0.00000000000E+00 0. -1.
        -12    1    4    4    0    0  0.24353887413E+02 -0.56692671075E+02 -0.31956945208E+02  0.69486812654E+02  0.00000000000E+00 0.  1.
</event>
<event>
12    1  0.1681255E-001  0.2954683E+03  0.7818608E-02  0.1087553E+00
         21   -1    0    0  501  502  0.00000000000E+00  0.00000000000E+00  0.36057814293E+03  0.36057814293E+03  0.00000000000E+00 0. -1.
         21   -1    0    0  502  503 -0.00000000000E+00 -0.00000000000E+00 -0.37999431724E+03  0.37999431724E+03  0.00000000000E+00 0.  1.
         -6    2    1    2    0  503  0.23938706242E+03 -0.46075046974E+01 -0.23288339591E+03  0.37605942531E+03  0.17279647138E+03 0.  0.
        -24    2    3    3    0    0  0.15983093397E+03 -0.11384063843E+01 -0.65842769738E+02  0.19094899068E+03  0.81111178592E+02 0.  0.
          6    2    1    2  501    0 -0.23938706242E+03  0.46075046974E+01  0.21346722160E+03  0.36451303485E+03  0.17313030678E+03 0.  0.
         24    2    5    5    0    0 -0.10609255471E+03 -0.60447339359E+02  0.12021444215E+03  0.18924829397E+03  0.80336129282E+02 0.  0.
          5    1    5    5  501    0 -0.13329450771E+03  0.65054844057E+02  0.93252779446E+02  0.17526474088E+03  0.47000000000E+01 0. -1.
        -13    1    6    6    0    0  0.48217927490E+01 -0.23228969029E+02  0.42882800886E+02  0.49007849364E+02  0.00000000000E+00 0.  1.
         14    1    6    6    0    0 -0.11091434746E+03 -0.37218370330E+02  0.77331641267E+02  0.14024044461E+03  0.00000000000E+00 0. -1.
         -5    1    3    3    0  503  0.79556128446E+02 -0.34690983131E+01 -0.16704062617E+03  0.18511043463E+03  0.47000000000E+01 0.  1.
         13    1    4    4    0    0  0.60162046502E+02  0.36016442383E+02 -0.10049176189E+02  0.70835315369E+02  0.00000000000E+00 0. -1.
        -14    1    4    4    0    0  0.99668887472E+02 -0.37154848768E+02 -0.55793593549E+02  0.12011367532E+03  0.00000000000E+00 0.  1.
</event>
<event>
12    1  0.1681255E-001  0.1769116E+03  0.7818608E-02  0.1171161E+00
         21   -1    0    0  503  502  0.00000000000E+00  0.00000000000E+00  0.18673109280E+04  0.18673109280E+04  0.00000000000E+00 0. -1.
         21   -1    0    0  501  503 -0.00000000000E+00 -0.00000000000E+00 -0.31629339443E+02  0.31629339443E+02  0.00000000000E+00 0. -1.
          6    2    1    2  501    0 -0.21468738761E+02  0.34895902122E+02  0.15697599026E+04  0.15795470010E+04  0.17071598007E+03 0.  0.
         24    2    3    3    0    0  0.40157191940E+02  0.11255199020E+02  0.55458633321E+03  0.56221907739E+03  0.82371174759E+02 0.  0.
         -6    2    1    2    0  502  0.21468738761E+02 -0.34895902122E+02  0.26592168601E+03  0.31939326649E+03  0.17210196065E+03 0.  0.
        -24    2    5    5    0    0 -0.21341062249E+01 -0.45301423604E+02  0.51653742688E+02  0.10352707946E+03  0.77414298790E+02 0.  0.
          5    1    3    3  501    0 -0.61625930701E+02  0.23640703102E+02  0.10151735693E+04  0.10173279236E+04  0.47000000000E+01 0. -1.
        -13    1    4    4    0    0  0.23272645808E+02 -0.30560464374E+02  0.37871662196E+03  0.38065974015E+03  0.00000000000E+00 0.  1.
         14    1    4    4    0    0  0.16884546132E+02  0.41815663394E+02  0.17586971125E+03  0.18155933724E+03  0.00000000000E+00 0. -1.
         -5    1    5    5    0  502  0.23602844986E+02  0.10405521482E+02  0.21426794332E+03  0.21586618703E+03  0.47000000000E+01 0.  1.
         13    1    6    6    0    0  0.98646175781E+01 -0.61624216870E+02  0.19246989996E+02  0.65309275059E+02  0.00000000000E+00 0. -1.
        -14    1    6    6    0    0 -0.11998723803E+02  0.16322793266E+02  0.32406752691E+02  0.38217804397E+02  0.00000000000E+00 0.  1.
</event>
<event>
12    1  0.1681255E-001  0.1882103E+03  0.7818608E-02  0.1162991E+00
         21   -1    0    0  501  502  0.00000000000E+00  0.00000000000E+00  0.37576398308E+03  0.37576398308E+03  0.00000000000E+00 0.  1.
         21   -1    0    0  502  503 -0.00000000000E+00 -0.00000000000E+00 -0.13586245414E+03  0.13586245414E+03  0.00000000000E+00 0.  1.
         -6    2    1    2    0  503 -0.15496452230E+02  0.29578228148E+02 -0.34103050227E+02  0.17920858645E+03  0.17273589034E+03 0.  0.
        -24    2    3    3    0    0 -0.11766324550E+02  0.69213008512E+02  0.25766423446E+02  0.10715809343E+03  0.76746735890E+02 0.  0.
          6    2    1    2  501    0  0.15496452230E+02 -0.29578228148E+02  0.27400457916E+03  0.33241785077E+03  0.18522447596E+03 0.  0.
         24    2    5    5    0    0  0.49875216345E+02 -0.82340517644E+02  0.18893655569E+03  0.22647250055E+03  0.79531587291E+02 0.  0.
          5    1    5    5  501    0 -0.34378764116E+02  0.52762289497E+02  0.85068023476E+02  0.10594535022E+03  0.47000000000E+01 0. -1.
        -13    1    6    6    0    0  0.67330123809E+02 -0.48407244283E+02  0.15314178837E+03  0.17415227307E+03  0.00000000000E+00 0.  1.
         14    1    6    6    0    0 -0.17454907464E+02 -0.33933273361E+02  0.35794767320E+02  0.52320227475E+02  0.00000000000E+00 0. -1.
         -5    1    3    3    0  503 -0.37301276802E+01 -0.39634780364E+02 -0.59869473674E+02  0.72050493024E+02  0.47000000000E+01 0.  1.
         11    1    4    4    0    0  0.11671870836E+02  0.65583497504E+02 -0.67012418888E+01  0.66950237912E+02  0.00000000000E+00 0. -1.
        -12    1    4    4    0    0 -0.23438195385E+02  0.36295110082E+01  0.32467665335E+02  0.40207855518E+02  0.00000000000E+00 0.  1.
</event>
<event>
12    1  0.1681255E-001  0.1722558E+03  0.7818608E-02  0.1175576E+00
         21   -1    0    0  503  502  0.00000000000E+00  0.00000000000E+00  0.59811434660E+02  0.59811434660E+02  0.00000000000E+00 0. -1.
         21   -1    0    0  501  503 -0.00000000000E+00 -0.00000000000E+00 -0.81319131911E+03  0.81319131911E+03  0.00000000000E+00 0. -1.
          6    2    1    2  501    0  0.13883520816E+02 -0.43389555470E+01 -0.64939981393E+03  0.67179663573E+03  0.17140310020E+03 0.  0.
         24    2    3    3    0    0  0.64352581624E+02 -0.83061776165E+01 -0.26889237030E+03  0.28790749859E+03  0.79858459750E+02 0.  0.
         -6    2    1    2    0  502 -0.13883520816E+02  0.43389555470E+01 -0.10398007052E+03  0.20120611804E+03  0.17164052024E+03 0.  0.
        -24    2    5    5    0    0 -0.62026170783E+01 -0.48907101522E+02 -0.21064847276E+02  0.10225581172E+03  0.87075520108E+02 0.  0.
          5    1    3    3  501    0 -0.50469060809E+02  0.39672220696E+01 -0.38050744363E+03  0.38388913713E+03  0.47000000000E+01 0. -1.
        -11    1    4    4    0    0  0.42031388992E+02  0.20076344664E+02 -0.60211233907E+02  0.76125488269E+02  0.00000000000E+00 0.  1.
         12    1    4    4    0    0  0.22321192632E+02 -0.28382522281E+02 -0.20868113639E+03  0.21178201032E+03  0.00000000000E+00 0. -1.
         -5    1    5    5    0  502 -0.76809037374E+01  0.53246057069E+02 -0.82915223240E+02  0.98950306319E+02  0.47000000000E+01 0.  1.
         13    1    6    6    0    0  0.32255384291E+02 -0.52309000368E+02 -0.12983055140E+02  0.62810835499E+02  0.00000000000E+00 0. -1.
        -14    1    6    6    0    0 -0.38458001369E+02  0.34018988461E+01 -0.80817921364E+01  0.39444976222E+02  0.00000000000E+00 0.  1.
</event>
<event>
12    1  0.1681255E-001  0.2870696E+03  0.7818608E-02  0.1092408E+00
         21   -1    0    0  501  502  0.00000000000E+00  0.00000000000E+00  0.88940916610E+03  0.88940916610E+03  0.00000000000E+00 0.  1.
         21   -1    0    0  502  503 -0.00000000000E+00 -0.00000000000E+00 -0.21307103007E+03  0.21307103007E+03  0.00000000000E+00 0.  1.
         -6    2    1    2    0  503  0.10962133492E+03  0.19706178762E+03 -0.77386592644E+02  0.29731736251E+03  0.17764780923E+03 0.  0.
        -24    2    3    3    0    0  0.47529996806E+01  0.10014898203E+03  0.12293447741E+02  0.12863405194E+03  0.79644088630E+02 0.  0.
          6    2    1    2  501    0 -0.10962133492E+03 -0.19706178762E+03  0.75372472867E+03  0.80516283366E+03  0.17127766021E+03 0.  0.
         24    2    5    5    0    0 -0.98517446989E+01 -0.41798498262E+02  0.16285931121E+03  0.18612754249E+03  0.79222064459E+02 0.  0.
          5    1    5    5  501    0 -0.99769590220E+02 -0.15526328936E+03  0.59086541746E+03  0.61903529117E+03  0.47000000000E+01 0. -1.
        -11    1    6    6    0    0  0.16444810578E+01 -0.58248484235E+02  0.15309374097E+03  0.16380868035E+03  0.00000000000E+00 0.  1.
         12    1    6    6    0    0 -0.11496225757E+02  0.16449985974E+02  0.97655702308E+01  0.22318862138E+02  0.00000000000E+00 0. -1.
         -5    1    3    3    0  503  0.10486833524E+03  0.96912805591E+02 -0.89680040385E+02  0.16868331057E+03  0.47000000000E+01 0.  1.
         11    1    4    4    0    0  0.19645567459E+02  0.84624358693E+01  0.27151179392E+02  0.34565122364E+02  0.00000000000E+00 0. -1.
        -12    1    4    4    0    0 -0.14892567779E+02  0.91686546159E+02 -0.14857731652E+02  0.94068929576E+02  0.00000000000E+00 0.  1.
</event>
<event>
12    1  0.1681255E-001  0.1778793E+03  0.7818608E-02  0.1170015E+00
         21   -1    0    0  503  502  0.00000000000E+00  0.00000000000E+00  0.13147870376E+03  0.13147870376E+03  0.00000000000E+00 0. -1.
         21   -1    0    0  501  503 -0.00000000000E+00 -0.00000000000E+00 -0.24059236661E+03  0.24059236661E+03  0.00000000000E+00 0. -1.
          6    2    1    2  501    0 -0.12151637169E+02  0.41847189956E+02 -0.44267927208E+02  0.18274058868E+03  0.17185931392E+03 0.  0.
         24    2    3    3    0    0 -0.56479244530E+02 -0.19181796244E+01 -0.62176644696E+02  0.11775477092E+03  0.82502523914E+02 0.  0.
         -6    2    1    2    0  502  0.12151637169E+02 -0.41847189956E+02 -0.64845735642E+02  0.18933048168E+03  0.17245930612E+03 0.  0.
        -24    2    5    5    0    0 -0.34417729838E+02 -0.47710076332E+01 -0.89083024965E+02  0.12488759663E+03  0.80335445570E+02 0.  0.
          5    1    3    3  501    0  0.44327607361E+02  0.43765369581E+02  0.17908717488E+02  0.64985817767E+02  0.47000000000E+01 0. -1.
        -11    1    4    4    0    0 -0.29236345820E+02 -0.24123560930E+02  0.84787082007E+01  0.38840682301E+02  0.00000000000E+00 0.  1.
         12    1    4    4    0    0 -0.27242898710E+02  0.22205381306E+02 -0.70655352896E+02  0.78914088615E+02  0.00000000000E+00 0. -1.
         -5    1    5    5    0  502  0.46569367007E+02 -0.37076182323E+02  0.24237289323E+02  0.64442885044E+02  0.47000000000E+01 0.  1.
         11    1    6    6    0    0 -0.15153735257E+02 -0.42523992426E+02 -0.46184070642E+02  0.64582458959E+02  0.00000000000E+00 0. -1.
        -12    1    6    6    0    0 -0.19263994581E+02  0.37752984793E+02 -0.42898954324E+02  0.60305137675E+02  0.00000000000E+00 0.  1.
</event>
<event>
12    1  0.1681255E-001  0.2306570E+03  0.7818608E-02  0.1126191E+00
         21   -1    0    0  503  502  0.00000000000E+00  0.00000000000E+00  0.17482252872E+04  0.17482252872E+04  0.00000000000E+00 0. -1.
         21   -1    0    0  501  503 -0.00000000000E+00 -0.00000000000E+00 -0.12330454580E+03  0.12330454580E+03  0.00000000000E+00 0.  1.
          6    2    1    2  501    0 -0.11428714833E+03 -0.10142855221E+03  0.26625809140E+00  0.23058350169E+03  0.17268287952E+03 0.  0.
         24    2    3    3    0    0 -0.13068118001E+03 -0.70975101302E+02 -0.43614337234E+02  0.17451413757E+03  0.80236762059E+02 0.  0.
         -6    2    1    2    0  502  0.11428714833E+03  0.10142855221E+03  0.16246544833E+04  0.16409463313E+04  0.17278127402E+03 0.  0.
        -24    2    5    5    0    0  0.11891173107E+03  0.15667699562E+02  0.10862699096E+04  0.10957341251E+04  0.79154783735E+02 0.  0.
          5    1    3    3  501    0  0.16394031675E+02 -0.30453450909E+02  0.43880595325E+02  0.56069364121E+02  0.47000000000E+01 0. -1.
        -13    1    4    4    0    0 -0.12596608036E+03 -0.36319063128E+02 -0.20752624169E+02  0.13272979755E+03  0.00000000000E+00 0.  1.
         14    1    4    4    0    0 -0.47150996495E+01 -0.34656038174E+02 -0.22861713065E+02  0.41784340020E+02  0.00000000000E+00 0. -1.
         -5    1    5    5    0  502 -0.46245827370E+01  0.85760852650E+02  0.53838457373E+03  0.54521220624E+03  0.47000000000E+01 0.  1.
         13    1    6    6    0    0  0.55938295152E+02  0.15138634903E+02  0.82296703677E+03  0.82500485740E+03  0.00000000000E+00 0. -1.
        -14    1    6    6    0    0  0.62973435918E+02  0.52906465883E+00  0.26330287282E+03  0.27072926768E+03  0.00000000000E+00 0.  1.
</event>
<event>
12    1  0.1681255E-001  0.2167447E+03  0.7818608E-02  0.1136531E+00
         21   -1    0    0  503  502  0.00000000000E+00  0.00000000000E+00  0.20106837750E+03  0.20106837750E+03  0.00000000000E+00 0.  1.
         21   -1    0    0  501  503 -0.00000000000E+00 -0.00000000000E+00 -0.99719638005E+03  0.99719638005E+03  0.00000000000E+00 0.  1.
          6    2    1    2  501    0 -0.12710386937E+03 -0.23356634757E+02 -0.92293479292E+03  0.94804372762E+03  0.17400388354E+03 0.  0.
         24    2    3    3    0    0 -0.40529293426E+01  0.19677433885E+02 -0.42977067104E+03  0.43791981520E+03  0.81653580560E+02 0.  0.
         -6    2    1    2    0  502  0.12710386937E+03  0.23356634757E+02  0.12680679037E+03  0.25022102993E+03  0.17271269709E+03 0.  0.
        -24    2    5    5    0    0  0.22566884718E+02 -0.42032759330E+02  0.48284631624E+02  0.10396244579E+03  0.78744951205E+02 0.  0.
          5    1    3    3  501    0 -0.12305094003E+03 -0.43034068642E+02 -0.49316412188E+03  0.51012391241E+03  0.47000000000E+01 0. -1.
        -13    1    4    4    0    0 -0.26696860582E+02 -0.14408635900E+02 -0.76638214634E+02  0.82424189991E+02  0.00000000000E+00 0.  1.
         14    1    4    4    0    0  0.22643931239E+02  0.34086069784E+02 -0.35313245641E+03  0.35549562521E+03  0.00000000000E+00 0. -1.
         -5    1    5    5    0  502  0.10453698465E+03  0.65389394088E+02  0.78522158749E+02  0.14625858414E+03  0.47000000000E+01 0.  1.
         13    1    6    6    0    0 -0.28046665008E+02 -0.10456578250E+02  0.52134471757E+01  0.30383144640E+02  0.00000000000E+00 0. -1.
        -14    1    6    6    0    0  0.50613549727E+02 -0.31576181081E+02  0.43071184448E+02  0.73579301147E+02  0.00000000000E+00 0.  1.
</event>
<event>
12    1  0.1681255E-001  0.1952528E+03  0.7818608E-02  0.1153903E+00
         21   -1    0    0  501  502  0.00000000000E+00  0.00000000000E+00  0.38257085991E+03  0.38257085991E+03  0.00000000000E+00 0.  1.
         21   -1    0    0  502  503 -0.00000000000E+00 -0.00000000000E+00 -0.11468365431E+03  0.11468365431E+03  0.00000000000E+00 0. -1.
         -6    2    1    2    0  503  0.89685983011E+02  0.22650771680E+02  0.43126139665E+02  0.19952780299E+03  0.17144925558E+03 0.  0.
        -24    2    3    3    0    0  0.35948072093E+02 -0.56201944299E+01 -0.40321847194E+02  0.96219201680E+02  0.79425644084E+02 0.  0.
          6    2    1    2  501    0 -0.89685983011E+02 -0.22650771680E+02  0.22476106593E+03  0.29772671123E+03  0.17195064644E+03 0.  0.
         24    2    5    5    0    0 -0.12844194027E+03 -0.21935185996E+02  0.15410726259E+03  0.21700133595E+03  0.79762441137E+02 0.  0.
          5    1    5    5  501    0  0.38755957263E+02 -0.71558568353E+00  0.70653803347E+02  0.80725375277E+02  0.47000000000E+01 0. -1.
        -13    1    6    6    0    0 -0.36508119846E+02 -0.41537733920E+02  0.35721846422E+02  0.65835222075E+02  0.00000000000E+00 0.  1.
         14    1    6    6    0    0 -0.91933820429E+02  0.19602547923E+02  0.11838541616E+03  0.15116611388E+03  0.00000000000E+00 0. -1.
         -5    1    3    3    0  503  0.53737910918E+02  0.28270966110E+02  0.83447986859E+02  0.10330860131E+03  0.47000000000E+01 0.  1.
         11    1    4    4    0    0  0.33229393747E+02  0.32963563579E+02 -0.31873714743E+02  0.56627933249E+02  0.00000000000E+00 0. -1.
        -12    1    4    4    0    0  0.27186783465E+01 -0.38583758009E+02 -0.84481324515E+01  0.39591268431E+02  0.00000000000E+00 0.  1.
</event>
<event>
12    1  0.1681255E-001  0.1950193E+03  0.7818608E-02  0.1154203E+00
         21   -1    0    0  503  502  0.00000000000E+00  0.00000000000E+00  0.21206246127E+02  0.21206246127E+02  0.00000000000E+00 0.  1.
         21   -1    0    0  501  503 -0.00000000000E+00 -0.00000000000E+00 -0.18162106879E+04  0.18162106879E+04  0.00000000000E+00 0.  1.
          6    2    1    2  501    0 -0.77954392371E+01  0.89680483219E+02 -0.77579516232E+03  0.79971752119E+03  0.17200762160E+03 0.  0.
         24    2    3    3    0    0 -0.46880175584E+02 -0.36691859523E+01 -0.42188892911E+03  0.43159595262E+03  0.77933202306E+02 0.  0.
         -6    2    1    2    0  502  0.77954392371E+01 -0.89680483219E+02 -0.10192092795E+04  0.10376994128E+04  0.17300045699E+03 0.  0.
        -24    2    5    5    0    0 -0.52737166105E+02 -0.90895133273E+02 -0.61009915829E+03  0.62410679573E+03  0.79026423325E+02 0.  0.
          5    1    3    3  501    0  0.39084736347E+02  0.93349669171E+02 -0.35390623320E+03  0.36812156857E+03  0.47000000000E+01 0. -1.
        -11    1    4    4    0    0 -0.41121226487E+01  0.30873871889E+02 -0.91287086124E+02  0.96454329147E+02  0.00000000000E+00 0.  1.
         12    1    4    4    0    0 -0.42768052935E+02 -0.34543057841E+02 -0.33060184299E+03  0.33514162347E+03  0.00000000000E+00 0. -1.
         -5    1    5    5    0  502  0.60532605342E+02  0.12146500540E+01 -0.40911012116E+03  0.41359261710E+03  0.47000000000E+01 0.  1.
         11    1    6    6    0    0  0.39843372069E+01  0.12517447848E+02 -0.77346646633E+02  0.78454223525E+02  0.00000000000E+00 0. -1.
        -12    1    6    6    0    0 -0.56721503312E+02 -0.10341258112E+03 -0.53275251166E+03  0.54565257220E+03  0.00000000000E+00 0.  1.
</event>
<event>
12    1  0.1681255E-001  0.2356301E+03  0.7818608E-02  0.1122905E+00
         21   -1    0    0  501  502  0.00000000000E+00  0.00000000000E+00  0.12133289722E+04  0.12133289722E+04  0.00000000000E+00 0.  1.
         21   -1    0    0  502  503 -0.00000000000E+00 -0.00000000000E+00 -0.36801575854E+03  0.36801575854E+03  0.00000000000E+00 0. -1.
         -6    2    1    2    0  503 -0.14895338261E+03 -0.56239680597E+02 -0.31733622887E+03  0.39525159613E+03  0.17369954007E+03 0.  0.
        -24    2    3    3    0    0 -0.14390972412E+03  0.66593537999E+01 -0.21482652799E+03  0.27478560178E+03  0.92748768876E+02 0.  0.
          6    2    1    2  501    0  0.14895338261E+03  0.56239680597E+02  0.11626494425E+04  0.11860931346E+04  0.17237513132E+03 0.  0.
         24    2    5    5    0    0  0.21763031863E+02  0.66371614746E+02  0.47709496431E+03  0.48875026771E+03  0.79864875995E+02 0.  0.
          5    1    5    5  501    0  0.12719035075E+03 -0.10131934149E+02  0.68555447823E+03  0.69734286691E+03  0.47000000000E+01 0. -1.
        -11    1    6    6    0    0 -0.28940737867E+02  0.38594378787E+02  0.20985026528E+03  0.21532353847E+03  0.00000000000E+00 0.  1.
         12    1    6    6    0    0  0.50703769730E+02  0.27777235958E+02  0.26724469903E+03  0.27342672924E+03  0.00000000000E+00 0. -1.
         -5    1    3    3    0  503 -0.50436584905E+01 -0.62899034397E+02 -0.10250970088E+03  0.12046599434E+03  0.47000000000E+01 0.  1.
         13    1    4    4    0    0 -0.22132260456E+02 -0.20737717686E+02 -0.10240016686E+03  0.10679739725E+03  0.00000000000E+00 0. -1.
        -14    1    4    4    0    0 -0.12177746367E+03  0.27397071486E+02 -0.11242636114E+03  0.16798820453E+03  0.00000000000E+00 0.  1.
</event>
<event>
12    1  0.1681255E-001  0.2108827E+03  0.7818608E-02  0.1141047E+00
         21   -1    0    0  501  502  0.00000000000E+00  0.00000000000E+00  0.22532894277E+03  0.22532894277E+03  0.00000000000E+00 0. -1.
         21   -1    0    0  502  503 -0.00000000000E+00 -0.00000000000E+00 -0.20597298471E+03  0.20597298471E+03  0.00000000000E+00 0.  1.
         -6    2    1    2    0  503 -0.13133517080E+01 -0.12041124144E+03 -0.36539544281E+02  0.21313731025E+03  0.17202262284E+03 0.  0.
        -24    2    3    3    0    0  0.38043997875E+02 -0.25111875861E+02  0.38279851431E+02  0.85657892226E+02  0.61595254617E+02 0.  0.
          6    2    1    2  501    0  0.13133517080E+01  0.12041124144E+03  0.55895502335E+02  0.21816461723E+03  0.17312105901E+03 0.  0.
         24    2    5    5    0    0  0.25885037329E+01  0.45842683224E+02  0.89269022635E+02  0.13632344334E+03  0.92232699432E+02 0.  0.
          5    1    5    5  501    0 -0.12751520249E+01  0.74568558213E+02 -0.33373520301E+02  0.81841173891E+02  0.47000000000E+01 0. -1.
        -13    1    6    6    0    0 -0.75361286579E+01  0.12711905366E+02 -0.18179492403E+02  0.23428182115E+02  0.00000000000E+00 0.  1.
         14    1    6    6    0    0  0.10124632391E+02  0.33130777858E+02  0.10744851504E+03  0.11289526122E+03  0.00000000000E+00 0. -1.
         -5    1    3    3    0  503 -0.39357349583E+02 -0.95299365576E+02 -0.74819395712E+02  0.12747941803E+03  0.47000000000E+01 0.  1.
         11    1    4    4    0    0  0.27193605571E+02 -0.43342487386E+02  0.13265908191E+02  0.52858752510E+02  0.00000000000E+00 0. -1.
        -12    1    4    4    0    0  0.10850392304E+02  0.18230611524E+02  0.25013943240E+02  0.32799139716E+02  0.00000000000E+00 0.  1.
</event>
<event>
12    1  0.1681255E-001  0.2487727E+03  0.7818608E-02  0.1114221E+00
         21   -1    0    0  501  502  0.00000000000E+00  0.00000000000E+00  0.27739444580E+03  0.27739444580E+03  0.00000000000E+00 0. -1.
         21   -1    0    0  502  503 -0.00000000000E+00 -0.00000000000E+00 -0.23613037739E+03  0.23613037739E+03  0.00000000000E+00 0.  1.
         -6    2    1    2    0  503  0.11506217420E+03  0.13825836078E+03  0.82672755307E+02  0.26132940267E+03  0.17059775489E+03 0.  0.
        -24    2    3    3    0    0  0.10174503639E+03  0.22859494626E+02  0.52513717593E+02  0.14122152606E+03  0.79443187021E+02 0.  0.
          6    2    1    2  501    0 -0.11506217420E+03 -0.13825836078E+03 -0.41408686889E+02  0.25219542051E+03  0.17185218218E+03 0.  0.
         24    2    5    5    0    0 -0.80711473641E+02 -0.10381833674E+03  0.38576065862E+02  0.15846316055E+03  0.79560488777E+02 0.  0.
          5    1    5    5  501    0 -0.34350700563E+02 -0.34440024041E+02 -0.79984752751E+02  0.93732259963E+02  0.47000000000E+01 0. -1.
        -13    1    6    6    0    0 -0.72824825935E+02 -0.56266950054E+02 -0.67785215634E+01  0.92278780309E+02  0.00000000000E+00 0.  1.
         14    1    6    6    0    0 -0.78866477063E+01 -0.47551386683E+02  0.45354587426E+02  0.66184380242E+02  0.00000000000E+00 0. -1.
         -5    1    3    3    0  503  0.13317137818E+02  0.11539886615E+03  0.30159037714E+02  0.12010787661E+03  0.47000000000E+01 0.  1.
         13    1    4    4    0    0  0.38153834449E+02  0.44821383565E+02  0.43827934430E+02  0.73386370289E+02  0.00000000000E+00 0. -1.
        -14    1    4    4    0    0  0.63591201937E+02 -0.21961888938E+02  0.86857831632E+01  0.67835155773E+02  0.00000000000E+00 0.  1.
</event>
<event>
12    1  0.1681255E-001  0.2081569E+03  0.7818608E-02  0.1145713E+00
         21   -1    0    0  503  502  0.00000000000E+00  0.00000000000E+00  0.81098113528E+03  0.81098113528E+03  0.00000000000E+00 0.  1.
         21   -1    0    0  501  503 -0.00000000000E+00 -0.00000000000E+00 -0.67770579462E+02  0.67770579462E+02  0.00000000000E+00 0.  1.
          6    2    1    2  501    0  0.59379374467E+02  0.47913328738E+02  0.15654024439E+03  0.26044991111E+03  0.19366907574E+03 0.  0.
         24    2    3    3    0    0  0.11543052588E+03  0.37621574466E+02  0.14186863311E+03  0.20141603982E+03  0.75512402078E+02 0.  0.
         -6    2    1    2    0  502 -0.59379374467E+02 -0.47913328738E+02  0.58667031143E+03  0.61830180364E+03  0.17970383659E+03 0.  0.
        -24    2    5    5    0    0 -0.14252270562E+02 -0.28796934281E+02  0.10359686278E+03  0.13272591993E+03  0.76494896588E+02 0.  0.
          5    1    3    3  501    0 -0.56051151415E+02  0.10291754272E+02  0.14671611282E+02  0.59033871282E+02  0.47000000000E+01 0. -1.
        -13    1    4    4    0    0  0.63261826045E+02  0.55743154620E+01  0.22704835881E+02  0.67443614967E+02  0.00000000000E+00 0.  1.
         14    1    4    4    0    0  0.52168699837E+02  0.32047259004E+02  0.11916379723E+03  0.13397242486E+03  0.00000000000E+00 0. -1.
         -5    1    5    5    0  502 -0.45127103906E+02 -0.19116394457E+02  0.48307344865E+03  0.48557588371E+03  0.47000000000E+01 0.  1.
         13    1    6    6    0    0  0.27822502236E+02 -0.29704342192E+02  0.46505882382E+02  0.61799973074E+02  0.00000000000E+00 0. -1.
        -14    1    6    6    0    0 -0.42074772798E+02  0.90740791047E+00  0.57090980395E+02  0.70925946857E+02  0.00000000000E+00 0.  1.
</event>
<event>
12    1  0.1681255E-001  0.2208227E+03  0.7818608E-02  0.1133607E+00
         21   -1    0    0  503  502  0.00000000000E+00  0.00000000000E+00  0.12629143335E+03  0.12629143335E+03  0.00000000000E+00 0.  1.
         21   -1    0    0  501  503 -0.00000000000E+00 -0.00000000000E+00 -0.10183681826E+04  0.10183681826E+04  0.00000000000E+00 0.  1.
          6    2    1    2  501    0 -0.10574593481E+02  0.13630815312E+03 -0.89743186254E+03  0.92377198469E+03  0.17111106673E+03 0.  0.
         24    2    3    3    0    0  0.19579083862E+02  0.15524472338E+03 -0.65142836899E+03  0.67516054732E+03  0.83657516531E+02 0.  0.
         -6    2    1    2    0  502  0.10574593481E+02 -0.13630815312E+03  0.53551133015E+01  0.22088763126E+03  0.17340972802E+03 0.  0.
        -24    2    5    5    0    0  0.25211370700E+02 -0.77286601760E+02 -0.62235322851E+02  0.12984733342E+03  0.79864025448E+02 0.  0.
          5    1    3    3  501    0 -0.30153677342E+02 -0.18936570263E+02 -0.24600349356E+03  0.24861143737E+03  0.47000000000E+01 0. -1.
        -11    1    4    4    0    0 -0.19128938989E+02  0.10971704177E+03 -0.50241901526E+03  0.51461501383E+03  0.00000000000E+00 0.  1.
         12    1    4    4    0    0  0.38708022850E+02  0.45527681613E+02 -0.14900935373E+03  0.16054553349E+03  0.00000000000E+00 0. -1.
         -5    1    5    5    0  502 -0.14636777219E+02 -0.59021551358E+02  0.67590436152E+02  0.91040297843E+02  0.47000000000E+01 0.  1.
         13    1    6    6    0    0 -0.18930403654E+02 -0.89381769709E+01 -0.40563731587E+02  0.45647207038E+02  0.00000000000E+00 0. -1.
        -14    1    6    6    0    0  0.44141774354E+02 -0.68348424789E+02 -0.21671591264E+02  0.84200126378E+02  0.00000000000E+00 0.  1.
</event>
<event>
12    1  0.1681255E-001  0.2463669E+03  0.7818608E-02  0.1115737E+00
         21   -1    0    0  503  502  0.00000000000E+00  0.00000000000E+00  0.37682408722E+02  0.37682408722E+02  0.00000000000E+00 0.  1.
         21   -1    0    0  501  503 -0.00000000000E+00 -0.00000000000E+00 -0.18215711274E+04  0.18215711274E+04  0.00000000000E+00 0. -1.
          6    2    1    2  501    0 -0.41118436722E+02 -0.16997557486E+03 -0.12128065795E+04  0.12375768411E+04  0.17353448212E+03 0.  0.
         24    2    3    3    0    0  0.23589139147E+02 -0.25362143364E+02 -0.43226499858E+03  0.44110501832E+03  0.80752228406E+02 0.  0.
         -6    2    1    2    0  502  0.41118436722E+02  0.16997557486E+03 -0.57108213916E+03  0.62167669499E+03  0.17252443754E+03 0.  0.
        -24    2    5    5    0    0  0.34843726494E+02  0.17451139338E+03 -0.34872008737E+03  0.39913025554E+03  0.77659190418E+02 0.  0.
          5    1    3    3  501    0 -0.64707575870E+02 -0.14461343149E+03 -0.78054158093E+03  0.79647182279E+03  0.47000000000E+01 0. -1.
        -11    1    4    4    0    0  0.28499567479E+02 -0.47613722442E+02 -0.19481076101E+03  0.20255992821E+03  0.00000000000E+00 0.  1.
         12    1    4    4    0    0 -0.49104283320E+01  0.22251579078E+02 -0.23745423757E+03  0.23854509012E+03  0.00000000000E+00 0. -1.
         -5    1    5    5    0  502  0.62747102285E+01 -0.45358185263E+01 -0.22236205179E+03  0.22254643945E+03  0.47000000000E+01 0.  1.
         11    1    6    6    0    0  0.41106259048E+02  0.33919397647E+02 -0.89189672695E+02  0.10389921937E+03  0.00000000000E+00 0. -1.
        -12    1    6    6    0    0 -0.62625325540E+01  0.14059199573E+03 -0.25953041467E+03  0.29523103617E+03  0.00000000000E+00 0.  1.
</event>
<event>
12    1  0.1681255E-001  0.2603787E+03  0.7818608E-02  0.1107004E+00
         21   -1    0    0  501  502  0.00000000000E+00  0.00000000000E+00  0.82366675529E+02  0.82366675529E+02  0.00000000000E+00 0.  1.
         21   -1    0    0  502  503 -0.00000000000E+00 -0.00000000000E+00 -0.92297167258E+03  0.92297167258E+03  0.00000000000E+00 0.  1.
         -6    2    1    2    0  503 -0.56369169089E+02  0.18612806565E+03 -0.58758293071E+03  0.64269025126E+03  0.17313554968E+03 0.  0.
        -24    2    3    3    0    0 -0.95016977258E+02  0.11154521788E+03 -0.30512320803E+03  0.34796692475E+03  0.80686101899E+02 0.  0.
          6    2    1    2  501    0  0.56369169089E+02 -0.18612806565E+03 -0.25302206635E+03  0.36264809685E+03  0.17225659942E+03 0.  0.
         24    2    5    5    0    0  0.63659310708E+02 -0.21051070548E+03 -0.22720151653E+03  0.32609060675E+03  0.79669879717E+02 0.  0.
          5    1    5    5  501    0 -0.72901416190E+01  0.24382639826E+02 -0.25820549816E+02  0.36557490101E+02  0.47000000000E+01 0. -1.
        -11    1    6    6    0    0  0.61189814374E+02 -0.13878092198E+03 -0.10534061453E+03  0.18466451407E+03  0.00000000000E+00 0.  1.
         12    1    6    6    0    0  0.24694963341E+01 -0.71729783502E+02 -0.12186090200E+03  0.14142609267E+03  0.00000000000E+00 0. -1.
         -5    1    3    3    0  503  0.38647808169E+02  0.74582847775E+02 -0.28245972268E+03  0.29472332652E+03  0.47000000000E+01 0.  1.
         11    1    4    4    0    0 -0.40557394204E+02  0.25351025354E+01 -0.11670849266E+03  0.12358074781E+03  0.00000000000E+00 0. -1.
        -12    1    4    4    0    0 -0.54459583054E+02  0.10901011534E+03 -0.18841471537E+03  0.22438617694E+03  0.00000000000E+00 0.  1.
</event>
<event>
12    1  0.1681255E-001  0.1982046E+03  0.7818608E-02  0.1151430E+00
         21   -1    0    0  501  502  0.00000000000E+00  0.00000000000E+00  0.81606629828E+03  0.81606629828E+03  0.00000000000E+00 0. -1.
         21   -1    0    0  502  503 -0.00000000000E+00 -0.00000000000E+00 -0.11045133075E+03  0.11045133075E+03  0.00000000000E+00 0.  1.
         -6    2    1    2    0  503  0.76932310774E+02  0.60497759092E+02  0.40221794040E+01  0.19746516183E+03  0.17145772923E+03 0.  0.
        -24    2    3    3    0    0  0.15021790678E+02  0.77581119178E+02 -0.39117590173E+02  0.11995462442E+03  0.81329218681E+02 0.  0.
          6    2    1    2  501    0 -0.76932310774E+02 -0.60497759092E+02  0.70159278813E+03  0.72905246720E+03  0.17235573759E+03 0.  0.
         24    2    5    5    0    0 -0.35307269846E+01 -0.87027730169E+02  0.34450544683E+03  0.36350480795E+03  0.76586230192E+02 0.  0.
          5    1    5    5  501    0 -0.73401583789E+02  0.26529971077E+02  0.35708734130E+03  0.36554765926E+03  0.47000000000E+01 0. -1.
        -11    1    6    6    0    0 -0.37232735593E+02 -0.61320058526E+02  0.18382041374E+03  0.19732301104E+03  0.00000000000E+00 0.  1.
         12    1    6    6    0    0  0.33702008609E+02 -0.25707671643E+02  0.16068503309E+03  0.16618179691E+03  0.00000000000E+00 0. -1.
         -5    1    3    3    0  503  0.61910520095E+02 -0.17083360086E+02  0.43139769577E+02  0.77510537409E+02  0.47000000000E+01 0.  1.
         13    1    4    4    0    0  0.10256685840E+02  0.14268863290E+02  0.24450360749E+02  0.30110134586E+02  0.00000000000E+00 0. -1.
        -14    1    4    4    0    0  0.47651048382E+01  0.63312255888E+02 -0.63567950921E+02  0.89844489837E+02  0.00000000000E+00 0.  1.
</event>
<event>
12    1  0.1681255E-001  0.1967711E+03  0.7818608E-02  0.1152624E+00
         21   -1    0    0  501  502  0.00000000000E+00  0.00000000000E+00  0.11381465661E+03  0.11381465661E+03  0.00000000000E+00 0. -1.
         21   -1    0    0  502  503 -0.00000000000E+00 -0.00000000000E+00 -0.36077973256E+03  0.36077973256E+03  0.00000000000E+00 0. -1.
         -6    2    1    2    0  503  0.96012446721E+02  0.91036979589E+01 -0.18178781836E+03  0.26789119224E+03  0.17151563408E+03 0.  0.
        -24    2    3    3    0    0  0.25365774771E+02  0.17830390301E+02 -0.15379622908E+02  0.86836269822E+02  0.79640816217E+02 0.  0.
          6    2    1    2  501    0 -0.96012446721E+02 -0.91036979589E+01 -0.65177257587E+02  0.20670319692E+03  0.17081238090E+03 0.  0.
         24    2    5    5    0    0 -0.38195867428E+02  0.52924355170E+02 -0.56863354429E+01  0.10301377589E+03  0.79495861238E+02 0.  0.
          5    1    5    5  501    0 -0.57816579293E+02 -0.62028053129E+02 -0.59490922144E+02  0.10368942103E+03  0.47000000000E+01 0. -1.
        -11    1    6    6    0    0 -0.57141622631E+01  0.38324391495E+02 -0.38475494391E+02  0.54605625191E+02  0.00000000000E+00 0.  1.
         12    1    6    6    0    0 -0.32481705165E+02  0.14599963675E+02  0.32789158949E+02  0.48408150701E+02  0.00000000000E+00 0. -1.
         -5    1    3    3    0  503  0.70646671950E+02 -0.87266923422E+01 -0.16640819546E+03  0.18105492242E+03  0.47000000000E+01 0.  1.
         11    1    4    4    0    0  0.36407942451E+02  0.36333388959E+02  0.11178391904E+02  0.52636583023E+02  0.00000000000E+00 0. -1.
        -12    1    4    4    0    0 -0.11042167680E+02 -0.18502998658E+02 -0.26558014812E+02  0.34199686799E+02  0.00000000000E+00 0.  1.
</event>
<event>
12    1  0.1681255E-001  0.1888919E+03  0.7818608E-02  0.1160757E+00
         21   -1    0    0  503  502  0.00000000000E+00  0.00000000000E+00  0.69794856998E+02  0.69794856998E+02  0.00000000000E+00 0. -1.
         21   -1    0    0  501  503 -0.00000000000E+00 -0.00000000000E+00 -0.10902073300E+04  0.10902073300E+04  0.00000000000E+00 0. -1.
          6    2    1    2  501    0  0.55165768400E+02  0.34503329994E+02 -0.93482445491E+03  0.95262461624E+03  0.17135680956E+03 0.  0.
         24    2    3    3    0    0  0.55982116695E+02  0.60092029396E+02 -0.36967196137E+03  0.38687301092E+03  0.79172711028E+02 0.  0.
         -6    2    1    2    0  502 -0.55165768400E+02 -0.34503329994E+02 -0.85588018107E+02  0.20737757077E+03  0.17733134588E+03 0.  0.
        -24    2    5    5    0    0 -0.40610092781E+02 -0.66542122996E+02  0.37726056983E+01  0.11122267991E+03  0.79241518188E+02 0.  0.
          5    1    3    3  501    0 -0.81634829525E+00 -0.25588699402E+02 -0.56515249354E+03  0.56575160531E+03  0.47000000000E+01 0. -1.
        -11    1    4    4    0    0  0.74011392673E+02  0.46694833420E+02 -0.32867980791E+03  0.34013013663E+03  0.00000000000E+00 0.  1.
         12    1    4    4    0    0 -0.18029275977E+02  0.13397195976E+02 -0.40992153456E+02  0.46742874294E+02  0.00000000000E+00 0. -1.
         -5    1    5    5    0  502 -0.14555675619E+02  0.32038793002E+02 -0.89360623805E+02  0.96154890862E+02  0.47000000000E+01 0.  1.
         13    1    6    6    0    0 -0.58643910723E+02 -0.47433258642E+02 -0.17484637529E+02  0.77425673002E+02  0.00000000000E+00 0. -1.
        -14    1    6    6    0    0  0.18033817942E+02 -0.19108864354E+02  0.21257243227E+02  0.33797006910E+02  0.00000000000E+00 0.  1.
</event>
<event>
12    1  0.1681255E-001  0.2019244E+03  0.7818608E-02  0.1148700E+00
         21   -1    0    0  501  502  0.00000000000E+00  0.00000000000E+00  0.39930641714E+03  0.39930641714E+03  0.00000000000E+00 0. -1.
         21   -1    0    0  502  503 -0.00000000000E+00 -0.00000000000E+00 -0.28208559101E+03  0.28208559101E+03  0.00000000000E+00 0. -1.
         -6    2    1    2    0  503 -0.16952799945E+02  0.96417109941E+02 -0.21441875267E+03  0.29453157808E+03  0.17660632059E+03 0.  0.
        -24    2    3    3    0    0 -0.37574629219E+01 -0.20035098835E+02 -0.68889953347E+02  0.10761995383E+03  0.80129302233E+02 0.  0.
          6    2    1    2  501    0  0.16952799945E+02 -0.96417109941E+02  0.33163957880E+03  0.38686043006E+03  0.17347197355E+03 0.  0.
         24    2    5    5    0    0 -0.50065027760E+00  0.18084655945E+02  0.99731305834E+02  0.12759451563E+03  0.77503042680E+02 0.  0.
          5    1    5    5  501    0  0.17453450222E+02 -0.11450176589E+03  0.23190827297E+03  0.25926591443E+03  0.47000000000E+01 0. -1.
        -11    1    6    6    0    0 -0.49068203643E+01  0.32874929355E+02  0.74918488865E+01  0.34072946246E+02  0.00000000000E+00 0.  1.
         12    1    6    6    0    0  0.44061700867E+01 -0.14790273410E+02  0.92239456948E+02  0.93521569386E+02  0.00000000000E+00 0. -1.
         -5    1    3    3    0  503 -0.13195337023E+02  0.11645220878E+03 -0.14552879933E+03  0.18691162425E+03  0.47000000000E+01 0.  1.
         13    1    4    4    0    0  0.26691405354E+02  0.18853046837E+02 -0.21130369224E+02  0.38914791511E+02  0.00000000000E+00 0. -1.
        -14    1    4    4    0    0 -0.30448868276E+02 -0.38888145672E+02 -0.47759584123E+02  0.68705162315E+02  0.00000000000E+00 0.  1.
</event>
<event>
12    1  0.1681255E-001  0.1855418E+03  0.7818608E-02  0.1162707E+00
         21   -1    0    0  503  502  0.00000000000E+00  0.00000000000E+00  0.43946588275E+03  0.43946588275E+03  0.00000000000E+00 0. -1.
         21   -1    0    0  501  503 -0.00000000000E+00 -0.00000000000E+00 -0.12491965154E+03  0.12491965154E+03  0.00000000000E+00 0. -1.
          6    2    1    2  501    0  0.72193347461E+02 -0.13849646606E+02 -0.15780881797E+02  0.18551646083E+03  0.16959843419E+03 0.  0.
         24    2    3    3    0    0  0.99966335486E+02 -0.12709406976E+02 -0.52762875242E+02  0.13901488183E+03  0.79915074368E+02 0.  0.
         -6    2    1    2    0  502 -0.72193347461E+02  0.13849646606E+02  0.33032711300E+03  0.37886907345E+03  0.17035868368E+03 0.  0.
        -24    2    5    5    0    0 -0.49663173309E+02 -0.23809738769E+02  0.32117627371E+03  0.33379506860E+03  0.72329901019E+02 0.  0.
          5    1    3    3  501    0 -0.27772988026E+02 -0.11402396293E+01  0.36981993445E+02  0.46501578999E+02  0.47000000000E+01 0. -1.
        -11    1    4    4    0    0  0.23915733998E+02 -0.36129090635E+02 -0.38927266966E+02  0.58246078291E+02  0.00000000000E+00 0.  1.
         12    1    4    4    0    0  0.76050601488E+02  0.23419683659E+02 -0.13835608276E+02  0.80768803543E+02  0.00000000000E+00 0. -1.
         -5    1    5    5    0  502 -0.22530174151E+02  0.37659385374E+02  0.91508392922E+01  0.45074004857E+02  0.47000000000E+01 0.  1.
         11    1    6    6    0    0 -0.12928602475E+02  0.11773404853E+02  0.21738966675E+03  0.21809179039E+03  0.00000000000E+00 0. -1.
        -12    1    6    6    0    0 -0.36734570835E+02 -0.35583143622E+02  0.10378660696E+03  0.11570327821E+03  0.00000000000E+00 0.  1.
</event>
<event>
12    1  0.1681255E-001  0.1763090E+03  0.7818608E-02  0.1171430E+00
         21   -1    0    0  501  502  0.00000000000E+00  0.00000000000E+00  0.47458435696E+03  0.47458435696E+03  0.00000000000E+00 0.  1.
         21   -1    0    0  502  503 -0.00000000000E+00 -0.00000000000E+00 -0.99504521679E+02  0.99504521679E+02  0.00000000000E+00 0.  1.
         -6    2    1    2    0  503 -0.23931502376E+02  0.30150976401E+02  0.19706858767E+02  0.17738395226E+03  0.17203170653E+03 0.  0.
        -24    2    3    3    0    0  0.17033396791E+02 -0.41960681024E+02 -0.14289887701E+02  0.87628267919E+02  0.73645618265E+02 0.  0.
          6    2    1    2  501    0  0.23931502376E+02 -0.30150976401E+02  0.35537297651E+03  0.39670492638E+03  0.17205536317E+03 0.  0.
         24    2    5    5    0    0 -0.25066579433E+02  0.15560683125E+02  0.29250519259E+03  0.30470049120E+03  0.80078919716E+02 0.  0.
          5    1    5    5  501    0  0.48998081809E+02 -0.45711659526E+02  0.62867783928E+02  0.92004435185E+02  0.47000000000E+01 0. -1.
        -13    1    6    6    0    0 -0.57048648762E+01 -0.19546454863E+02  0.17680540402E+02  0.26966847978E+02  0.00000000000E+00 0.  1.
         14    1    6    6    0    0 -0.19361714557E+02  0.35107137988E+02  0.27482465218E+03  0.27773364322E+03  0.00000000000E+00 0. -1.
         -5    1    3    3    0  503 -0.40964899167E+02  0.72111657425E+02  0.33996746467E+02  0.89755684337E+02  0.47000000000E+01 0.  1.
         13    1    4    4    0    0 -0.20492763715E+02 -0.32345187842E+02  0.12782143943E+02  0.40367657165E+02  0.00000000000E+00 0. -1.
        -14    1    4    4    0    0  0.37526160506E+02 -0.96154931819E+01 -0.27072031644E+02  0.47260610754E+02  0.00000000000E+00 0.  1.
</event>
<event>
12    1  0.1681255E-001  0.2398842E+03  0.7818608E-02  0.1120337E+00
         21   -1    0    0  503  502  0.00000000000E+00  0.00000000000E+00  0.91294650620E+02  0.91294650620E+02  0.00000000000E+00 0. -1.
         21   -1    0    0  501  503 -0.00000000000E+00 -0.00000000000E+00 -0.65595895410E+03  0.65595895410E+03  0.00000000000E+00 0.  1.
          6    2    1    2  501    0 -0.39218535400E+02  0.15559410808E+03 -0.20018092001E+03  0.31243690985E+03  0.17831657778E+03 0.  0.
         24    2    3    3    0    0  0.33953081084E+02  0.13618555949E+03 -0.15727262353E+03  0.22529341254E+03  0.79518081530E+02 0.  0.
         -6    2    1    2    0  502  0.39218535400E+02 -0.15559410808E+03 -0.36448338347E+03  0.43481669487E+03  0.17455601200E+03 0.  0.
        -24    2    5    5    0    0 -0.41231176528E+01 -0.14887119602E+03 -0.18331178619E+03  0.24835239776E+03  0.76785867289E+02 0.  0.
          5    1    3    3  501    0 -0.73171616484E+02  0.19408548587E+02 -0.42908296473E+02  0.87143497310E+02  0.47000000000E+01 0. -1.
        -11    1    4    4    0    0  0.14403407875E+02  0.21546683704E+02  0.42474702619E+01  0.26263258379E+02  0.00000000000E+00 0.  1.
         12    1    4    4    0    0  0.19549673209E+02  0.11463887579E+03 -0.16152009379E+03  0.19903015416E+03  0.00000000000E+00 0. -1.
         -5    1    5    5    0  502  0.43341653053E+02 -0.67229120630E+01 -0.18117159728E+03  0.18646429711E+03  0.47000000000E+01 0.  1.
         13    1    6    6    0    0 -0.19348430374E+02 -0.21092644411E+02 -0.59642335715E+01  0.29237535606E+02  0.00000000000E+00 0. -1.
        -14    1    6    6    0    0  0.15225312721E+02 -0.12777855160E+03 -0.17734755262E+03  0.21911486216E+03  0.00000000000E+00 0.  1.
</event>
<event>
12    1  0.1681255E-001  0.1774749E+03  0.7818608E-02  0.1170613E+00
         21   -1    0    0  503  502  0.00000000000E+00  0.00000000000E+00  0.50921316511E+03  0.50921316511E+03  0.00000000000E+00 0. -1.
         21   -1    0    0  501  503 -0.00000000000E+00 -0.00000000000E+00 -0.10093352780E+03  0.10093352780E+03  0.00000000000E+00 0. -1.
          6    2    1    2  501    0 -0.32717525956E+02  0.16446244969E+02  0.12655692760E+02  0.17653897479E+03  0.17223509393E+03 0.  0.
         24    2    3    3    0    0 -0.43487093661E+01  0.44525357077E+02  0.62624273726E+02  0.11241272918E+03  0.81935360661E+02 0.  0.
         -6    2    1    2    0  502  0.32717525956E+02 -0.16446244969E+02  0.39562394455E+03  0.43360771812E+03  0.17365607457E+03 0.  0.
        -24    2    5    5    0    0 -0.22112574852E+02  0.78655674081E+01  0.34353822500E+03  0.35403123695E+03  0.82272544498E+02 0.  0.
          5    1    3    3  501    0 -0.28368816590E+02 -0.28079112108E+02 -0.49968580966E+02  0.64126245604E+02  0.47000000000E+01 0. -1.
        -11    1    4    4    0    0 -0.27691906826E+02  0.67681331517E+01  0.61751211402E+02  0.68013685679E+02  0.00000000000E+00 0.  1.
         12    1    4    4    0    0  0.23343197460E+02  0.37757223926E+02  0.87306232330E+00  0.44399043504E+02  0.00000000000E+00 0. -1.
         -5    1    5    5    0  502  0.54830100807E+02 -0.24311812377E+02  0.52085719542E+02  0.79576481173E+02  0.47000000000E+01 0.  1.
         13    1    6    6    0    0 -0.28327707830E+02  0.31666757823E+02  0.30735565265E+03  0.31027848749E+03  0.00000000000E+00 0. -1.
        -14    1    6    6    0    0  0.62151329790E+01 -0.23801190415E+02  0.36182572356E+02  0.43752749461E+02  0.00000000000E+00 0.  1.
</event>
<event>
12    1  0.1681255E-001  0.1983891E+03  0.7818608E-02  0.1153963E+00
         21   -1    0    0  503  502  0.00000000000E+00  0.00000000000E+00  0.47071812145E+02  0.47071812145E+02  0.00000000000E+00 0.  1.
         21   -1    0    0  501  503 -0.00000000000E+00 -0.00000000000E+00 -0.11307194834E+04  0.11307194834E+04  0.00000000000E+00 0.  1.
          6    2    1    2  501    0 -0.28697386585E+02 -0.60444460253E+02 -0.88113124221E+03  0.90318908059E+03  0.18676503026E+03 0.  0.
         24    2    3    3    0    0 -0.23601307135E+02 -0.70587100198E+02 -0.88419473561E+03  0.89052739971E+03  0.75492772804E+02 0.  0.
         -6    2    1    2    0  502  0.28697386585E+02  0.60444460253E+02 -0.20251642903E+03  0.27460221494E+03  0.17296357897E+03 0.  0.
        -24    2    5    5    0    0  0.72380281538E+02  0.53454431466E+02 -0.79864628462E+02  0.14413149027E+03  0.79367790748E+02 0.  0.
          5    1    3    3  501    0 -0.50960794505E+01  0.10142639945E+02  0.30634934005E+01  0.12661680878E+02  0.47000000000E+01 0. -1.
        -11    1    4    4    0    0 -0.34884715413E+02 -0.67301309745E+02 -0.46267423584E+03  0.46884310614E+03  0.00000000000E+00 0.  1.
         12    1    4    4    0    0  0.11283408278E+02 -0.32857904529E+01 -0.42152049977E+03  0.42168429357E+03  0.00000000000E+00 0. -1.
         -5    1    5    5    0  502 -0.43682894953E+02  0.69900287870E+01 -0.12265180057E+03  0.13047072467E+03  0.47000000000E+01 0.  1.
         13    1    6    6    0    0  0.10811804471E+02  0.13506973030E+02  0.15886363614E+02  0.23488507514E+02  0.00000000000E+00 0. -1.
        -14    1    6    6    0    0  0.61568477067E+02  0.39947458436E+02 -0.95750992076E+02  0.12064298275E+03  0.00000000000E+00 0.  1.
</event>
<event>
12    1  0.1681255E-001  0.1836123E+03  0.7818608E-02  0.1165368E+00
         21   -1    0    0  501  502  0.00000000000E+00  0.00000000000E+00  0.25299914317E+03  0.25299914317E+03  0.00000000000E+00 0. -1.
         21   -1    0    0  502  503 -0.00000000000E+00 -0.00000000000E+00 -0.24410917043E+03  0.24410917043E+03  0.00000000000E+00 0. -1.
         -6    2    1    2    0  503 -0.86089381200E+01 -0.48135600281E+02 -0.16537542367E+03  0.24396424693E+03  0.17256411329E+03 0.  0.
        -24    2    3    3    0    0  0.51419128585E+02 -0.60614757009E+01 -0.12719935277E+03  0.16118077550E+03  0.84373566803E+02 0.  0.
          6    2    1    2  501    0  0.86089381200E+01  0.48135600281E+02  0.17426539641E+03  0.25314406668E+03  0.17698118623E+03 0.  0.
         24    2    5    5    0    0 -0.31899718108E+02  0.94374051687E+01  0.18066783194E+03  0.19656153655E+03  0.69920780345E+02 0.  0.
          5    1    5    5  501    0  0.40508656228E+02  0.38698195112E+02 -0.64024355292E+01  0.56582530122E+02  0.47000000000E+01 0. -1.
        -13    1    6    6    0    0 -0.38129957235E+02  0.40748691176E+01  0.39137624468E+02  0.54792808343E+02  0.00000000000E+00 0.  1.
         14    1    6    6    0    0  0.62302391272E+01  0.53625360511E+01  0.14153020747E+03  0.14176872821E+03  0.00000000000E+00 0. -1.
         -5    1    3    3    0  503 -0.60028066706E+02 -0.42074124580E+02 -0.38176070901E+02  0.82783471424E+02  0.47000000000E+01 0.  1.
         11    1    4    4    0    0  0.50709309510E+02  0.39936212820E+01 -0.13759761482E+03  0.14669862538E+03  0.00000000000E+00 0. -1.
        -12    1    4    4    0    0  0.70981907555E+00 -0.10055096983E+02  0.10398262058E+02  0.14482150126E+02  0.00000000000E+00 0.  1.
</event>
<event>
12    1  0.1681255E-001  0.2386270E+03  0.7818608E-02  0.1123548E+00
         21   -1    0    0  503  502  0.00000000000E+00  0.00000000000E+00  0.72026392682E+02  0.72026392682E+02  0.00000000000E+00 0. -1.
         21   -1    0    0  501  503 -0.00000000000E+00 -0.00000000000E+00 -0.75061065502E+03  0.75061065502E+03  0.00000000000E+00 0.  1.
          6    2    1    2  501    0 -0.10515521153E+03 -0.12512720827E+03 -0.27328218187E+03  0.35230459624E+03  0.15073467034E+03 0.  0.
         24    2    3    3    0    0 -0.81182622275E+02 -0.27482942069E+02 -0.11002806200E+03  0.16051542707E+03  0.79455003837E+02 0.  0.
         -6    2    1    2    0  502  0.10515521153E+03  0.12512720827E+03 -0.40530208047E+03  0.47033245146E+03  0.17386316949E+03 0.  0.
        -24    2    5    5    0    0  0.11141436000E+03  0.57205337283E+02 -0.35061067816E+03  0.38277791426E+03  0.88912731258E+02 0.  0.
          5    1    3    3  501    0 -0.23972589260E+02 -0.97644266203E+02 -0.16325411986E+03  0.19178916917E+03  0.47000000000E+01 0. -1.
        -13    1    4    4    0    0 -0.22166642812E+02 -0.43813705037E+01 -0.91842943671E+02  0.94581619584E+02  0.00000000000E+00 0.  1.
         14    1    4    4    0    0 -0.59015979462E+02 -0.23101571565E+02 -0.18185118333E+02  0.65933807485E+02  0.00000000000E+00 0. -1.
         -5    1    5    5    0  502 -0.62591484621E+01  0.67921870988E+02 -0.54691402312E+02  0.87554537203E+02  0.47000000000E+01 0.  1.
         11    1    6    6    0    0  0.81428635420E+02  0.67750977308E+02 -0.17695762663E+03  0.20623971299E+03  0.00000000000E+00 0. -1.
        -12    1    6    6    0    0  0.29985724576E+02 -0.10545640025E+02 -0.17365305153E+03  0.17653820127E+03  0.00000000000E+00 0.  1.
</event>
<event>
12    1  0.1681255E-001  0.2412015E+03  0.7818608E-02  0.1119049E+00
         21   -1    0    0  503  502  0.00000000000E+00  0.00000000000E+00  0.16094462214E+03  0.16094462214E+03  0.00000000000E+00 0. -1.
         21   -1    0    0  501  503 -0.00000000000E+00 -0.00000000000E+00 -0.45739964068E+03  0.45739964068E+03  0.00000000000E+00 0. -1.
          6    2    1    2  501    0 -0.16712176711E+03 -0.19607414470E+02 -0.29024664234E+03  0.37738744169E+03  0.17281212923E+03 0.  0.
         24    2    3    3    0    0 -0.13058604887E+03 -0.78704784224E+02 -0.20466409957E+03  0.26705240896E+03  0.78628469795E+02 0.  0.
         -6    2    1    2    0  502  0.16712176711E+03  0.19607414470E+02 -0.62083761949E+01  0.24095682112E+03  0.17235866663E+03 0.  0.
        -24    2    5    5    0    0  0.15761619501E+03 -0.16377789046E+02 -0.49494842123E+02  0.18367594381E+03  0.78587632821E+02 0.  0.
          5    1    3    3  501    0 -0.36535718248E+02  0.59097369754E+02 -0.85582542778E+02  0.11033503273E+03  0.47000000000E+01 0. -1.
        -13    1    4    4    0    0 -0.93611455529E+01  0.13805370761E+02 -0.89028476887E+01  0.18907141637E+02  0.00000000000E+00 0.  1.
         14    1    4    4    0    0 -0.12122490331E+03 -0.92510154985E+02 -0.19576125188E+03  0.24814526732E+03  0.00000000000E+00 0. -1.
         -5    1    5    5    0  502  0.95055721001E+01  0.35985203516E+02  0.43286465928E+02  0.57280877312E+02  0.47000000000E+01 0.  1.
         11    1    6    6    0    0  0.14539134733E+03 -0.78603137337E+01 -0.15336038103E+02  0.14640909287E+03  0.00000000000E+00 0. -1.
        -12    1    6    6    0    0  0.12224847681E+02 -0.85174753125E+01 -0.34158804021E+02  0.37266850936E+02  0.00000000000E+00 0.  1.
</event>
<event>
12    1  0.1681255E-001  0.2672404E+03  0.7818608E-02  0.1103042E+00
         21   -1    0    0  503  502  0.00000000000E+00  0.00000000000E+00  0.15848068708E+03  0.15848068708E+03  0.00000000000E+00 0. -1.
         21   -1    0    0  501  503 -0.00000000000E+00 -0.00000000000E+00 -0.78538572172E+03  0.78538572172E+03  0.00000000000E+00 0. -1.
          6    2    1    2  501    0  0.12975442140E+03  0.15688398700E+03 -0.62287737527E+03  0.67778583230E+03  0.17311445516E+03 0.  0.
         24    2    3    3    0    0  0.13523325549E+03  0.75789970217E+02 -0.33837746056E+03  0.38186599745E+03  0.85382558066E+02 0.  0.
         -6    2    1    2    0  502 -0.12975442140E+03 -0.15688398700E+03 -0.40276593613E+01  0.26608057650E+03  0.17127129328E+03 0.  0.
        -24    2    5    5    0    0 -0.13727497882E+03 -0.61443695368E+02 -0.36255902344E+01  0.17022829583E+03  0.79654129116E+02 0.  0.
          5    1    3    3  501    0 -0.54788340884E+01  0.81094016787E+02 -0.28449991471E+03  0.29591983484E+03  0.47000000000E+01 0. -1.
        -11    1    4    4    0    0  0.13244482237E+03  0.36486048843E+02 -0.27030055546E+03  0.30320826674E+03  0.00000000000E+00 0.  1.
         12    1    4    4    0    0  0.27884331217E+01  0.39303921374E+02 -0.68076905092E+02  0.78657730717E+02  0.00000000000E+00 0. -1.
         -5    1    5    5    0  502  0.75205574170E+01 -0.95440291636E+02 -0.40206912689E+00  0.95852280677E+02  0.47000000000E+01 0.  1.
         11    1    6    6    0    0 -0.97409777108E+02 -0.16993474146E+02 -0.32258291930E+02  0.10400980837E+03  0.00000000000E+00 0. -1.
        -12    1    6    6    0    0 -0.39865201712E+02 -0.44450221222E+02  0.28632701695E+02  0.66218487453E+02  0.00000000000E+00 0.  1.
</event>
<event>
12    1  0.1681255E-001  0.2905048E+03  0.7818608E-02  0.1090111E+00
         21   -1    0    0  501  502  0.00000000000E+00  0.00000000000E+00  0.51739881843E+03  0.51739881843E+03  0.00000000000E+00 0. -1.
         21   -1    0    0  502  503 -0.00000000000E+00 -0.00000000000E+00 -0.16302193062E+03  0.16302193062E+03  0.00000000000E+00 0. -1.
         -6    2    1    2    0  503  0.12868587016E+03 -0.19570186919E+03  0.18104387985E+03  0.34213481451E+03  0.17152279756E+03 0.  0.
        -24    2    3    3    0    0  0.66055946341E+02 -0.32845241882E+02  0.10577133872E+03  0.15204842924E+03  0.80554023974E+02 0.  0.
          6    2    1    2  501    0 -0.12868587016E+03  0.19570186919E+03  0.17333300796E+03  0.33828593453E+03  0.17185391200E+03 0.  0.
         24    2    5    5    0    0 -0.99283940835E+02  0.20435606200E+03  0.18590400037E+03  0.30482717855E+03  0.82101220730E+02 0.  0.
          5    1    5    5  501    0 -0.29401929329E+02 -0.86541928138E+01 -0.12570992411E+02  0.33458755979E+02  0.47000000000E+01 0. -1.
        -11    1    6    6    0    0  0.12877534746E+02  0.94622119063E+01  0.18781308399E+02  0.24659722230E+02  0.00000000000E+00 0.  1.
         12    1    6    6    0    0 -0.11216147558E+03  0.19489385010E+03  0.16712269197E+03  0.28016745632E+03  0.00000000000E+00 0. -1.
         -5    1    3    3    0  503  0.62629923822E+02 -0.16285662731E+03  0.75272541131E+02  0.19008638527E+03  0.47000000000E+01 0.  1.
         13    1    4    4    0    0  0.61081083235E+02  0.59150273932E+01  0.33566766830E+02  0.69947223773E+02  0.00000000000E+00 0. -1.
        -14    1    4    4    0    0  0.49748631064E+01 -0.38760269275E+02  0.72204571893E+02  0.82101205468E+02  0.00000000000E+00 0.  1.
</event>
<event>
12    1  0.1681255E-001  0.1737138E+03  0.7818608E-02  0.1176859E+00
         21   -1    0    0  503  502  0.00000000000E+00  0.00000000000E+00  0.93505101667E+02  0.93505101667E+02  0.00000000000E+00 0. -1.
         21   -1    0    0  501  503 -0.00000000000E+00 -0.00000000000E+00 -0.46726068994E+03  0.46726068994E+03  0.00000000000E+00 0. -1.
          6    2    1    2  501    0  0.16525935000E+01 -0.27902990513E+02 -0.35695103226E+03  0.39697673184E+03  0.17145022089E+03 0.  0.
         24    2    3    3    0    0 -0.28706257213E+02 -0.71422561090E+02 -0.17519809386E+03  0.20757812187E+03  0.80430548622E+02 0.  0.
         -6    2    1    2    0  502 -0.16525935000E+01  0.27902990513E+02 -0.16804556008E+02  0.16378905976E+03  0.16050904975E+03 0.  0.
        -24    2    5    5    0    0  0.71235417067E+01 -0.24100562503E+02  0.36393155436E+02  0.88732570516E+02  0.76924803206E+02 0.  0.
          5    1    3    3  501    0  0.30358850713E+02  0.43519570578E+02 -0.18175293840E+03  0.18939860997E+03  0.47000000000E+01 0. -1.
        -13    1    4    4    0    0 -0.18335826737E+02 -0.16639460109E+02 -0.11164721157E+01  0.24785493436E+02  0.00000000000E+00 0.  1.
         14    1    4    4    0    0 -0.10370430476E+02 -0.54783100981E+02 -0.17408162174E+03  0.18279262844E+03  0.00000000000E+00 0. -1.
         -5    1    5    5    0  502 -0.87761352067E+01  0.52003553016E+02 -0.53197711444E+02  0.75056489249E+02  0.47000000000E+01 0.  1.
         13    1    6    6    0    0 -0.33658820697E+02 -0.12410821755E+02  0.55952189937E+01  0.36307728970E+02  0.00000000000E+00 0. -1.
        -14    1    6    6    0    0  0.40782362404E+02 -0.11689740748E+02  0.30797936442E+02  0.52424841546E+02  0.00000000000E+00 0.  1.
</event>
<event>
12    1  0.1681255E-001  0.1878320E+03  0.7818608E-02  0.1160611E+00
         21   -1    0    0  501  502  0.00000000000E+00  0.00000000000E+00  0.99342719176E+02  0.99342719176E+02  0.00000000000E+00 0.  1.
         21   -1    0    0  502  503 -0.00000000000E+00 -0.00000000000E+00 -0.36800310502E+03  0.36800310502E+03  0.00000000000E+00 0.  1.
         -6    2    1    2    0  503 -0.46960674518E+02  0.57032729429E+02 -0.87928249695E+02  0.20668328925E+03  0.17183878429E+03 0.  0.
        -24    2    3    3    0    0 -0.87459382961E+02  0.96005991557E+01 -0.28241329365E+02  0.12022768894E+03  0.76914298607E+02 0.  0.
          6    2    1    2  501    0  0.46960674518E+02 -0.57032729429E+02 -0.18073213615E+03  0.26066253495E+03  0.17269283398E+03 0.  0.
         24    2    5    5    0    0 -0.31960856475E+02  0.58173736364E+01 -0.16685008064E+02  0.68017021779E+02  0.57381073316E+02 0.  0.
          5    1    5    5  501    0  0.78921530993E+02 -0.62850103066E+02 -0.16404712809E+03  0.19264551317E+03  0.47000000000E+01 0. -1.
        -13    1    6    6    0    0  0.12354711419E+02 -0.12830884022E+02 -0.33712702620E+01  0.18128318792E+02  0.00000000000E+00 0.  1.
         14    1    6    6    0    0 -0.44315567894E+02  0.18648257658E+02 -0.13313737802E+02  0.49888702987E+02  0.00000000000E+00 0. -1.
         -5    1    3    3    0  503  0.40498708443E+02  0.47432130274E+02 -0.59686920330E+02  0.86455600318E+02  0.47000000000E+01 0.  1.
         13    1    4    4    0    0 -0.10475362429E+02 -0.25937886931E+02  0.62950093975E+01  0.28672885097E+02  0.00000000000E+00 0. -1.
        -14    1    4    4    0    0 -0.76984020532E+02  0.35538486087E+02 -0.34536338763E+02  0.91554803838E+02  0.00000000000E+00 0.  1.
</event>
<event>
12    1  0.1681255E-001  0.1911258E+03  0.7818608E-02  0.1158166E+00
         21   -1    0    0  501  502  0.00000000000E+00  0.00000000000E+00  0.84232556417E+02  0.84232556417E+02  0.00000000000E+00 0. -1.
         21   -1    0    0  502  503 -0.00000000000E+00 -0.00000000000E+00 -0.13648169455E+04  0.13648169455E+04  0.00000000000E+00 0. -1.
         -6    2    1    2    0  503 -0.60471298928E+02 -0.55700465257E+02 -0.12393563553E+04  0.12535276024E+04  0.16902057472E+03 0.  0.
        -24    2    3    3    0    0 -0.47346282584E+02 -0.10136940445E+03 -0.10107755358E+04  0.10200127226E+04  0.79002175568E+02 0.  0.
          6    2    1    2  501    0  0.60471298928E+02  0.55700465257E+02 -0.41228033758E+02  0.19552189951E+03  0.17253910455E+03 0.  0.
         24    2    5    5    0    0 -0.23634361690E+02 -0.58879980783E+01 -0.44928172642E+02  0.91105990804E+02  0.75422206873E+02 0.  0.
          5    1    5    5  501    0  0.84105660618E+02  0.61588463336E+02  0.37001388843E+01  0.10441590871E+03  0.47000000000E+01 0. -1.
        -11    1    6    6    0    0  0.62711313036E+01  0.11118917470E+02 -0.54031374112E+02  0.55518886895E+02  0.00000000000E+00 0.  1.
         12    1    6    6    0    0 -0.29905492994E+02 -0.17006915548E+02  0.91032014702E+01  0.35587103910E+02  0.00000000000E+00 0. -1.
         -5    1    3    3    0  503 -0.13125016344E+02  0.45668939194E+02 -0.22858081951E+03  0.23351487984E+03  0.47000000000E+01 0.  1.
         13    1    4    4    0    0 -0.18940144338E+01 -0.35058720290E+02 -0.62314888587E+03  0.62413719255E+03  0.00000000000E+00 0. -1.
        -14    1    4    4    0    0 -0.45452268150E+02 -0.66310684161E+02 -0.38762664994E+03  0.39587553000E+03  0.00000000000E+00 0.  1.
</event>
<event>
12    1  0.1681255E-001  0.2039093E+03  0.7818608E-02  0.1146849E+00
         21   -1    0    0  503  502  0.00000000000E+00  0.00000000000E+00  0.62739755013E+02  0.62739755013E+02  0.00000000000E+00 0.  1.
         21   -1    0    0  501  503 -0.00000000000E+00 -0.00000000000E+00 -0.69088104614E+03  0.69088104614E+03  0.00000000000E+00 0. -1.
          6    2    1    2  501    0  0.99285637688E+02 -0.38784225250E+02 -0.23188164554E+03  0.30878490807E+03  0.17383086013E+03 0.  0.
         24    2    3    3    0    0  0.70005690177E+02 -0.77916159980E+02 -0.22191360985E+03  0.25868425560E+03  0.81854561361E+02 0.  0.
         -6    2    1    2    0  502 -0.99285637688E+02  0.38784225250E+02 -0.39625964558E+03  0.44483589308E+03  0.17174228098E+03 0.  0.
        -24    2    5    5    0    0 -0.11017242556E+03  0.23871118012E+02 -0.40190634534E+03  0.42496384901E+03  0.79735618842E+02 0.  0.
          5    1    3    3  501    0  0.29279947511E+02  0.39131934730E+02 -0.99680356886E+01  0.50100652466E+02  0.47000000000E+01 0. -1.
        -11    1    4    4    0    0  0.36989404887E+02 -0.27072301189E+01 -0.23410368441E+02  0.43858756473E+02  0.00000000000E+00 0.  1.
         12    1    4    4    0    0  0.33016285289E+02 -0.75208929861E+02 -0.19850324141E+03  0.21482549913E+03  0.00000000000E+00 0. -1.
         -5    1    5    5    0  502  0.10886787874E+02  0.14913107237E+02  0.56466997515E+01  0.19872044076E+02  0.47000000000E+01 0.  1.
         13    1    6    6    0    0 -0.27666621848E+02  0.40688047245E+02 -0.20475954851E+03  0.21058829944E+03  0.00000000000E+00 0. -1.
        -14    1    6    6    0    0 -0.82505803714E+02 -0.16816929233E+02 -0.19714679683E+03  0.21437554957E+03  0.00000000000E+00 0.  1.
</event>
<event>
12    1  0.1681255E-001  0.2668013E+03  0.7818608E-02  0.1103580E+00
         21   -1    0    0  501  502  0.00000000000E+00  0.00000000000E+00  0.98715439310E+02  0.98715439310E+02  0.00000000000E+00 0. -1.
         21   -1    0    0  502  503 -0.00000000000E+00 -0.00000000000E+00 -0.79432671878E+03  0.79432671878E+03  0.00000000000E+00 0.  1.
         -6    2    1    2    0  503 -0.78439959466E+02 -0.18797482114E+03 -0.20284002432E+03  0.33267937419E+03  0.16746381675E+03 0.  0.
        -24    2    3    3    0    0 -0.10976764514E+03 -0.12639181966E+03 -0.10124606572E+03  0.20972689399E+03  0.75569678067E+02 0.  0.
          6    2    1    2  501    0  0.78439959466E+02  0.18797482114E+03 -0.49277125514E+03  0.56036278390E+03  0.17232405248E+03 0.  0.
         24    2    5    5    0    0  0.86495168946E+02  0.11002459080E+03 -0.43268400450E+03  0.46150079677E+03  0.78617509768E+02 0.  0.
          5    1    5    5  501    0 -0.80552094795E+01  0.77950230333E+02 -0.60087250643E+02  0.98861987126E+02  0.47000000000E+01 0. -1.
        -11    1    6    6    0    0  0.83961014963E+02  0.11966563038E+03 -0.36662381709E+03  0.39469271387E+03  0.00000000000E+00 0.  1.
         12    1    6    6    0    0  0.25341539827E+01 -0.96410395734E+01 -0.66060187407E+02  0.66808082900E+02  0.00000000000E+00 0. -1.
         -5    1    3    3    0  503  0.31327685678E+02 -0.61583001479E+02 -0.10159395860E+03  0.12295248019E+03  0.47000000000E+01 0.  1.
         13    1    4    4    0    0 -0.52521841159E+02 -0.92536901106E+02 -0.26455644650E+02  0.10964270609E+03  0.00000000000E+00 0. -1.
        -14    1    4    4    0    0 -0.57245803985E+02 -0.33854918550E+02 -0.74790421071E+02  0.10008418790E+03  0.00000000000E+00 0.  1.
</event>
<event>
12    1  0.1681255E-001  0.2411350E+03  0.7818608E-02  0.1119241E+00
         21   -1    0    0  501  502  0.00000000000E+00  0.00000000000E+00  0.67638615212E+02  0.67638615212E+02  0.00000000000E+00 0.  1.
         21   -1    0    0  502  503 -0.00000000000E+00 -0.00000000000E+00 -0.86187755899E+03  0.86187755899E+03  0.00000000000E+00 0.  1.
         -6    2    1    2    0  503  0.12491935771E+03 -0.11328175978E+03 -0.43664781601E+03  0.49821869488E+03  0.17065447452E+03 0.  0.
        -24    2    3    3    0    0  0.83254014620E+02  0.46887160941E+01 -0.21512888724E+03  0.24376681378E+03  0.78667695823E+02 0.  0.
          6    2    1    2  501    0 -0.12491935771E+03  0.11328175978E+03 -0.35759112776E+03  0.43129747932E+03  0.17236153277E+03 0.  0.
         24    2    5    5    0    0 -0.13129977212E+03  0.13546467053E+03 -0.25955555765E+03  0.33047161842E+03  0.79070196375E+02 0.  0.
          5    1    5    5  501    0  0.63804144069E+01 -0.22182910753E+02 -0.98035570114E+02  0.10082586089E+03  0.47000000000E+01 0. -1.
        -11    1    6    6    0    0 -0.13197059877E+03  0.91511814443E+02 -0.20429669881E+03  0.25986110187E+03  0.00000000000E+00 0.  1.
         12    1    6    6    0    0  0.67082665215E+00  0.43952856092E+02 -0.55258858841E+02  0.70610516550E+02  0.00000000000E+00 0. -1.
         -5    1    3    3    0  503  0.41665343091E+02 -0.11797047588E+03 -0.22151892878E+03  0.25445188111E+03  0.47000000000E+01 0.  1.
         11    1    4    4    0    0  0.42711396627E+02  0.28762499590E+02 -0.49018650792E+02  0.71094113047E+02  0.00000000000E+00 0. -1.
        -12    1    4    4    0    0  0.40542617993E+02 -0.24073783496E+02 -0.16611023644E+03  0.17267270073E+03  0.00000000000E+00 0.  1.
</event>
<event>
12    1  0.1681255E-001  0.1791380E+03  0.7818608E-02  0.1168680E+00
         21   -1    0    0  501  502  0.00000000000E+00  0.00000000000E+00  0.12276275719E+03  0.12276275719E+03  0.00000000000E+00 0.  1.
         21   -1    0    0  502  503 -0.00000000000E+00 -0.00000000000E+00 -0.48474724466E+03  0.48474724466E+03  0.00000000000E+00 0.  1.
         -6    2    1    2    0  503  0.48908103992E+02  0.28456599994E+01 -0.38724233128E+03  0.42660013276E+03  0.17213642763E+03 0.  0.
        -24    2    3    3    0    0 -0.16975929762E+02 -0.56051053137E+01 -0.81164896792E+02  0.11336283096E+03  0.77095989353E+02 0.  0.
          6    2    1    2  501    0 -0.48908103992E+02 -0.28456599994E+01  0.25257843806E+02  0.18090986909E+03  0.17230879735E+03 0.  0.
         24    2    5    5    0    0  0.16395750480E+02 -0.37738810456E+02  0.30231653989E+02  0.10655293165E+03  0.93522916402E+02 0.  0.
          5    1    5    5  501    0 -0.65303854472E+02  0.34893150457E+02 -0.49738101837E+01  0.74356937440E+02  0.47000000000E+01 0. -1.
        -11    1    6    6    0    0  0.18322300476E+02  0.28970734312E+02  0.27827522620E+01  0.34391188573E+02  0.00000000000E+00 0.  1.
         12    1    6    6    0    0 -0.19265499959E+01 -0.66709544769E+02  0.27448901727E+02  0.72161743079E+02  0.00000000000E+00 0. -1.
         -5    1    3    3    0  503  0.65884033755E+02  0.84507653131E+01 -0.30607743449E+03  0.31323730180E+03  0.47000000000E+01 0.  1.
         13    1    4    4    0    0  0.94419949812E+01  0.20543375081E+02  0.15677919003E+01  0.22663616225E+02  0.00000000000E+00 0. -1.
        -14    1    4    4    0    0 -0.26417924743E+02 -0.26148480395E+02 -0.82732688692E+02  0.90699214732E+02  0.00000000000E+00 0.  1.
</event>
<event>
12    1  0.1681255E-001  0.2029151E+03  0.7818608E-02  0.1147341E+00
         21   -1    0    0  503  502  0.00000000000E+00  0.00000000000E+00  0.52305682560E+03  0.52305682560E+03  0.00000000000E+00 0.  1.
         21   -1    0    0  501  503 -0.00000000000E+00 -0.00000000000E+00 -0.22703352831E+03  0.22703352831E+03  0.00000000000E+00 0.  1.
          6    2    1    2  501    0 -0.88315827116E+02 -0.61851764005E+02  0.45124054278E+03  0.49476516518E+03  0.17189885163E+03 0.  0.
         24    2    3    3    0    0 -0.93396214796E+02 -0.52796786944E+01  0.18327058763E+03  0.22080130252E+03  0.80089818083E+02 0.  0.
         -6    2    1    2    0  502  0.88315827116E+02  0.61851764005E+02 -0.15521724550E+03  0.25532518874E+03  0.17167769999E+03 0.  0.
        -24    2    5    5    0    0  0.30844981893E+02  0.27698102347E+02 -0.16450867502E+03  0.18766581157E+03  0.80229389216E+02 0.  0.
          5    1    3    3  501    0  0.50803876799E+01 -0.56572085311E+02  0.26796995516E+03  0.27396386266E+03  0.47000000000E+01 0. -1.
        -11    1    4    4    0    0 -0.48683189698E+02  0.36986740134E+02  0.81621277061E+02  0.10198090397E+03  0.00000000000E+00 0.  1.
         12    1    4    4    0    0 -0.44713025097E+02 -0.42266418828E+02  0.10164931057E+03  0.11882039855E+03  0.00000000000E+00 0. -1.
         -5    1    5    5    0  502  0.57470845223E+02  0.34153661659E+02  0.92914295287E+01  0.67659377163E+02  0.47000000000E+01 0.  1.
         11    1    6    6    0    0  0.37068704914E+02 -0.20240719670E+01 -0.24683035976E+02  0.44580691070E+02  0.00000000000E+00 0. -1.
        -12    1    6    6    0    0 -0.62237230214E+01  0.29722174314E+02 -0.13982563905E+03  0.14308512050E+03  0.00000000000E+00 0.  1.
</event>
<event>
12    1  0.1681255E-001  0.2619201E+03  0.7818608E-02  0.1106271E+00
         21   -1    0    0  503  502  0.00000000000E+00  0.00000000000E+00  0.55590165374E+03  0.55590165374E+03  0.00000000000E+00 0. -1.
         21   -1    0    0  501  503 -0.00000000000E+00 -0.00000000000E+00 -0.26412017837E+03  0.26412017837E+03  0.00000000000E+00 0.  1.
          6    2    1    2  501    0  0.15055860708E+03 -0.12928880705E+03 -0.15454147667E+03  0.30252176783E+03  0.16808587748E+03 0.  0.
         24    2    3    3    0    0  0.14043614426E+03 -0.13837414655E+03 -0.17637229276E+03  0.27637445098E+03  0.80037094202E+02 0.  0.
         -6    2    1    2    0  502 -0.15055860708E+03  0.12928880705E+03  0.44632295204E+03  0.51750006428E+03  0.17093463436E+03 0.  0.
        -24    2    5    5    0    0 -0.48488101706E+02  0.11836618954E+03  0.33050452140E+03  0.36266566721E+03  0.77016210475E+02 0.  0.
          5    1    3    3  501    0  0.10122462820E+02  0.90853395022E+01  0.21830816096E+02  0.26147316857E+02  0.47000000000E+01 0. -1.
        -13    1    4    4    0    0  0.13476019137E+03 -0.85959075139E+02 -0.13793785291E+03  0.21113058291E+03  0.00000000000E+00 0.  1.
         14    1    4    4    0    0  0.56759528913E+01 -0.52415071415E+02 -0.38434439853E+02  0.65243868060E+02  0.00000000000E+00 0. -1.
         -5    1    5    5    0  502 -0.10207050538E+03  0.10922617509E+02  0.11581843063E+03  0.15483439707E+03  0.47000000000E+01 0.  1.
         11    1    6    6    0    0 -0.39661695307E+02  0.51497829020E+02  0.79154233062E+02  0.10242299097E+03  0.00000000000E+00 0. -1.
        -12    1    6    6    0    0 -0.88264063988E+01  0.66868360523E+02  0.25135028834E+03  0.26024267624E+03  0.00000000000E+00 0.  1.
</event>
<event>
12    1  0.1681255E-001  0.2179964E+03  0.7818608E-02  0.1136290E+00
         21   -1    0    0  501  502  0.00000000000E+00  0.00000000000E+00  0.12046006485E+03  0.12046006485E+03  0.00000000000E+00 0.  1.
         21   -1    0    0  502  503 -0.00000000000E+00 -0.00000000000E+00 -0.38602816518E+03  0.38602816518E+03  0.00000000000E+00 0. -1.
         -6    2    1    2    0  503 -0.12962591390E+03 -0.27466404450E+02 -0.13717689146E+03  0.25756538426E+03  0.17310443868E+03 0.  0.
        -24    2    3    3    0    0 -0.78542460230E+02  0.10290582194E+02 -0.71376951343E+01  0.11276416927E+03  0.79937457050E+02 0.  0.
          6    2    1    2  501    0  0.12962591390E+03  0.27466404450E+02 -0.12839120887E+03  0.24892284576E+03  0.16709578002E+03 0.  0.
         24    2    5    5    0    0  0.81755265214E+02 -0.44414493484E+02 -0.97921291237E+02  0.15722241842E+03  0.80459548571E+02 0.  0.
          5    1    5    5  501    0  0.47870648688E+02  0.71880897934E+02 -0.30469917630E+02  0.91700427338E+02  0.47000000000E+01 0. -1.
        -13    1    6    6    0    0  0.19388273014E+01  0.20027037154E+02 -0.20296918292E+02  0.28579820864E+02  0.00000000000E+00 0.  1.
         14    1    6    6    0    0  0.79816437912E+02 -0.64441530638E+02 -0.77624372945E+02  0.12864259756E+03  0.00000000000E+00 0. -1.
         -5    1    3    3    0  503 -0.51083453671E+02 -0.37756986644E+02 -0.13003919633E+03  0.14480121499E+03  0.47000000000E+01 0.  1.
         13    1    4    4    0    0 -0.45978140482E+02  0.32844855034E+02 -0.33020466972E+02  0.65445589182E+02  0.00000000000E+00 0. -1.
        -14    1    4    4    0    0 -0.32564319748E+02 -0.22554272839E+02  0.25882771838E+02  0.47318580093E+02  0.00000000000E+00 0.  1.
</event>
<event>
12    1  0.1681255E-001  0.2989935E+03  0.7818608E-02  0.1085878E+00
         21   -1    0    0  501  502  0.00000000000E+00  0.00000000000E+00  0.69026145015E+03  0.69026145015E+03  0.00000000000E+00 0. -1.
         21   -1    0    0  502  503 -0.00000000000E+00 -0.00000000000E+00 -0.16357533420E+03  0.16357533420E+03  0.00000000000E+00 0.  1.
         -6    2    1    2    0  503 -0.41411398941E+02 -0.24101289640E+03  0.67589820980E+02  0.30653787427E+03  0.17203186991E+03 0.  0.
        -24    2    3    3    0    0  0.24618920376E+02 -0.80016512898E+02  0.22088646379E+01  0.12059003743E+03  0.86766032917E+02 0.  0.
          6    2    1    2  501    0  0.41411398941E+02  0.24101289640E+03  0.45909629497E+03  0.54729891009E+03  0.17018980211E+03 0.  0.
         24    2    5    5    0    0 -0.18886969343E+02  0.18155966855E+03  0.38895530968E+03  0.43724243670E+03  0.81080729296E+02 0.  0.
          5    1    5    5  501    0  0.60298368283E+02  0.59453227850E+02  0.70140985286E+02  0.11005647340E+03  0.47000000000E+01 0. -1.
        -11    1    6    6    0    0 -0.25620062297E+02  0.51277992471E+02  0.58195714488E+02  0.81685747158E+02  0.00000000000E+00 0.  1.
         12    1    6    6    0    0  0.67330929547E+01  0.13028167608E+03  0.33075959519E+03  0.35555668954E+03  0.00000000000E+00 0. -1.
         -5    1    3    3    0  503 -0.66030319317E+02 -0.16099638350E+03  0.65380956342E+02  0.18594783683E+03  0.47000000000E+01 0.  1.
         13    1    4    4    0    0  0.24611163403E+01 -0.35892809898E+02  0.43340696158E+02  0.56327318767E+02  0.00000000000E+00 0. -1.
        -14    1    4    4    0    0  0.22157804036E+02 -0.44123703000E+02 -0.41131831520E+02  0.64262718666E+02  0.00000000000E+00 0.  1.
</event>
<event>
12    1  0.1681255E-001  0.3037858E+03  0.7818608E-02  0.1083595E+00
         21   -1    0    0  503  502  0.00000000000E+00  0.00000000000E+00  0.30701336392E+03  0.30701336392E+03  0.00000000000E+00 0.  1.
         21   -1    0    0  501  503 -0.00000000000E+00 -0.00000000000E+00 -0.31670888225E+03  0.31670888225E+03  0.00000000000E+00 0. -1.
          6    2    1    2  501    0  0.17496252433E+03 -0.17790141149E+03 -0.79120572851E+02  0.31210444212E+03  0.16996564538E+03 0.  0.
         24    2    3    3    0    0  0.12715121269E+03 -0.44039076781E+02 -0.21158864653E+02  0.15852483477E+03  0.81089792909E+02 0.  0.
         -6    2    1    2    0  502 -0.17496252433E+03  0.17790141149E+03  0.69425054515E+02  0.31161780405E+03  0.17327729359E+03 0.  0.
        -24    2    5    5    0    0 -0.14929414550E+03  0.17800859268E+03  0.88110647840E+01  0.24562520666E+03  0.79235764243E+02 0.  0.
          5    1    3    3  501    0  0.47811311643E+02 -0.13386233471E+03 -0.57961708197E+02  0.15357960735E+03  0.47000000000E+01 0. -1.
        -11    1    4    4    0    0  0.36340265797E+02  0.97572842454E+01  0.23011248184E+02  0.44105975298E+02  0.00000000000E+00 0.  1.
         12    1    4    4    0    0  0.90810946893E+02 -0.53796361027E+02 -0.44170112837E+02  0.11441885947E+03  0.00000000000E+00 0. -1.
         -5    1    5    5    0  502 -0.25668378835E+02 -0.10718118288E+00  0.60613989731E+02  0.65992597395E+02  0.47000000000E+01 0.  1.
         11    1    6    6    0    0 -0.13123864012E+02  0.70418642127E+02 -0.28578323134E+01  0.71688131313E+02  0.00000000000E+00 0. -1.
        -12    1    6    6    0    0 -0.13617028149E+03  0.10758995055E+03  0.11668897097E+02  0.17393707534E+03  0.00000000000E+00 0.  1.
</event>
<event>
12    1  0.1681255E-001  0.2604426E+03  0.7818608E-02  0.1106893E+00
         21   -1    0    0  503  502  0.00000000000E+00  0.00000000000E+00  0.55150124736E+02  0.55150124736E+02  0.00000000000E+00 0.  1.
         21   -1    0    0  501  503 -0.00000000000E+00 -0.00000000000E+00 -0.12298192426E+04  0.12298192426E+04  0.00000000000E+00 0. -1.
          6    2    1    2  501    0  0.17197832848E+03  0.93298875486E+02 -0.57607493721E+03  0.63221253865E+03  0.17189861872E+03 0.  0.
         24    2    3    3    0    0  0.15115933273E+03  0.19604534405E+02 -0.30417046701E+03  0.34969100424E+03  0.80812398845E+02 0.  0.
         -6    2    1    2    0  502 -0.17197832848E+03 -0.93298875486E+02 -0.59859418062E+03  0.65275682865E+03  0.17174183718E+03 0.  0.
        -24    2    5    5    0    0 -0.17173438977E+03 -0.40179322025E+02 -0.53868344329E+03  0.57255001526E+03  0.80787309346E+02 0.  0.
          5    1    3    3  501    0  0.20818995749E+02  0.73694341081E+02 -0.27190447020E+03  0.28252153441E+03  0.47000000000E+01 0. -1.
        -13    1    4    4    0    0  0.82986099047E+02  0.34004675370E+02 -0.10184328150E+03  0.13570211704E+03  0.00000000000E+00 0.  1.
         14    1    4    4    0    0  0.68173233684E+02 -0.14400140964E+02 -0.20232718551E+03  0.21398888721E+03  0.00000000000E+00 0. -1.
         -5    1    5    5    0  502 -0.24393870454E+00 -0.53119553461E+02 -0.59910737329E+02  0.80206813385E+02  0.47000000000E+01 0.  1.
         11    1    6    6    0    0 -0.25138603422E+02 -0.32679636948E+02 -0.68141330116E+02  0.79643888171E+02  0.00000000000E+00 0. -1.
        -12    1    6    6    0    0 -0.14659578635E+03 -0.74996850765E+01 -0.47054211318E+03  0.49290612709E+03  0.00000000000E+00 0.  1.
</event>
<event>
12    1  0.1681255E-001  0.2360772E+03  0.7818608E-02  0.1122456E+00
         21   -1    0    0  501  502  0.00000000000E+00  0.00000000000E+00  0.32488574519E+02  0.32488574519E+02  0.00000000000E+00 0.  1.
         21   -1    0    0  502  503 -0.00000000000E+00 -0.00000000000E+00 -0.17393860031E+04  0.17393860031E+04  0.00000000000E+00 0.  1.
         -6    2    1    2    0  503 -0.14396987853E+03 -0.74293271135E+02 -0.95965873836E+03  0.98826987266E+03  0.17171380557E+03 0.  0.
        -24    2    3    3    0    0 -0.33370140471E+02 -0.26201451477E+02 -0.21073242754E+03  0.22968050138E+03  0.80900521388E+02 0.  0.
          6    2    1    2  501    0  0.14396987853E+03  0.74293271135E+02 -0.74723869022E+03  0.78360470496E+03  0.17153383754E+03 0.  0.
         24    2    5    5    0    0  0.42775576001E+02  0.24225319631E+02 -0.15595392557E+03  0.18161894971E+03  0.79039230621E+02 0.  0.
          5    1    5    5  501    0  0.10119430253E+03  0.50067951505E+02 -0.59128476465E+03  0.60198575526E+03  0.47000000000E+01 0. -1.
        -13    1    6    6    0    0  0.34467159078E+02 -0.74009243441E+01 -0.14157451870E+03  0.14589757737E+03  0.00000000000E+00 0.  1.
         14    1    6    6    0    0  0.83084169230E+01  0.31626243975E+02 -0.14379406871E+02  0.35721372337E+02  0.00000000000E+00 0. -1.
         -5    1    3    3    0  503 -0.11059973806E+03 -0.48091819658E+02 -0.74892631083E+03  0.75858937128E+03  0.47000000000E+01 0.  1.
         11    1    4    4    0    0 -0.54459477725E+02  0.33687390843E+01 -0.11493631329E+03  0.12723026067E+03  0.00000000000E+00 0. -1.
        -12    1    4    4    0    0  0.21089337254E+02 -0.29570190561E+02 -0.95796114249E+02  0.10245024071E+03  0.00000000000E+00 0.  1.
</event>
<event>
12    1  0.1681255E-001  0.2124236E+03  0.7818608E-02  0.1139956E+00
         21   -1    0    0  503  502  0.00000000000E+00  0.00000000000E+00  0.23969761667E+03  0.23969761667E+03  0.00000000000E+00 0. -1.
         21   -1    0    0  501  503 -0.00000000000E+00 -0.00000000000E+00 -0.30288187493E+03  0.30288187493E+03  0.00000000000E+00 0. -1.
          6    2    1    2  501    0  0.10720179981E+02  0.12286207246E+03 -0.19952310232E+03  0.29143310700E+03  0.17295599553E+03 0.  0.
         24    2    3    3    0    0  0.33822768994E+02  0.27221558801E+02 -0.31527703199E+02  0.96688706321E+02  0.80434550382E+02 0.  0.
         -6    2    1    2    0  502 -0.10720179981E+02 -0.12286207246E+03  0.13633884406E+03  0.25114638460E+03  0.17110293683E+03 0.  0.
        -24    2    5    5    0    0  0.33639148158E+02 -0.42393628249E+02  0.12531261701E+03  0.15848253950E+03  0.80527332862E+02 0.  0.
          5    1    3    3  501    0 -0.23102589013E+02  0.95640513659E+02 -0.16799539912E+03  0.19474440068E+03  0.47000000000E+01 0. -1.
        -11    1    4    4    0    0 -0.13567217185E+02  0.47302686750E+01 -0.40945802621E+02  0.43393589113E+02  0.00000000000E+00 0.  1.
         12    1    4    4    0    0  0.47389986179E+02  0.22491290126E+02  0.94180994212E+01  0.53295117208E+02  0.00000000000E+00 0. -1.
         -5    1    5    5    0  502 -0.44359328139E+02 -0.80468444211E+02  0.11026227044E+02  0.92663845105E+02  0.47000000000E+01 0.  1.
         13    1    6    6    0    0  0.78423767586E+01 -0.58991015593E+02  0.10786674490E+03  0.12319365831E+03  0.00000000000E+00 0. -1.
        -14    1    6    6    0    0  0.25796771400E+02  0.16597387344E+02  0.17445872115E+02  0.35288881183E+02  0.00000000000E+00 0.  1.
</event>
<event>
12    1  0.1681255E-001  0.2059758E+03  0.7818608E-02  0.1145029E+00
         21   -1    0    0  503  502  0.00000000000E+00  0.00000000000E+00  0.65727766927E+02  0.65727766927E+02  0.00000000000E+00 0.  1.
         21   -1    0    0  501  503 -0.00000000000E+00 -0.00000000000E+00 -0.15300153798E+04  0.15300153798E+04  0.00000000000E+00 0.  1.
          6    2    1    2  501    0 -0.84653757440E+02 -0.70361727646E+02 -0.13391753551E+04  0.13547470467E+04  0.17271912855E+03 0.  0.
         24    2    3    3    0    0 -0.74085209835E+01 -0.45868795807E+02 -0.10550358337E+04  0.10592405528E+04  0.82043316591E+02 0.  0.
         -6    2    1    2    0  502  0.84653757440E+02  0.70361727646E+02 -0.12511225775E+03  0.24099610004E+03  0.17409483574E+03 0.  0.
        -24    2    5    5    0    0  0.94529254962E+02  0.27466710901E+02 -0.14489807449E+03  0.19250819993E+03  0.79835798965E+02 0.  0.
          5    1    3    3  501    0 -0.77245236456E+02 -0.24492931840E+02 -0.28413952147E+03  0.29550649388E+03  0.47000000000E+01 0. -1.
        -13    1    4    4    0    0  0.12083743360E+02  0.18442292330E+02 -0.13845377446E+03  0.14019836897E+03  0.00000000000E+00 0.  1.
         14    1    4    4    0    0 -0.19492264343E+02 -0.64311088137E+02 -0.91658205921E+03  0.91904218385E+03  0.00000000000E+00 0. -1.
         -5    1    5    5    0  502 -0.98754975219E+01  0.42895016745E+02  0.19785816747E+02  0.48487900112E+02  0.47000000000E+01 0.  1.
         11    1    6    6    0    0  0.36813011209E+02  0.52216486686E+02 -0.75932431094E+02  0.99234537173E+02  0.00000000000E+00 0. -1.
        -12    1    6    6    0    0  0.57716243753E+02 -0.24749775785E+02 -0.68965643401E+02  0.93273662757E+02  0.00000000000E+00 0.  1.
</event>
<event>
12    1  0.1681255E-001  0.1818275E+03  0.7818608E-02  0.1166114E+00
         21   -1    0    0  503  502  0.00000000000E+00  0.00000000000E+00  0.82495048674E+02  0.82495048674E+02  0.00000000000E+00 0.  1.
         21   -1    0    0  501  503 -0.00000000000E+00 -0.00000000000E+00 -0.78978734825E+03  0.78978734825E+03  0.00000000000E+00 0.  1.
          6    2    1    2  501    0 -0.39405936668E+02 -0.43042387457E+02 -0.65984838139E+03  0.68436712279E+03  0.17190985249E+03 0.  0.
         24    2    3    3    0    0 -0.68839218290E+02  0.18626416882E+02 -0.48166286926E+03  0.49347048525E+03  0.80176173549E+02 0.  0.
         -6    2    1    2    0  502  0.39405936668E+02  0.43042387457E+02 -0.47443918187E+02  0.18791527413E+03  0.17220844902E+03 0.  0.
        -24    2    5    5    0    0 -0.19921426197E+02 -0.28296731533E+02 -0.16343890801E+02  0.89944321358E+02  0.81395884053E+02 0.  0.
          5    1    3    3  501    0  0.29433281621E+02 -0.61668804339E+02 -0.17818551212E+03  0.19089663754E+03  0.47000000000E+01 0. -1.
        -13    1    4    4    0    0 -0.44234980464E+02  0.34796939032E+01 -0.44293722122E+03  0.44515415724E+03  0.00000000000E+00 0.  1.
         14    1    4    4    0    0 -0.24604237825E+02  0.15146722979E+02 -0.38725648045E+02  0.48316328011E+02  0.00000000000E+00 0. -1.
         -5    1    5    5    0  502  0.59327362865E+02  0.71339118991E+02 -0.31100027385E+02  0.97970952768E+02  0.47000000000E+01 0.  1.
         13    1    6    6    0    0 -0.37974956622E+02 -0.38190014488E+02 -0.33259920526E+02  0.63299264217E+02  0.00000000000E+00 0. -1.
        -14    1    6    6    0    0  0.18053530425E+02  0.98932829547E+01  0.16916029724E+02  0.26645057141E+02  0.00000000000E+00 0.  1.
</event>
<event>
12    1  0.1681255E-001  0.2816265E+03  0.7818608E-02  0.1094805E+00
         21   -1    0    0  503  502  0.00000000000E+00  0.00000000000E+00  0.16298579736E+03  0.16298579736E+03  0.00000000000E+00 0. -1.
         21   -1    0    0  501  503 -0.00000000000E+00 -0.00000000000E+00 -0.57390794229E+03  0.57390794229E+03  0.00000000000E+00 0.  1.
          6    2    1    2  501    0 -0.10280958048E+03 -0.19788417587E+03 -0.34915487048E+03  0.44857324850E+03  0.17199092648E+03 0.  0.
         24    2    3    3    0    0 -0.66485901205E+02 -0.79737587094E+02 -0.85758923157E+02  0.15757919155E+03  0.81842231476E+02 0.  0.
         -6    2    1    2    0  502  0.10280958048E+03  0.19788417587E+03 -0.61767274442E+02  0.28832049115E+03  0.17200451310E+03 0.  0.
        -24    2    5    5    0    0  0.99024972837E+02  0.21908641900E+03 -0.73495857623E+02  0.26335034833E+03  0.78402555097E+02 0.  0.
          5    1    3    3  501    0 -0.36323679276E+02 -0.11814658877E+03 -0.26339594732E+03  0.29099405695E+03  0.47000000000E+01 0. -1.
        -11    1    4    4    0    0 -0.57333145929E+02 -0.86984972594E+02 -0.96284889420E+02  0.14185998382E+03  0.00000000000E+00 0.  1.
         12    1    4    4    0    0 -0.91527552756E+01  0.72473854997E+01  0.10525966264E+02  0.15719207725E+02  0.00000000000E+00 0. -1.
         -5    1    5    5    0  502  0.37846076442E+01 -0.21202243130E+02  0.11728583181E+02  0.24970142815E+02  0.47000000000E+01 0.  1.
         11    1    6    6    0    0  0.77368771013E+02  0.97764678283E+02 -0.62935324592E+02  0.13965927871E+03  0.00000000000E+00 0. -1.
        -12    1    6    6    0    0  0.21656201824E+02  0.12132174071E+03 -0.10560533031E+02  0.12369106963E+03  0.00000000000E+00 0.  1.
</event>
<event>
12    1  0.1681255E-001  0.2075316E+03  0.7818608E-02  0.1143647E+00
         21   -1    0    0  501  502  0.00000000000E+00  0.00000000000E+00  0.12298737662E+04  0.12298737662E+04  0.00000000000E+00 0. -1.
         21   -1    0    0  502  503 -0.00000000000E+00 -0.00000000000E+00 -0.49578831289E+02  0.49578831289E+02  0.00000000000E+00 0. -1.
         -6    2    1    2    0  503 -0.33228438608E+02  0.11223492749E+03  0.24181429277E+03  0.31829949430E+03  0.17070327414E+03 0.  0.
        -24    2    3    3    0    0 -0.77458072901E+02  0.36817493528E+02  0.16311178077E+03  0.20057003626E+03  0.79168210357E+02 0.  0.
          6    2    1    2  501    0  0.33228438608E+02 -0.11223492749E+03  0.93848064217E+03  0.96115310322E+03  0.17137258831E+03 0.  0.
         24    2    5    5    0    0  0.36491742342E+02 -0.36319933753E+01  0.61815781528E+03  0.62287208117E+03  0.67124557961E+02 0.  0.
          5    1    5    5  501    0 -0.32633037340E+01 -0.10860293412E+03  0.32032282689E+03  0.33828102205E+03  0.47000000000E+01 0. -1.
        -11    1    6    6    0    0  0.19968841389E+01 -0.85124489929E+01  0.48958043798E+03  0.48965850813E+03  0.00000000000E+00 0.  1.
         12    1    6    6    0    0  0.34494858203E+02  0.48804556176E+01  0.12857737730E+03  0.13321357304E+03  0.00000000000E+00 0. -1.
         -5    1    3    3    0  503  0.44229634293E+02  0.75417433963E+02  0.78702512000E+02  0.11772945804E+03  0.47000000000E+01 0.  1.
         11    1    4    4    0    0 -0.10426849903E+02  0.21575687504E+02  0.43691917521E+00  0.23967068835E+02  0.00000000000E+00 0. -1.
        -12    1    4    4    0    0 -0.67031222998E+02  0.15241806023E+02  0.16267486159E+03  0.17660296742E+03  0.00000000000E+00 0.  1.
</event>
<event>
12    1  0.1681255E-001  0.2088972E+03  0.7818608E-02  0.1142447E+00
         21   -1    0    0  501  502  0.00000000000E+00  0.00000000000E+00  0.10040280595E+03  0.10040280595E+03  0.00000000000E+00 0.  1.
         21   -1    0    0  502  503 -0.00000000000E+00 -0.00000000000E+00 -0.53131581896E+03  0.53131581896E+03  0.00000000000E+00 0.  1.
         -6    2    1    2    0  503  0.38742889716E+02  0.11198309683E+03 -0.80674884271E+02  0.22391376671E+03  0.17201079178E+03 0.  0.
        -24    2    3    3    0    0  0.32449514844E+02  0.93472771467E+02 -0.12344765122E+03  0.17665026805E+03  0.78586669309E+02 0.  0.
          6    2    1    2  501    0 -0.38742889716E+02 -0.11198309683E+03 -0.35023812873E+03  0.40780485821E+03  0.17203729269E+03 0.  0.
         24    2    5    5    0    0 -0.65812015903E+02 -0.11358205950E+03 -0.16139646035E+03  0.21696838372E+03  0.61598347741E+02 0.  0.
          5    1    5    5  501    0  0.27069126187E+02  0.15989626673E+01 -0.18884166839E+03  0.19083647448E+03  0.47000000000E+01 0. -1.
        -11    1    6    6    0    0 -0.76258146770E+02 -0.83148457031E+02 -0.12638558688E+03  0.16941749445E+03  0.00000000000E+00 0.  1.
         12    1    6    6    0    0  0.10446130866E+02 -0.30433602471E+02 -0.35010873466E+02  0.47550889270E+02  0.00000000000E+00 0. -1.
         -5    1    3    3    0  503  0.62933748722E+01  0.18510325368E+02  0.42772766947E+02  0.47263498651E+02  0.47000000000E+01 0.  1.
         13    1    4    4    0    0 -0.72689054140E+01  0.27783569848E+01 -0.56724824391E+02  0.57256108457E+02  0.00000000000E+00 0. -1.
        -14    1    4    4    0    0  0.39718420258E+02  0.90694414482E+02 -0.66722826826E+02  0.11939415960E+03  0.00000000000E+00 0.  1.
</event>
<event>
12    1  0.1681255E-001  0.1742796E+03  0.7818608E-02  0.1173820E+00
         21   -1    0    0  503  502  0.00000000000E+00  0.00000000000E+00  0.31290109539E+03  0.31290109539E+03  0.00000000000E+00 0. -1.
         21   -1    0    0  501  503 -0.00000000000E+00 -0.00000000000E+00 -0.16207713216E+03  0.16207713216E+03  0.00000000000E+00 0. -1.
          6    2    1    2  501    0  0.23832015459E+02 -0.15434338559E+02 -0.75725313346E+02  0.19002028885E+03  0.17195116553E+03 0.  0.
         24    2    3    3    0    0 -0.14208713952E+02 -0.78414886096E+01  0.23181190726E+02  0.83674931587E+02  0.78744841589E+02 0.  0.
         -6    2    1    2    0  502 -0.23832015459E+02  0.15434338559E+02  0.22654927658E+03  0.28495793870E+03  0.17050005378E+03 0.  0.
        -24    2    5    5    0    0 -0.19924420589E+02  0.59676114287E+02  0.71423123962E+02  0.12353050223E+03  0.78741991293E+02 0.  0.
          5    1    3    3  501    0  0.38040729411E+02 -0.75928499497E+01 -0.98906504072E+02  0.10634535727E+03  0.47000000000E+01 0. -1.
        -11    1    4    4    0    0 -0.33978589724E+02 -0.21626666798E+02 -0.11091273218E+02  0.41776472063E+02  0.00000000000E+00 0.  1.
         12    1    4    4    0    0  0.19769875772E+02  0.13785178189E+02  0.34272463944E+02  0.41898459524E+02  0.00000000000E+00 0. -1.
         -5    1    5    5    0  502 -0.39075948703E+01 -0.44241775728E+02  0.15512615262E+03  0.16142743647E+03  0.47000000000E+01 0.  1.
         11    1    6    6    0    0 -0.46373710004E+02  0.31278963159E+02  0.62181121356E+02  0.83638426390E+02  0.00000000000E+00 0. -1.
        -12    1    6    6    0    0  0.26449289415E+02  0.28397151128E+02  0.92420026058E+01  0.39892075841E+02  0.00000000000E+00 0.  1.
</event>
<event>
12    1  0.1681255E-001  0.1754205E+03  0.7818608E-02  0.1176581E+00
         21   -1    0    0  501  502  0.00000000000E+00  0.00000000000E+00  0.49996216133E+03  0.49996216133E+03  0.00000000000E+00 0. -1.
         21   -1    0    0  502  503 -0.00000000000E+00 -0.00000000000E+00 -0.29406572825E+03  0.29406572825E+03  0.00000000000E+00 0. -1.
         -6    2    1    2    0  503  0.10675123853E+02 -0.33126955905E+02 -0.25514291365E+03  0.30074336410E+03  0.15536187172E+03 0.  0.
        -24    2    3    3    0    0  0.28399695680E+02 -0.35383221298E+02 -0.26449751419E+03  0.28003467676E+03  0.80012312264E+02 0.  0.
          6    2    1    2  501    0 -0.10675123853E+02  0.33126955905E+02  0.46103934673E+03  0.49328452548E+03  0.17193309852E+03 0.  0.
         24    2    5    5    0    0  0.34802241884E+02 -0.10926590020E+02  0.13353440079E+03  0.15968223934E+03  0.79601475842E+02 0.  0.
          5    1    5    5  501    0 -0.45477365737E+02  0.44053545925E+02  0.32750494594E+03  0.33360228614E+03  0.47000000000E+01 0. -1.
        -11    1    6    6    0    0  0.45065464726E+02 -0.29093688111E+02  0.12692560851E+03  0.13779495235E+03  0.00000000000E+00 0.  1.
         12    1    6    6    0    0 -0.10263222842E+02  0.18167098090E+02  0.66087922810E+01  0.21887286985E+02  0.00000000000E+00 0. -1.
         -5    1    3    3    0  503 -0.17724571827E+02  0.22562653924E+01  0.93546005345E+01  0.20708687334E+02  0.47000000000E+01 0.  1.
         11    1    4    4    0    0  0.51660561383E+02 -0.38843852757E+02 -0.15314410624E+03  0.16622507565E+03  0.00000000000E+00 0. -1.
        -12    1    4    4    0    0 -0.23260865703E+02  0.34606314596E+01 -0.11135340795E+03  0.11380960111E+03  0.00000000000E+00 0.  1.
</event>
<event>
12    1  0.1681255E-001  0.2196515E+03  0.7818608E-02  0.1134211E+00
         21   -1    0    0  501  502  0.00000000000E+00  0.00000000000E+00  0.50238494295E+03  0.50238494295E+03  0.00000000000E+00 0.  1.
         21   -1    0    0  502  503 -0.00000000000E+00 -0.00000000000E+00 -0.13763178579E+03  0.13763178579E+03  0.00000000000E+00 0.  1.
         -6    2    1    2    0  503 -0.88897770808E+02  0.10429547589E+03  0.62217644793E+01  0.21973959946E+03  0.17165786108E+03 0.  0.
        -24    2    3    3    0    0  0.18281857931E+02  0.73866184307E+02  0.28350624437E+02  0.10605058923E+03  0.68209457244E+02 0.  0.
          6    2    1    2  501    0  0.88897770808E+02 -0.10429547589E+03  0.35853139268E+03  0.42027712928E+03  0.17119505226E+03 0.  0.
         24    2    5    5    0    0  0.12152366956E+03 -0.88422944041E+02  0.33769080779E+03  0.37817242034E+03  0.79954227829E+02 0.  0.
          5    1    5    5  501    0 -0.32625898750E+02 -0.15872531847E+02  0.20840584889E+02  0.42104708941E+02  0.47000000000E+01 0. -1.
        -13    1    6    6    0    0  0.80759990093E+02 -0.73655550476E+02  0.30463976615E+03  0.32365522278E+03  0.00000000000E+00 0.  1.
         14    1    6    6    0    0  0.40763679465E+02 -0.14767393564E+02  0.33051041638E+02  0.54517197558E+02  0.00000000000E+00 0. -1.
         -5    1    3    3    0  503 -0.10717962874E+03  0.30429291581E+02 -0.22128859958E+02  0.11368901022E+03  0.47000000000E+01 0.  1.
         13    1    4    4    0    0 -0.17092274814E+02  0.11267751047E+02  0.27322486165E+02  0.34141270073E+02  0.00000000000E+00 0. -1.
        -14    1    4    4    0    0  0.35374132744E+02  0.62598433260E+02  0.10281382724E+01  0.71909319162E+02  0.00000000000E+00 0.  1.
</event>
<event>
12    1  0.1681255E-001  0.2033498E+03  0.7818608E-02  0.1147176E+00
         21   -1    0    0  503  502  0.00000000000E+00  0.00000000000E+00  0.46223023984E+03  0.46223023984E+03  0.00000000000E+00 0. -1.
         21   -1    0    0  501  503 -0.00000000000E+00 -0.00000000000E+00 -0.28241209936E+03  0.28241209936E+03  0.00000000000E+00 0.  1.
          6    2    1    2  501    0 -0.10550620674E+03  0.35753577653E+02 -0.21815828850E+03  0.29823508054E+03  0.17012126983E+03 0.  0.
         24    2    3    3    0    0 -0.11544792235E+03 -0.85196408512E+01 -0.20938794701E+03  0.25178118430E+03  0.78419674564E+02 0.  0.
         -6    2    1    2    0  502  0.10550620674E+03 -0.35753577653E+02  0.39797642898E+03  0.44640725867E+03  0.16877299722E+03 0.  0.
        -24    2    5    5    0    0  0.82814077090E+02 -0.86261813039E+02  0.32365852614E+03  0.35361040919E+03  0.77370589973E+02 0.  0.
          5    1    3    3  501    0  0.99417156124E+01  0.44273218504E+02 -0.87703414839E+01  0.46453896239E+02  0.47000000000E+01 0. -1.
        -11    1    4    4    0    0 -0.55254838454E+02  0.33371056621E+02 -0.11905166789E+03  0.13542534556E+03  0.00000000000E+00 0.  1.
         12    1    4    4    0    0 -0.60193083897E+02 -0.41890697472E+02 -0.90336279126E+02  0.11635583874E+03  0.00000000000E+00 0. -1.
         -5    1    5    5    0  502  0.22692129649E+02  0.50508235386E+02  0.74317902837E+02  0.92796849471E+02  0.47000000000E+01 0.  1.
         13    1    6    6    0    0  0.61183306722E+02 -0.15388606186E+02  0.10241353525E+03  0.12028606912E+03  0.00000000000E+00 0. -1.
        -14    1    6    6    0    0  0.21630770368E+02 -0.70873206853E+02  0.22124499089E+03  0.23332434007E+03  0.00000000000E+00 0.  1.
</event>
<event>
12    1  0.1681255E-001  0.2223999E+03  0.7818608E-02  0.1133108E+00
         21   -1    0    0  501  502  0.00000000000E+00  0.00000000000E+00  0.35903326006E+03  0.35903326006E+03  0.00000000000E+00 0. -1.
         21   -1    0    0  502  503 -0.00000000000E+00 -0.00000000000E+00 -0.13925759366E+03  0.13925759366E+03  0.00000000000E+00 0. -1.
         -6    2    1    2    0  503 -0.85369775908E+02  0.10121410004E+03  0.62316368892E+02  0.22579287969E+03  0.17194999855E+03 0.  0.
        -24    2    3    3    0    0 -0.75163176319E+02  0.27967063690E+02 -0.19653785335E+02  0.11529175212E+03  0.80462768432E+02 0.  0.
          6    2    1    2  501    0  0.85369775908E+02 -0.10121410004E+03  0.15745929751E+03  0.27249797403E+03  0.17868806002E+03 0.  0.
         24    2    5    5    0    0  0.12783103540E+03 -0.97759726225E+02  0.13116399845E+03  0.22221453731E+03  0.79231107648E+02 0.  0.
          5    1    5    5  501    0 -0.42461259492E+02 -0.34543738142E+01  0.26295299055E+02  0.50283436721E+02  0.47000000000E+01 0. -1.
        -11    1    6    6    0    0  0.31745715582E+02 -0.13273937290E+02 -0.56790068867E+01  0.34874618108E+02  0.00000000000E+00 0.  1.
         12    1    6    6    0    0  0.96085319819E+02 -0.84485788935E+02  0.13684300534E+03  0.18733991920E+03  0.00000000000E+00 0. -1.
         -5    1    3    3    0  503 -0.10206599589E+02  0.73247036349E+02  0.81970154227E+02  0.11050112756E+03  0.47000000000E+01 0.  1.
         11    1    4    4    0    0  0.52585023010E+01 -0.17838196602E+02 -0.12617122993E+02  0.22473203979E+02  0.00000000000E+00 0. -1.
        -12    1    4    4    0    0 -0.80421678620E+02  0.45805260293E+02 -0.70366623420E+01  0.92818548144E+02  0.00000000000E+00 0.  1.
</event>
<event>
12    1  0.1681255E-001  0.3014407E+03  0.7818608E-02  0.1084566E+00
         21   -1    0    0  501  502  0.00000000000E+00  0.00000000000E+00  0.65941610874E+03  0.65941610874E+03  0.00000000000E+00 0. -1.
         21   -1    0    0  502  503 -0.00000000000E+00 -0.00000000000E+00 -0.13073074244E+04  0.13073074244E+04  0.00000000000E+00 0.  1.
         -6    2    1    2    0  503 -0.24728935041E+03 -0.31543555782E+01 -0.12540815584E+04  0.12897204916E+04  0.17174521435E+03 0.  0.
        -24    2    3    3    0    0 -0.19084756826E+03 -0.48260415880E+02 -0.71482192783E+03  0.74562190626E+03  0.78928933488E+02 0.  0.
          6    2    1    2  501    0  0.24728935041E+03  0.31543555782E+01  0.60619024268E+03  0.67700304156E+03  0.17235003676E+03 0.  0.
         24    2    5    5    0    0  0.82294430319E+02 -0.29377580856E+02  0.14985297612E+03  0.19064161073E+03  0.79075241203E+02 0.  0.
          5    1    5    5  501    0  0.16499492009E+03  0.32531936434E+02  0.45633726657E+03  0.48636143083E+03  0.47000000000E+01 0. -1.
        -11    1    6    6    0    0  0.45977310171E+01 -0.36438901161E+02  0.69722287387E+02  0.78804378094E+02  0.00000000000E+00 0.  1.
         12    1    6    6    0    0  0.77696699302E+02  0.70613203049E+01  0.80130688729E+02  0.11183723263E+03  0.00000000000E+00 0. -1.
         -5    1    3    3    0  503 -0.56441782153E+02  0.45106060302E+02 -0.53925963054E+03  0.54409858535E+03  0.47000000000E+01 0.  1.
         11    1    4    4    0    0 -0.34215389719E+02 -0.13395675249E+02 -0.52125741940E+02  0.63774838156E+02  0.00000000000E+00 0. -1.
        -12    1    4    4    0    0 -0.15663217854E+03 -0.34864740631E+02 -0.66269618589E+03  0.68184706811E+03  0.00000000000E+00 0.  1.
</event>
<event>
12    1  0.1681255E-001  0.2018437E+03  0.7818608E-02  0.1148287E+00
         21   -1    0    0  501  502  0.00000000000E+00  0.00000000000E+00  0.39686727955E+03  0.39686727955E+03  0.00000000000E+00 0.  1.
         21   -1    0    0  502  503 -0.00000000000E+00 -0.00000000000E+00 -0.11916644494E+03  0.11916644494E+03  0.00000000000E+00 0. -1.
         -6    2    1    2    0  503 -0.42773112550E+02 -0.96764922774E+02  0.42280952077E+02  0.20622454085E+03  0.17189500547E+03 0.  0.
        -24    2    3    3    0    0 -0.54164553736E+02 -0.68911002306E+02 -0.37824482097E+02  0.12052403676E+03  0.73571916314E+02 0.  0.
          6    2    1    2  501    0  0.42773112550E+02  0.96764922774E+02  0.23541988254E+03  0.30980918364E+03  0.17136574843E+03 0.  0.
         24    2    5    5    0    0 -0.12872935651E+02  0.93678500671E+02  0.88315493539E+02  0.15243129464E+03  0.80587215039E+02 0.  0.
          5    1    5    5  501    0  0.55646048200E+02  0.30864221027E+01  0.14710438900E+03  0.15737788899E+03  0.47000000000E+01 0. -1.
        -13    1    6    6    0    0  0.15822595769E+02  0.55366025126E+02  0.87266678838E+02  0.10455249643E+03  0.00000000000E+00 0.  1.
         14    1    6    6    0    0 -0.28695531420E+02  0.38312475545E+02  0.10488147009E+01  0.47878798211E+02  0.00000000000E+00 0. -1.
         -5    1    3    3    0  503  0.11391441187E+02 -0.27853920468E+02  0.80105434174E+02  0.85700504094E+02  0.47000000000E+01 0.  1.
         11    1    4    4    0    0 -0.61116350181E+02 -0.79695599504E+02 -0.27706719775E+02  0.10418377590E+03  0.00000000000E+00 0. -1.
        -12    1    4    4    0    0  0.69517964448E+01  0.10784597198E+02 -0.10117762322E+02  0.16340260859E+02  0.00000000000E+00 0.  1.
</event>
<event>
12    1  0.1681255E-001  0.1821089E+03  0.7818608E-02  0.1166215E+00
         21   -1    0    0  501  502  0.00000000000E+00  0.00000000000E+00  0.37810195926E+03  0.37810195926E+03  0.00000000000E+00 0. -1.
         21   -1    0    0  502  503 -0.00000000000E+00 -0.00000000000E+00 -0.87513383725E+02  0.87513383725E+02  0.00000000000E+00 0. -1.
         -6    2    1    2    0  503 -0.33911524042E+02  0.47508381146E+02  0.16509042551E+03  0.24445150460E+03  0.17057154441E+03 0.  0.
        -24    2    3    3    0    0 -0.25973967499E+02 -0.30524848583E+02  0.42072855907E+02  0.98480267096E+02  0.79509901487E+02 0.  0.
          6    2    1    2  501    0  0.33911524042E+02 -0.47508381146E+02  0.12549815002E+03  0.22116383839E+03  0.17250107249E+03 0.  0.
         24    2    5    5    0    0 -0.34864758660E+00 -0.65508921509E+02  0.15201662178E+02  0.10418014703E+03  0.79566777926E+02 0.  0.
          5    1    5    5  501    0  0.34260171628E+02  0.18000540363E+02  0.11029648784E+03  0.11698369136E+03  0.47000000000E+01 0. -1.
        -13    1    6    6    0    0  0.36630701784E+02 -0.18588526986E+02  0.16892707155E+02  0.44415146107E+02  0.00000000000E+00 0.  1.
         14    1    6    6    0    0 -0.36979349370E+02 -0.46920394523E+02 -0.16910449764E+01  0.59765000922E+02  0.00000000000E+00 0. -1.
         -5    1    3    3    0  503 -0.79375565427E+01  0.78033229729E+02  0.12301756961E+03  0.14597123750E+03  0.47000000000E+01 0.  1.
         11    1    4    4    0    0  0.17497198588E+02  0.15698691060E+02  0.23639149618E+01  0.23626022800E+02  0.00000000000E+00 0. -1.
        -12    1    4    4    0    0 -0.43471166087E+02 -0.46223539642E+02  0.39708940945E+02  0.74854244295E+02  0.00000000000E+00 0.  1.
</event>
<event>
12    1  0.1681255E-001  0.2008004E+03  0.7818608E-02  0.1149647E+00
         21   -1    0    0  501  502  0.00000000000E+00  0.00000000000E+00  0.13305328136E+03  0.13305328136E+03  0.00000000000E+00 0. -1.
         21   -1    0    0  502  503 -0.00000000000E+00 -0.00000000000E+00 -0.38805204201E+03  0.38805204201E+03  0.00000000000E+00 0.  1.
         -6    2    1    2    0  503  0.91465170375E+02 -0.38232298578E+02 -0.25170461534E+03  0.32027790728E+03  0.17145010487E+03 0.  0.
        -24    2    3    3    0    0  0.99415074500E+02 -0.59212467537E+02 -0.11714774363E+03  0.18378244878E+03  0.81626719231E+02 0.  0.
          6    2    1    2  501    0 -0.91465170375E+02  0.38232298578E+02 -0.32941453010E+01  0.20082741609E+03  0.17462306151E+03 0.  0.
         24    2    5    5    0    0 -0.97222768277E+01  0.38060011920E+02 -0.50755687286E+02  0.10618800413E+03  0.84597075925E+02 0.  0.
          5    1    5    5  501    0 -0.81742893547E+02  0.17228665795E+00  0.47461541985E+02  0.94639411958E+02  0.47000000000E+01 0. -1.
        -13    1    6    6    0    0  0.11156082219E+02 -0.23089720420E+02 -0.29550640402E+01  0.25813286560E+02  0.00000000000E+00 0.  1.
         14    1    6    6    0    0 -0.20878359046E+02  0.61149732340E+02 -0.47800623246E+02  0.80374717569E+02  0.00000000000E+00 0. -1.
         -5    1    3    3    0  503 -0.79499041250E+01  0.20980168959E+02 -0.13455687172E+03  0.13649545850E+03  0.47000000000E+01 0.  1.
         13    1    4    4    0    0  0.40025394676E+02 -0.46633628819E+02 -0.12368716089E+02  0.62687420536E+02  0.00000000000E+00 0. -1.
        -14    1    4    4    0    0  0.59389679824E+02 -0.12578838718E+02 -0.10477902754E+03  0.12109502824E+03  0.00000000000E+00 0.  1.
</event>
<event>
12    1  0.1681255E-001  0.2510620E+03  0.7818608E-02  0.1112654E+00
         21   -1    0    0  501  502  0.00000000000E+00  0.00000000000E+00  0.58790107979E+03  0.58790107979E+03  0.00000000000E+00 0. -1.
         21   -1    0    0  502  503 -0.00000000000E+00 -0.00000000000E+00 -0.11441630510E+03  0.11441630510E+03  0.00000000000E+00 0.  1.
         -6    2    1    2    0  503 -0.14360725792E+03 -0.11108001887E+03  0.14839665304E+03  0.29163964932E+03  0.17340791015E+03 0.  0.
        -24    2    3    3    0    0 -0.14438373315E+03 -0.12232649605E+03  0.17045141594E+03  0.26642876417E+03  0.78231497157E+02 0.  0.
          6    2    1    2  501    0  0.14360725792E+03  0.11108001887E+03  0.32508812164E+03  0.41067773557E+03  0.17324000849E+03 0.  0.
         24    2    5    5    0    0  0.24392470635E+02 -0.46058080903E+01  0.87771840783E+02  0.12095979821E+03  0.79442876695E+02 0.  0.
          5    1    5    5  501    0  0.11921478729E+03  0.11568582696E+03  0.23731628086E+03  0.28971793736E+03  0.47000000000E+01 0. -1.
        -11    1    6    6    0    0 -0.97805609079E+01  0.23218733522E+02  0.29412712967E+01  0.25365725593E+02  0.00000000000E+00 0.  1.
         12    1    6    6    0    0  0.34173031543E+02 -0.27824541612E+02  0.84830569486E+02  0.95594072620E+02  0.00000000000E+00 0. -1.
         -5    1    3    3    0  503  0.77647523202E+00  0.11246477184E+02 -0.22054762905E+02  0.25210885141E+02  0.47000000000E+01 0.  1.
         13    1    4    4    0    0 -0.15015558455E+03 -0.12748611301E+03  0.16281671897E+03  0.25555565452E+03  0.00000000000E+00 0. -1.
        -14    1    4    4    0    0  0.57718513929E+01  0.51596169609E+01  0.76346969751E+01  0.10873109656E+02  0.00000000000E+00 0.  1.
</event>
<event>
12    1  0.1681255E-001  0.2216273E+03  0.7818608E-02  0.1133047E+00
         21   -1    0    0  501  502  0.00000000000E+00  0.00000000000E+00  0.68070544823E+03  0.68070544823E+03  0.00000000000E+00 0.  1.
         21   -1    0    0  502  503 -0.00000000000E+00 -0.00000000000E+00 -0.93579105102E+02  0.93579105102E+02  0.00000000000E+00 0.  1.
         -6    2    1    2    0  503 -0.13594431291E+03  0.30620203056E+02  0.10656725014E+03  0.24591718034E+03  0.17233754012E+03 0.  0.
        -24    2    3    3    0    0 -0.97260341412E+02  0.51408919763E+02  0.13650895138E+03  0.19255787126E+03  0.79632838285E+02 0.  0.
          6    2    1    2  501    0  0.13594431291E+03 -0.30620203056E+02  0.48055909299E+03  0.52836737299E+03  0.16975448725E+03 0.  0.
         24    2    5    5    0    0  0.88349280022E+02  0.33383999411E+02  0.38043050279E+03  0.40026721817E+03  0.81033275853E+02 0.  0.
          5    1    5    5  501    0  0.47595032890E+02 -0.64004202467E+02  0.10012859020E+03  0.12810015482E+03  0.47000000000E+01 0. -1.
        -11    1    6    6    0    0  0.58891089846E+02 -0.20889061165E+02  0.20285233823E+03  0.21225829658E+03  0.00000000000E+00 0.  1.
         12    1    6    6    0    0  0.29458190176E+02  0.54273060576E+02  0.17757816456E+03  0.18800892160E+03  0.00000000000E+00 0. -1.
         -5    1    3    3    0  503 -0.38683971501E+02 -0.20788716707E+02 -0.29941701235E+02  0.53359309087E+02  0.47000000000E+01 0.  1.
         11    1    4    4    0    0 -0.12735952346E+02  0.44226686603E+02  0.74159024770E+02  0.87279810064E+02  0.00000000000E+00 0. -1.
        -12    1    4    4    0    0 -0.84524389066E+02  0.71822331599E+01  0.62349926610E+02  0.10527806119E+03  0.00000000000E+00 0.  1.
</event>
<event>
12    1  0.1681255E-001  0.2291979E+03  0.7818608E-02  0.1127381E+00
         21   -1    0    0  501  502  0.00000000000E+00  0.00000000000E+00  0.14692967350E+04  0.14692967350E+04  0.00000000000E+00 0. -1.
         21   -1    0    0  502  503 -0.00000000000E+00 -0.00000000000E+00 -0.43214030230E+02  0.43214030230E+02  0.00000000000E+00 0. -1.
         -6    2    1    2    0  503  0.54814906035E+02 -0.14016835841E+03  0.39684576746E+03  0.45827748662E+03  0.17285788662E+03 0.  0.
        -24    2    3    3    0    0  0.10042858291E+03 -0.10297110860E+03  0.33143633265E+03  0.37015979785E+03  0.80493998981E+02 0.  0.
          6    2    1    2  501    0 -0.54814906035E+02  0.14016835841E+03  0.10292369373E+04  0.10542332786E+04  0.17154384276E+03 0.  0.
         24    2    5    5    0    0  0.32819576797E+02  0.51296917448E+02  0.53279899297E+03  0.54232444084E+03  0.80824092146E+02 0.  0.
          5    1    5    5  501    0 -0.87634482832E+02  0.88871440963E+02  0.49643794432E+03  0.51190883775E+03  0.47000000000E+01 0. -1.
        -13    1    6    6    0    0  0.14038327541E+02 -0.20751320876E+02  0.18156776702E+03  0.18328815013E+03  0.00000000000E+00 0.  1.
         14    1    6    6    0    0  0.18781249256E+02  0.72048238323E+02  0.35123122594E+03  0.35903629071E+03  0.00000000000E+00 0. -1.
         -5    1    3    3    0  503 -0.45613676878E+02 -0.37197249810E+02  0.65409434816E+02  0.88117688773E+02  0.47000000000E+01 0.  1.
         13    1    4    4    0    0  0.49677343474E+02 -0.99730499418E+01  0.58555189592E+02  0.77433909936E+02  0.00000000000E+00 0. -1.
        -14    1    4    4    0    0  0.50751239438E+02 -0.92998058659E+02  0.27288114305E+03  0.29272588791E+03  0.00000000000E+00 0.  1.
</event>
<event>
12    1  0.1681255E-001  0.1956656E+03  0.7818608E-02  0.1153508E+00
         21   -1    0    0  503  502  0.00000000000E+00  0.00000000000E+00  0.17214221746E+03  0.17214221746E+03  0.00000000000E+00 0.  1.
         21   -1    0    0  501  503 -0.00000000000E+00 -0.00000000000E+00 -0.22831455248E+03  0.22831455248E+03  0.00000000000E+00 0.  1.
          6    2    1    2  501    0  0.33492814723E+02 -0.86164688460E+02 -0.61160621363E+02  0.20500159107E+03  0.17244972763E+03 0.  0.
         24    2    3    3    0    0 -0.10830296315E+02 -0.99216799229E+02 -0.84001941389E+02  0.15324531929E+03  0.80414757104E+02 0.  0.
         -6    2    1    2    0  502 -0.33492814723E+02  0.86164688460E+02  0.49882863475E+01  0.19545517887E+03  0.17213867018E+03 0.  0.
        -24    2    5    5    0    0 -0.35648818356E+02 -0.61095918028E+01  0.41610061570E+02  0.96044738925E+02  0.78644957176E+02 0.  0.
          5    1    3    3  501    0  0.44323111038E+02  0.13052110769E+02  0.22841320025E+02  0.51756271776E+02  0.47000000000E+01 0. -1.
        -11    1    4    4    0    0 -0.71130443326E+01 -0.96907022500E+02 -0.33838383328E+02  0.10289121729E+03  0.00000000000E+00 0.  1.
         12    1    4    4    0    0 -0.37172519820E+01 -0.23097767285E+01 -0.50163558061E+02  0.50354102000E+02  0.00000000000E+00 0. -1.
         -5    1    5    5    0  502  0.21560036327E+01  0.92274280263E+02 -0.36621775223E+02  0.99410439946E+02  0.47000000000E+01 0.  1.
         13    1    6    6    0    0 -0.87221605381E+01 -0.26894677829E+02 -0.13461702670E+02  0.31314808299E+02  0.00000000000E+00 0. -1.
        -14    1    6    6    0    0 -0.26926657818E+02  0.20785086026E+02  0.55071764241E+02  0.64729930627E+02  0.00000000000E+00 0.  1.
</event>
<event>
12    1  0.1681255E-001  0.1792576E+03  0.7818608E-02  0.1169084E+00
         21   -1    0    0  503  502  0.00000000000E+00  0.00000000000E+00  0.52214864703E+03  0.52214864703E+03  0.00000000000E+00 0. -1.
         21   -1    0    0  501  503 -0.00000000000E+00 -0.00000000000E+00 -0.97898245980E+02  0.97898245980E+02  0.00000000000E+00 0. -1.
          6    2    1    2  501    0  0.45975100717E+02 -0.73500559593E+01  0.22016822446E+02  0.18060465307E+03  0.17310565280E+03 0.  0.
         24    2    3    3    0    0 -0.96729731094E+01  0.32538297934E+02  0.55826284481E+02  0.10410002171E+03  0.81042786471E+02 0.  0.
         -6    2    1    2    0  502 -0.45975100717E+02  0.73500559593E+01  0.40223357860E+03  0.43944223994E+03  0.17073340997E+03 0.  0.
        -24    2    5    5    0    0 -0.65003912371E+02  0.30266002526E+02  0.15229881890E+03  0.18769492538E+03  0.83023582451E+02 0.  0.
          5    1    3    3  501    0  0.55648073827E+02 -0.39888353893E+02 -0.33809462035E+02  0.76504631363E+02  0.47000000000E+01 0. -1.
        -11    1    4    4    0    0 -0.20362718128E+01  0.15675822745E+02  0.75470511613E+02  0.77108209321E+02  0.00000000000E+00 0.  1.
         12    1    4    4    0    0 -0.76367012966E+01  0.16862475189E+02 -0.19644227132E+02  0.26991812385E+02  0.00000000000E+00 0. -1.
         -5    1    5    5    0  502  0.19028811654E+02 -0.22915946566E+02  0.24993475970E+03  0.25174731456E+03  0.47000000000E+01 0.  1.
         13    1    6    6    0    0 -0.10972415621E+02 -0.14767159598E+02  0.95589354092E+02  0.97343656819E+02  0.00000000000E+00 0. -1.
        -14    1    6    6    0    0 -0.54031496750E+02  0.45033162123E+02  0.56709464806E+02  0.90351268560E+02  0.00000000000E+00 0.  1.
</event>
<event>
12    1  0.1681255E-001  0.3025851E+03  0.7818608E-02  0.1084095E+00
         21   -1    0    0  503  502  0.00000000000E+00  0.00000000000E+00  0.18144729707E+03  0.18144729707E+03  0.00000000000E+00 0. -1.
         21   -1    0    0  501  503 -0.00000000000E+00 -0.00000000000E+00 -0.52244739691E+03  0.52244739691E+03  0.00000000000E+00 0. -1.
          6    2    1    2  501    0  0.14914954416E+03  0.19877466749E+03 -0.23919680999E+03  0.38571084402E+03  0.17262904253E+03 0.  0.
         24    2    3    3    0    0  0.12795635031E+03  0.56590021588E+02 -0.13304309159E+03  0.20694751745E+03  0.74508741975E+02 0.  0.
         -6    2    1    2    0  502 -0.14914954416E+03 -0.19877466749E+03 -0.10180328985E+03  0.31818384997E+03  0.17064611803E+03 0.  0.
        -24    2    5    5    0    0 -0.13066456048E+03 -0.19912410309E+03 -0.40902209758E+02  0.25436497907E+03  0.79403501290E+02 0.  0.
          5    1    3    3  501    0  0.21193193846E+02  0.14218464590E+03 -0.10615371841E+03  0.17876332657E+03  0.47000000000E+01 0. -1.
        -13    1    4    4    0    0  0.98660172388E+02  0.62218580844E+02 -0.13328386939E+03  0.17711457099E+03  0.00000000000E+00 0.  1.
         14    1    4    4    0    0  0.29296177925E+02 -0.56285592566E+01  0.24077780520E+00  0.29832946456E+02  0.00000000000E+00 0. -1.
         -5    1    5    5    0  502 -0.18484983675E+02  0.34943559767E+00 -0.60901080090E+02  0.63818870899E+02  0.47000000000E+01 0.  1.
         13    1    6    6    0    0 -0.61326966732E+02 -0.12688508252E+03 -0.58700062972E+02  0.15266472549E+03  0.00000000000E+00 0. -1.
        -14    1    6    6    0    0 -0.69337593752E+02 -0.72239020561E+02  0.17797853215E+02  0.10170025358E+03  0.00000000000E+00 0.  1.
</event>
<event>
12    1  0.1681255E-001  0.2093048E+03  0.7818608E-02  0.1142131E+00
         21   -1    0    0  501  502  0.00000000000E+00  0.00000000000E+00  0.46914559204E+03  0.46914559204E+03  0.00000000000E+00 0.  1.
         21   -1    0    0  502  503 -0.00000000000E+00 -0.00000000000E+00 -0.24442402816E+03  0.24442402816E+03  0.00000000000E+00 0.  1.
         -6    2    1    2    0  503  0.10633321860E+03 -0.54085285352E+02 -0.16814391182E+03  0.26842721028E+03  0.17189770407E+03 0.  0.
        -24    2    3    3    0    0  0.75686705044E+02 -0.87086665843E+02 -0.60910315288E+02  0.15202517364E+03  0.78032187098E+02 0.  0.
          6    2    1    2  501    0 -0.10633321860E+03  0.54085285352E+02  0.39286547570E+03  0.44514240992E+03  0.17197823014E+03 0.  0.
         24    2    5    5    0    0 -0.13725222113E+03  0.63287185118E+02  0.28908006924E+03  0.33635748325E+03  0.82009939052E+02 0.  0.
          5    1    5    5  501    0  0.30919002524E+02 -0.92018997662E+01  0.10378540646E+03  0.10878492667E+03  0.47000000000E+01 0. -1.
        -11    1    6    6    0    0 -0.44775061354E+02  0.47860080365E+02  0.60086700680E+02  0.88914593912E+02  0.00000000000E+00 0.  1.
         12    1    6    6    0    0 -0.92477159772E+02  0.15427104753E+02  0.22899336856E+03  0.24744288934E+03  0.00000000000E+00 0. -1.
         -5    1    3    3    0  503  0.30646513558E+02  0.33001380490E+02 -0.10723359653E+03  0.11640203664E+03  0.47000000000E+01 0.  1.
         13    1    4    4    0    0 -0.45084051884E+01 -0.28620339982E+01  0.13119641518E+02  0.14164813784E+02  0.00000000000E+00 0. -1.
        -14    1    4    4    0    0  0.80195110233E+02 -0.84224631844E+02 -0.74029956807E+02  0.13786035986E+03  0.00000000000E+00 0.  1.
</event>
<event>
12    1  0.1681255E-001  0.1862905E+03  0.7818608E-02  0.1161869E+00
         21   -1    0    0  503  502  0.00000000000E+00  0.00000000000E+00  0.18909968907E+03  0.18909968907E+03  0.00000000000E+00 0.  1.
         21   -1    0    0  501  503 -0.00000000000E+00 -0.00000000000E+00 -0.50343651624E+03  0.50343651624E+03  0.00000000000E+00 0. -1.
          6    2    1    2  501    0 -0.15614049152E+01 -0.73609404782E+02 -0.43324506625E+03  0.47159881940E+03  0.17112386327E+03 0.  0.
         24    2    3    3    0    0  0.59677155199E+02 -0.19353473686E+02 -0.27463318794E+03  0.29306679079E+03  0.80801213761E+02 0.  0.
         -6    2    1    2    0  502  0.15614049152E+01  0.73609404782E+02  0.11890823907E+03  0.22093738591E+03  0.17103618540E+03 0.  0.
        -24    2    5    5    0    0 -0.47916287700E+02 -0.50732073674E+01  0.46831451273E+02  0.10322524184E+03  0.78361710455E+02 0.  0.
          5    1    3    3  501    0 -0.61238560114E+02 -0.54255931096E+02 -0.15861187830E+03  0.17853202862E+03  0.47000000000E+01 0. -1.
        -13    1    4    4    0    0  0.15964952273E+02  0.13199814156E+00 -0.17985706235E+01  0.16066486264E+02  0.00000000000E+00 0.  1.
         14    1    4    4    0    0  0.43712202926E+02 -0.19485471828E+02 -0.27283461732E+03  0.27700030452E+03  0.00000000000E+00 0. -1.
         -5    1    5    5    0  502  0.49477692615E+02  0.78682612150E+02  0.72076787798E+02  0.11771214407E+03  0.47000000000E+01 0.  1.
         11    1    6    6    0    0 -0.39525189374E+02  0.33672205195E+02  0.31428891395E+02  0.60694589644E+02  0.00000000000E+00 0. -1.
        -12    1    6    6    0    0 -0.83910983256E+01 -0.38745412562E+02  0.15402559878E+02  0.42530652200E+02  0.00000000000E+00 0.  1.
</event>
<event>
12    1  0.1681255E-001  0.1988912E+03  0.7818608E-02  0.1150941E+00
         21   -1    0    0  501  502  0.00000000000E+00  0.00000000000E+00  0.82638083477E+03  0.82638083477E+03  0.00000000000E+00 0. -1.
         21   -1    0    0  502  503 -0.00000000000E+00 -0.00000000000E+00 -0.52520677258E+03  0.52520677258E+03  0.00000000000E+00 0. -1.
         -6    2    1    2    0  503  0.93606493865E+02  0.44906263643E+01 -0.49391654555E+03  0.53199820883E+03  0.17402930447E+03 0.  0.
        -24    2    3    3    0    0  0.58651715559E+02 -0.15005206906E+02 -0.12314823014E+03  0.15904625783E+03  0.80405507102E+02 0.  0.
          6    2    1    2  501    0 -0.93606493865E+02 -0.44906263643E+01  0.79509060773E+03  0.81958939852E+03  0.17542909179E+03 0.  0.
         24    2    5    5    0    0 -0.10812628363E+03 -0.54260940128E+02  0.52102799022E+03  0.54062646775E+03  0.78557419775E+02 0.  0.
          5    1    5    5  501    0  0.14519789770E+02  0.49770313764E+02  0.27406261751E+03  0.27896293077E+03  0.47000000000E+01 0. -1.
        -13    1    6    6    0    0 -0.36512595344E+01  0.17254853010E+02  0.63081592481E+02  0.65500755404E+02  0.00000000000E+00 0.  1.
         14    1    6    6    0    0 -0.10447502410E+03 -0.71515793138E+02  0.45794639774E+03  0.47512571234E+03  0.00000000000E+00 0. -1.
         -5    1    3    3    0  503  0.34954778306E+02  0.19495833270E+02 -0.37076831541E+03  0.37295195100E+03  0.47000000000E+01 0.  1.
         11    1    4    4    0    0  0.26483278827E+02 -0.25263269341E+02 -0.11962453453E+03  0.12509846560E+03  0.00000000000E+00 0. -1.
        -12    1    4    4    0    0  0.32168436732E+02  0.10258062435E+02 -0.35236956129E+01  0.33947792232E+02  0.00000000000E+00 0.  1.
</event>
<event>
12    1  0.1681255E-001  0.2411098E+03  0.7818608E-02  0.1121846E+00
         21   -1    0    0  503  502  0.00000000000E+00  0.00000000000E+00  0.12276395937E+03  0.12276395937E+03  0.00000000000E+00 0.  1.
         21   -1    0    0  501  503 -0.00000000000E+00 -0.00000000000E+00 -0.61065911026E+03  0.61065911026E+03  0.00000000000E+00 0.  1.
          6    2    1    2  501    0 -0.14413009623E+03  0.21099107669E+01 -0.44263666722E+03  0.50404480573E+03  0.19327703085E+03 0.  0.
         24    2    3    3    0    0 -0.11445482729E+03 -0.74629800765E+02 -0.27267973364E+03  0.31516110028E+03  0.79389970027E+02 0.  0.
         -6    2    1    2    0  502  0.14413009623E+03 -0.21099107669E+01 -0.45258483671E+02  0.22937826390E+03  0.17259235569E+03 0.  0.
        -24    2    5    5    0    0  0.67435773092E+02 -0.35839400465E+01  0.41487939001E+02  0.11348510703E+03  0.81223102105E+02 0.  0.
          5    1    3    3  501    0 -0.29675268941E+02  0.76739711532E+02 -0.16995693358E+03  0.18888370545E+03  0.47000000000E+01 0. -1.
        -11    1    4    4    0    0 -0.39005291900E+02 -0.18258455168E+02 -0.17194244314E+03  0.17725402036E+03  0.00000000000E+00 0.  1.
         12    1    4    4    0    0 -0.75449535391E+02 -0.56371345597E+02 -0.10073729050E+03  0.13790707992E+03  0.00000000000E+00 0. -1.
         -5    1    5    5    0  502  0.76694323141E+02  0.14740292797E+01 -0.86746422672E+02  0.11589315688E+03  0.47000000000E+01 0.  1.
         13    1    6    6    0    0  0.23028046747E+01  0.31517631520E+02  0.13828462445E+02  0.34494787717E+02  0.00000000000E+00 0. -1.
        -14    1    6    6    0    0  0.65132968417E+02 -0.35101571567E+02  0.27659476556E+02  0.78990319310E+02  0.00000000000E+00 0.  1.
</event>
<event>
12    1  0.1681255E-001  0.2155344E+03  0.7818608E-02  0.1137344E+00
         21   -1    0    0  501  502  0.00000000000E+00  0.00000000000E+00  0.10899359695E+03  0.10899359695E+03  0.00000000000E+00 0.  1.
         21   -1    0    0  502  503 -0.00000000000E+00 -0.00000000000E+00 -0.69273458943E+03  0.69273458943E+03  0.00000000000E+00 0.  1.
         -6    2    1    2    0  503 -0.10744168614E+03  0.71479771134E+02 -0.54112435282E+03  0.58246944878E+03  0.17263261555E+03 0.  0.
        -24    2    3    3    0    0 -0.46270243094E+02  0.83687561784E+02 -0.19809472737E+03  0.23378278495E+03  0.79172761326E+02 0.  0.
          6    2    1    2  501    0  0.10744168614E+03 -0.71479771134E+02 -0.42616639656E+02  0.21925873760E+03  0.17206144959E+03 0.  0.
         24    2    5    5    0    0  0.66843141957E+02 -0.82656465092E+02 -0.86178189373E+02  0.15848984019E+03  0.79951562037E+02 0.  0.
          5    1    5    5  501    0  0.40598544186E+02  0.11176693958E+02  0.43561549717E+02  0.60768897404E+02  0.47000000000E+01 0. -1.
        -11    1    6    6    0    0  0.73058392221E+02 -0.51275946860E+02 -0.89410565873E+02  0.12633685405E+03  0.00000000000E+00 0.  1.
         12    1    6    6    0    0 -0.62152502631E+01 -0.31380518232E+02  0.32323765000E+01  0.32152986147E+02  0.00000000000E+00 0. -1.
         -5    1    3    3    0  503 -0.61171443050E+02 -0.12207790650E+02 -0.34302962545E+03  0.34868666383E+03  0.47000000000E+01 0.  1.
         11    1    4    4    0    0 -0.90497017382E+01  0.30584569762E+02 -0.79318066880E+01  0.32866800367E+02  0.00000000000E+00 0. -1.
        -12    1    4    4    0    0 -0.37220541356E+02  0.53102992023E+02 -0.19016292068E+03  0.20091598458E+03  0.00000000000E+00 0.  1.
</event>
<event>
12    1  0.1681255E-001  0.2193175E+03  0.7818608E-02  0.1134737E+00
         21   -1    0    0  503  502  0.00000000000E+00  0.00000000000E+00  0.10166546630E+04  0.10166546630E+04  0.00000000000E+00 0. -1.
         21   -1    0    0  501  503 -0.00000000000E+00 -0.00000000000E+00 -0.53746478242E+02  0.53746478242E+02  0.00000000000E+00 0.  1.
          6    2    1    2  501    0  0.13330379124E+03 -0.18733676159E+02  0.67045543697E+03  0.70484845985E+03  0.17082156481E+03 0.  0.
         24    2    3    3    0    0  0.72589891172E+01  0.13081300626E+02  0.34303400435E+03  0.35253273577E+03  0.79894857806E+02 0.  0.
         -6    2    1    2    0  502 -0.13330379124E+03  0.18733676159E+02  0.29245274776E+03  0.36555268137E+03  0.17314531990E+03 0.  0.
        -24    2    5    5    0    0 -0.16358690450E+03  0.26573033619E+02  0.27001188735E+03  0.32676860358E+03  0.80028117163E+02 0.  0.
          5    1    3    3  501    0  0.12604480212E+03 -0.31814976784E+02  0.32742143262E+03  0.35231572407E+03  0.47000000000E+01 0. -1.
        -13    1    4    4    0    0  0.11698220176E+02  0.33914437086E+02  0.31640542053E+03  0.31843276769E+03  0.00000000000E+00 0.  1.
         14    1    4    4    0    0 -0.44392310585E+01 -0.20833136460E+02  0.26628583818E+02  0.34099968084E+02  0.00000000000E+00 0. -1.
         -5    1    5    5    0  502  0.30283113259E+02 -0.78393574604E+01  0.22440860413E+02  0.38784077791E+02  0.47000000000E+01 0.  1.
         13    1    6    6    0    0 -0.12826815016E+03  0.54118986536E+02  0.20692785712E+03  0.24940072394E+03  0.00000000000E+00 0. -1.
        -14    1    6    6    0    0 -0.35318754332E+02 -0.27545952917E+02  0.63084030233E+02  0.77367879641E+02  0.00000000000E+00 0.  1.
</event>
<event>
12    1  0.1681255E-001  0.2144840E+03  0.7818608E-02  0.1138732E+00
         21   -1    0    0  501  502  0.00000000000E+00  0.00000000000E+00  0.22201570750E+03  0.22201570750E+03  0.00000000000E+00 0.  1.
         21   -1    0    0  502  503 -0.00000000000E+00 -0.00000000000E+00 -0.21864118988E+03  0.21864118988E+03  0.00000000000E+00 0.  1.
         -6    2    1    2    0  503 -0.51437904506E+02  0.11663463661E+03 -0.55539944069E+02  0.21822869760E+03  0.16819507304E+03 0.  0.
        -24    2    3    3    0    0 -0.90778258119E+02  0.45119187409E+02 -0.34855844752E+02  0.13389575706E+03  0.80229113322E+02 0.  0.
          6    2    1    2  501    0  0.51437904506E+02 -0.11663463661E+03  0.58914461690E+02  0.22242819978E+03  0.17249317025E+03 0.  0.
         24    2    5    5    0    0 -0.28029084489E+01 -0.17650185546E+02  0.66122551874E+02  0.10922911009E+03  0.85084788759E+02 0.  0.
          5    1    5    5  501    0  0.54240812955E+02 -0.98984451065E+02 -0.72080901841E+01  0.11319908969E+03  0.47000000000E+01 0. -1.
        -11    1    6    6    0    0 -0.12275269974E+02 -0.30850524135E+02  0.80786096163E+02  0.87343176182E+02  0.00000000000E+00 0.  1.
         12    1    6    6    0    0  0.94723615252E+01  0.13200338589E+02 -0.14663544289E+02  0.21885933904E+02  0.00000000000E+00 0. -1.
         -5    1    3    3    0  503  0.39340353614E+02  0.71515449201E+02 -0.20684099317E+02  0.84332940548E+02  0.47000000000E+01 0.  1.
         13    1    4    4    0    0 -0.38903701006E+02  0.22343648119E+02  0.25099448691E+02  0.51407381648E+02  0.00000000000E+00 0. -1.
        -14    1    4    4    0    0 -0.51874557113E+02  0.22775539290E+02 -0.59955293443E+02  0.82488375408E+02  0.00000000000E+00 0.  1.
</event>
<event>
12    1  0.1681255E-001  0.1919841E+03  0.7818608E-02  0.1156753E+00
         21   -1    0    0  501  502  0.00000000000E+00  0.00000000000E+00  0.11792334777E+03  0.11792334777E+03  0.00000000000E+00 0. -1.
         21   -1    0    0  502  503 -0.00000000000E+00 -0.00000000000E+00 -0.10066496416E+04  0.10066496416E+04  0.00000000000E+00 0.  1.
         -6    2    1    2    0  503 -0.88314062096E+02  0.16505315860E+02 -0.91132484482E+03  0.93126342122E+03  0.16931269267E+03 0.  0.
        -24    2    3    3    0    0 -0.11147419055E+03 -0.32918015602E+02 -0.60373624418E+03  0.61883439810E+03  0.70345353980E+02 0.  0.
          6    2    1    2  501    0  0.88314062096E+02 -0.16505315860E+02  0.22598551014E+02  0.19330956813E+03  0.16966465633E+03 0.  0.
         24    2    5    5    0    0  0.67649460383E+02 -0.38950098766E+02  0.72824000978E+02  0.13435636747E+03  0.81576581679E+02 0.  0.
          5    1    5    5  501    0  0.20664601714E+02  0.22444782906E+02 -0.50225449964E+02  0.58953200657E+02  0.47000000000E+01 0. -1.
        -13    1    6    6    0    0 -0.15039531546E+02 -0.14357231390E+01  0.30792667409E+02  0.34299229965E+02  0.00000000000E+00 0.  1.
         14    1    6    6    0    0  0.82688991928E+02 -0.37514375627E+02  0.42031333569E+02  0.10005713751E+03  0.00000000000E+00 0. -1.
         -5    1    3    3    0  503  0.23160128453E+02  0.49423331462E+02 -0.30758860064E+03  0.31242902312E+03  0.47000000000E+01 0.  1.
         11    1    4    4    0    0 -0.11338382717E+02 -0.66932050258E+01 -0.24786072598E+03  0.24821018794E+03  0.00000000000E+00 0. -1.
        -12    1    4    4    0    0 -0.10013580783E+03 -0.26224810577E+02 -0.35587551820E+03  0.37062421016E+03  0.00000000000E+00 0.  1.
</event>
<event>
12    1  0.1681255E-001  0.2287283E+03  0.7818608E-02  0.1127577E+00
         21   -1    0    0  501  502  0.00000000000E+00  0.00000000000E+00  0.22335976971E+04  0.22335976971E+04  0.00000000000E+00 0. -1.
         21   -1    0    0  502  503 -0.00000000000E+00 -0.00000000000E+00 -0.29081715505E+02  0.29081715505E+02  0.00000000000E+00 0. -1.
         -6    2    1    2    0  503  0.10126483631E+03 -0.11236261550E+03  0.16027338650E+04  0.16189726560E+04  0.17157125168E+03 0.  0.
        -24    2    3    3    0    0  0.10351141698E+03 -0.43355515322E+02  0.13509966374E+04  0.13578965200E+04  0.78081564676E+02 0.  0.
          6    2    1    2  501    0 -0.10126483631E+03  0.11236261550E+03  0.60178211658E+03  0.64370675659E+03  0.17127973673E+03 0.  0.
         24    2    5    5    0    0 -0.11114555162E+02  0.15584245828E+02  0.12877251684E+03  0.15253133226E+03  0.79479835002E+02 0.  0.
          5    1    5    5  501    0 -0.90150281150E+02  0.96778369675E+02  0.47300959974E+03  0.49117542434E+03  0.47000000000E+01 0. -1.
        -11    1    6    6    0    0  0.26146597950E+02  0.28358086786E+02  0.40821053180E+02  0.56162122941E+02  0.00000000000E+00 0.  1.
         12    1    6    6    0    0 -0.37261153112E+02 -0.12773840957E+02  0.87951463661E+02  0.96369209316E+02  0.00000000000E+00 0. -1.
         -5    1    3    3    0  503 -0.22465806637E+01 -0.69007100181E+02  0.25173722758E+03  0.26107613592E+03  0.47000000000E+01 0.  1.
         13    1    4    4    0    0  0.58736188137E+02 -0.58548373284E+02  0.10429682648E+04  0.10462603181E+04  0.00000000000E+00 0. -1.
        -14    1    4    4    0    0  0.44775228838E+02  0.15192857962E+02  0.30802837262E+03  0.31163620199E+03  0.00000000000E+00 0.  1.
</event>
<event>
12    1  0.1681255E-001  0.2345444E+03  0.7818608E-02  0.1123702E+00
         21   -1    0    0  503  502  0.00000000000E+00  0.00000000000E+00  0.85792340977E+02  0.85792340977E+02  0.00000000000E+00 0.  1.
         21   -1    0    0  501  503 -0.00000000000E+00 -0.00000000000E+00 -0.63805419392E+03  0.63805419392E+03  0.00000000000E+00 0. -1.
          6    2    1    2  501    0 -0.87215972123E+02 -0.13296973454E+03 -0.28522141741E+03  0.36927273017E+03  0.17240509332E+03 0.  0.
         24    2    3    3    0    0 -0.26797899219E+02 -0.11212135686E+03 -0.95794926778E+02  0.16929902256E+03  0.78715722547E+02 0.  0.
         -6    2    1    2    0  502  0.87215972123E+02  0.13296973454E+03 -0.26704043554E+03  0.35457380472E+03  0.17065876095E+03 0.  0.
        -24    2    5    5    0    0  0.28565349415E+02  0.18441214642E+02 -0.17732970262E+03  0.19764457540E+03  0.80383438413E+02 0.  0.
          5    1    3    3  501    0 -0.60418072904E+02 -0.20848377688E+02 -0.18942649063E+03  0.19997370762E+03  0.47000000000E+01 0. -1.
        -13    1    4    4    0    0 -0.70120438177E+01 -0.69701644709E+01  0.13247073483E+02  0.16529879222E+02  0.00000000000E+00 0.  1.
         14    1    4    4    0    0 -0.19785855401E+02 -0.10515119238E+03 -0.10904200026E+03  0.15276914333E+03  0.00000000000E+00 0. -1.
         -5    1    5    5    0  502  0.58650622708E+02  0.11452851990E+03 -0.89710732919E+02  0.15692922932E+03  0.47000000000E+01 0.  1.
         13    1    6    6    0    0 -0.80232603312E+01  0.35063873982E+02 -0.13314161827E+03  0.13791496830E+03  0.00000000000E+00 0. -1.
        -14    1    6    6    0    0  0.36588609746E+02 -0.16622659340E+02 -0.44188084348E+02  0.59729607106E+02  0.00000000000E+00 0.  1.
</event>
<event>
12    1  0.1681255E-001  0.2084212E+03  0.7818608E-02  0.1144007E+00
         21   -1    0    0  503  502  0.00000000000E+00  0.00000000000E+00  0.14779305299E+03  0.14779305299E+03  0.00000000000E+00 0. -1.
         21   -1    0    0  501  503 -0.00000000000E+00 -0.00000000000E+00 -0.39566135261E+03  0.39566135261E+03  0.00000000000E+00 0.  1.
          6    2    1    2  501    0  0.60712951554E+02 -0.94785908563E+02 -0.26587058519E+03  0.33425714705E+03  0.16843467973E+03 0.  0.
         24    2    3    3    0    0  0.52083670625E+02 -0.12947663807E+03 -0.24356333123E+03  0.29185885955E+03  0.79884848540E+02 0.  0.
         -6    2    1    2    0  502 -0.60712951554E+02  0.94785908563E+02  0.18002285574E+02  0.20919725855E+03  0.17541088835E+03 0.  0.
        -24    2    5    5    0    0  0.10777475938E+02  0.10913167311E+03  0.15373195003E+02  0.13608307183E+03  0.79097352983E+02 0.  0.
          5    1    3    3  501    0  0.86292809284E+01  0.34690729510E+02 -0.22307253959E+02  0.42398287495E+02  0.47000000000E+01 0. -1.
        -11    1    4    4    0    0  0.18324617872E+02  0.34732390151E+01 -0.59177611096E+02  0.62047116488E+02  0.00000000000E+00 0.  1.
         12    1    4    4    0    0  0.33759052753E+02 -0.13294987709E+03 -0.18438572014E+03  0.22981174307E+03  0.00000000000E+00 0. -1.
         -5    1    5    5    0  502 -0.71490427492E+02 -0.14345764550E+02  0.26290905708E+01  0.73114186727E+02  0.47000000000E+01 0.  1.
         11    1    6    6    0    0  0.11575093071E+02  0.15498397373E+02  0.35389288243E+02  0.40330941262E+02  0.00000000000E+00 0. -1.
        -12    1    6    6    0    0 -0.79761713230E+00  0.93633275741E+02 -0.20016093240E+02  0.95752130564E+02  0.00000000000E+00 0.  1.
</event>
<event>
12    1  0.1681255E-001  0.1805925E+03  0.7818608E-02  0.1167241E+00
         21   -1    0    0  503  502  0.00000000000E+00  0.00000000000E+00  0.53318718881E+02  0.53318718881E+02  0.00000000000E+00 0.  1.
         21   -1    0    0  501  503 -0.00000000000E+00 -0.00000000000E+00 -0.67358892383E+03  0.67358892383E+03  0.00000000000E+00 0.  1.
          6    2    1    2  501    0 -0.49087907275E+02  0.29427093916E+02 -0.19978774513E+03  0.26928427955E+03  0.17124048473E+03 0.  0.
         24    2    3    3    0    0 -0.82265373240E+02 -0.17073034855E+02 -0.93852087803E+02  0.14883736295E+03  0.79279669978E+02 0.  0.
         -6    2    1    2    0  502  0.49087907275E+02 -0.29427093916E+02 -0.42048245982E+03  0.45762336316E+03  0.17128358649E+03 0.  0.
        -24    2    5    5    0    0  0.61073818479E+02 -0.66140957767E+02 -0.20203970611E+03  0.23574299785E+03  0.81548026280E+02 0.  0.
          5    1    3    3  501    0  0.33177465965E+02  0.46500128771E+02 -0.10593565733E+03  0.12044691659E+03  0.47000000000E+01 0. -1.
        -13    1    4    4    0    0 -0.68772642003E+02  0.56212921111E+01 -0.22215198353E+02  0.72489932066E+02  0.00000000000E+00 0.  1.
         14    1    4    4    0    0 -0.13492731237E+02 -0.22694326967E+02 -0.71636889451E+02  0.76347430886E+02  0.00000000000E+00 0. -1.
         -5    1    5    5    0  502 -0.11985911205E+02  0.36713863852E+02 -0.21844275371E+03  0.22188036532E+03  0.47000000000E+01 0.  1.
         11    1    6    6    0    0  0.30809576146E+02 -0.12524182024E+02 -0.11004118696E+02  0.35031068295E+02  0.00000000000E+00 0. -1.
        -12    1    6    6    0    0  0.30264242334E+02 -0.53616775744E+02 -0.19103558741E+03  0.20071192955E+03  0.00000000000E+00 0.  1.
</event>
<event>
12    1  0.1681255E-001  0.1835191E+03  0.7818608E-02  0.1165146E+00
         21   -1    0    0  501  502  0.00000000000E+00  0.00000000000E+00  0.34879260870E+03  0.34879260870E+03  0.00000000000E+00 0. -1.
         21   -1    0    0  502  503 -0.00000000000E+00 -0.00000000000E+00 -0.25555081828E+03  0.25555081828E+03  0.00000000000E+00 0. -1.
         -6    2    1    2    0  503 -0.40556644617E+02 -0.49618443058E+02 -0.19274037119E+03  0.26613550529E+03  0.17196634897E+03 0.  0.
        -24    2    3    3    0    0 -0.44437531868E+02  0.30974103841E+02 -0.77667824071E+02  0.12551544626E+03  0.82387784335E+02 0.  0.
          6    2    1    2  501    0  0.40556644617E+02  0.49618443058E+02  0.28598216160E+03  0.33820792168E+03  0.16879564633E+03 0.  0.
         24    2    5    5    0    0 -0.38500521012E+02  0.48318830695E+02  0.16351747889E+03  0.19236069702E+03  0.80297399321E+02 0.  0.
          5    1    5    5  501    0  0.79057165629E+02  0.12996123622E+01  0.12246468271E+03  0.14584722466E+03  0.47000000000E+01 0. -1.
        -11    1    6    6    0    0  0.14816644168E+02  0.41557385226E+02  0.49480738389E+02  0.66293986777E+02  0.00000000000E+00 0.  1.
         12    1    6    6    0    0 -0.53317165180E+02  0.67614454694E+01  0.11403674050E+03  0.12606671024E+03  0.00000000000E+00 0. -1.
         -5    1    3    3    0  503  0.38808872507E+01 -0.80592546899E+02 -0.11507254712E+03  0.14062005903E+03  0.47000000000E+01 0.  1.
         13    1    4    4    0    0 -0.10217915100E+02 -0.81875788296E+01 -0.72023594023E+02  0.73204100514E+02  0.00000000000E+00 0. -1.
        -14    1    4    4    0    0 -0.34219616768E+02  0.39161682671E+02 -0.56442300483E+01  0.52311345750E+02  0.00000000000E+00 0.  1.
</event>
<event>
12    1  0.1681255E-001  0.2117882E+03  0.7818608E-02  0.1140209E+00
         21   -1    0    0  503  502  0.00000000000E+00  0.00000000000E+00  0.22118806038E+03  0.22118806038E+03  0.00000000000E+00 0. -1.
         21   -1    0    0  501  503 -0.00000000000E+00 -0.00000000000E+00 -0.11657117327E+04  0.11657117327E+04  0.00000000000E+00 0. -1.
          6    2    1    2  501    0 -0.27387540456E+02  0.11998150465E+03 -0.11026483006E+04  0.11228034170E+04  0.17236182793E+03 0.  0.
         24    2    3    3    0    0 -0.24249419072E+02  0.23431233220E+02 -0.26241669674E+03  0.27702387083E+03  0.82113611916E+02 0.  0.
         -6    2    1    2    0  502  0.27387540456E+02 -0.11998150465E+03  0.15812462828E+03  0.26409637601E+03  0.17204028285E+03 0.  0.
        -24    2    5    5    0    0  0.44738171397E+02 -0.45414592077E+02  0.15694109441E+03  0.18738418925E+03  0.80114531227E+02 0.  0.
          5    1    3    3  501    0 -0.31381213841E+01  0.96550271429E+02 -0.84023160384E+03  0.84577954622E+03  0.47000000000E+01 0. -1.
        -13    1    4    4    0    0 -0.19089635199E+02 -0.25572599918E+02 -0.16266371963E+03  0.16576446460E+03  0.00000000000E+00 0.  1.
         14    1    4    4    0    0 -0.51597838725E+01  0.49003833137E+02 -0.99752977113E+02  0.11125940623E+03  0.00000000000E+00 0. -1.
         -5    1    5    5    0  502 -0.17350630941E+02 -0.74566912572E+02  0.11835338704E+01  0.76712186757E+02  0.47000000000E+01 0.  1.
         13    1    6    6    0    0  0.16290524649E+02  0.22649289344E+02  0.33681942009E+02  0.43736080284E+02  0.00000000000E+00 0. -1.
        -14    1    6    6    0    0  0.28447646748E+02 -0.68063881421E+02  0.12325915240E+03  0.14364810897E+03  0.00000000000E+00 0.  1.
</event>
<event>
12    1  0.1681255E-001  0.1844383E+03  0.7818608E-02  0.1163659E+00
         21   -1    0    0  503  502  0.00000000000E+00  0.00000000000E+00  0.21191527712E+03  0.21191527712E+03  0.00000000000E+00 0. -1.
         21   -1    0    0  501  503 -0.00000000000E+00 -0.00000000000E+00 -0.16135966789E+03  0.16135966789E+03  0.00000000000E+00 0. -1.
          6    2    1    2  501    0  0.33131199163E+02  0.56582159439E+02  0.40984257198E+02  0.18858846609E+03  0.17200779947E+03 0.  0.
         24    2    3    3    0    0 -0.47317129006E+02  0.43040244164E+02  0.26685385229E+02  0.10563146087E+03  0.79715258427E+02 0.  0.
         -6    2    1    2    0  502 -0.33131199163E+02 -0.56582159439E+02  0.95713520368E+01  0.18468647892E+03  0.17238987091E+03 0.  0.
        -24    2    5    5    0    0 -0.79809000543E+02 -0.67658656559E+02  0.32848031691E+02  0.13115705014E+03  0.71944480266E+02 0.  0.
          5    1    3    3  501    0  0.80448328169E+02  0.13541915275E+02  0.14298871969E+02  0.82957005214E+02  0.47000000000E+01 0. -1.
        -11    1    4    4    0    0 -0.76965722638E+01 -0.23019571939E+02  0.51766980778E+00  0.24277683145E+02  0.00000000000E+00 0.  1.
         12    1    4    4    0    0 -0.39620556743E+02  0.66059816103E+02  0.26167715421E+02  0.81353777727E+02  0.00000000000E+00 0. -1.
         -5    1    5    5    0  502  0.46677801380E+02  0.11076497120E+02 -0.23276679654E+02  0.53529428783E+02  0.47000000000E+01 0.  1.
         13    1    6    6    0    0 -0.75383598161E+02 -0.21428831573E+02  0.32156312082E+02  0.84710743717E+02  0.00000000000E+00 0. -1.
        -14    1    6    6    0    0 -0.44254023816E+01 -0.46229824986E+02  0.69171960887E+00  0.46446306424E+02  0.00000000000E+00 0.  1.
</event>
<event>
12    1  0.1681255E-001  0.1736570E+03  0.7818608E-02  0.1174740E+00
         21   -1    0    0  501  502  0.00000000000E+00  0.00000000000E+00  0.10293487666E+03  0.10293487666E+03  0.00000000000E+00 0.  1.
         21   -1    0    0  502  503 -0.00000000000E+00 -0.00000000000E+00 -0.37107309582E+03  0.37107309582E+03  0.00000000000E+00 0.  1.
         -6    2    1    2    0  503 -0.12730218218E+02  0.60398674976E+01 -0.21616147445E+02  0.17246211932E+03  0.17052092632E+03 0.  0.
        -24    2    3    3    0    0 -0.98708335766E+01 -0.63632935520E+02 -0.58343681167E+01  0.10081276399E+03  0.77347202229E+02 0.  0.
          6    2    1    2  501    0  0.12730218218E+02 -0.60398674976E+01 -0.24652207171E+03  0.30154585316E+03  0.17308446280E+03 0.  0.
         24    2    5    5    0    0  0.10149549251E+02 -0.54558258554E+02 -0.14009778202E+03  0.18446078341E+03  0.10638973241E+03 0.  0.
          5    1    5    5  501    0  0.25806689671E+01  0.48518391056E+02 -0.10642428969E+03  0.11708506975E+03  0.47000000000E+01 0. -1.
        -11    1    6    6    0    0  0.43000344121E+02 -0.51228677392E+02 -0.37496351231E+02  0.76677136993E+02  0.00000000000E+00 0.  1.
         12    1    6    6    0    0 -0.32850794870E+02 -0.33295811619E+01 -0.10260143079E+03  0.10778364641E+03  0.00000000000E+00 0. -1.
         -5    1    3    3    0  503 -0.28593846417E+01  0.69672803018E+02 -0.15781779328E+02  0.71649355333E+02  0.47000000000E+01 0.  1.
         13    1    4    4    0    0 -0.33247512704E+02 -0.66354385748E+02 -0.14707316598E+02  0.75661131173E+02  0.00000000000E+00 0. -1.
        -14    1    4    4    0    0  0.23376679127E+02  0.27214502270E+01  0.88729484815E+01  0.25151632812E+02  0.00000000000E+00 0.  1.
</event>
<event>
12    1  0.1681255E-001  0.3074175E+03  0.7818608E-02  0.1081636E+00
         21   -1    0    0  501  502  0.00000000000E+00  0.00000000000E+00  0.20798846813E+04  0.20798846813E+04  0.00000000000E+00 0. -1.
         21   -1    0    0  502  503 -0.00000000000E+00 -0.00000000000E+00 -0.51959190236E+02  0.51959190236E+02  0.00000000000E+00 0.  1.
         -6    2    1    2    0  503  0.25377315213E+03 -0.23120143914E+02  0.63527226485E+03  0.70574527294E+03  0.17195983833E+03 0.  0.
        -24    2    3    3    0    0  0.10881715890E+03  0.45598466130E+02  0.31523794061E+03  0.34772495783E+03  0.87277104186E+02 0.  0.
          6    2    1    2  501    0 -0.25377315213E+03  0.23120143914E+02  0.13926532262E+04  0.14260985986E+04  0.17128587401E+03 0.  0.
         24    2    5    5    0    0 -0.20606104215E+03  0.78190471665E+02  0.10828149864E+04  0.11077732755E+04  0.78092460019E+02 0.  0.
          5    1    5    5  501    0 -0.47712109983E+02 -0.55070327751E+02  0.30983823989E+03  0.31832532311E+03  0.47000000000E+01 0. -1.
        -13    1    6    6    0    0 -0.75149852616E+02  0.60275494863E+02  0.34394178016E+03  0.35717864406E+03  0.00000000000E+00 0.  1.
         14    1    6    6    0    0 -0.13091118953E+03  0.17914976802E+02  0.73887320620E+03  0.75059463146E+03  0.00000000000E+00 0. -1.
         -5    1    3    3    0  503  0.14495599323E+03 -0.68718610044E+02  0.32003432424E+03  0.35802031511E+03  0.47000000000E+01 0.  1.
         11    1    4    4    0    0 -0.89384534970E+01 -0.72630362734E+01  0.68170558867E+01  0.13383568201E+02  0.00000000000E+00 0. -1.
        -12    1    4    4    0    0  0.11775561239E+03  0.52861502403E+02  0.30842088472E+03  0.33434138963E+03  0.00000000000E+00 0.  1.
</event>
<event>
12    1  0.1681255E-001  0.1827296E+03  0.7818608E-02  0.1165803E+00
         21   -1    0    0  501  502  0.00000000000E+00  0.00000000000E+00  0.32484822588E+03  0.32484822588E+03  0.00000000000E+00 0. -1.
         21   -1    0    0  502  503 -0.00000000000E+00 -0.00000000000E+00 -0.16678633006E+03  0.16678633006E+03  0.00000000000E+00 0. -1.
         -6    2    1    2    0  503 -0.47690359131E+01 -0.58186053938E+02 -0.74605720093E+02  0.19737306952E+03  0.17315240260E+03 0.  0.
        -24    2    3    3    0    0 -0.11227232463E+01 -0.51447443817E+01  0.25009640368E+02  0.84359857220E+02  0.80395114881E+02 0.  0.
          6    2    1    2  501    0  0.47690359131E+01  0.58186053938E+02  0.23266761591E+03  0.29426148642E+03  0.17043251544E+03 0.  0.
         24    2    5    5    0    0 -0.38934268493E+02  0.58281153478E+02  0.76708396892E+02  0.13222644127E+03  0.81774589592E+02 0.  0.
          5    1    5    5  501    0  0.43703304406E+02 -0.95099540065E-01  0.15595921902E+03  0.16203504515E+03  0.47000000000E+01 0. -1.
        -11    1    6    6    0    0  0.23654064245E+02  0.28348401425E+02  0.16803773896E+02  0.40564928643E+02  0.00000000000E+00 0.  1.
         12    1    6    6    0    0 -0.62588332738E+02  0.29932752053E+02  0.59904622996E+02  0.91661512625E+02  0.00000000000E+00 0. -1.
         -5    1    3    3    0  503 -0.36463126668E+01 -0.53041309556E+02 -0.99615360461E+02  0.11301321230E+03  0.47000000000E+01 0.  1.
         13    1    4    4    0    0 -0.17634255273E+02 -0.39042068350E+02  0.12303106486E+02  0.44571476185E+02  0.00000000000E+00 0. -1.
        -14    1    4    4    0    0  0.16511532027E+02  0.33897323969E+02  0.12706533883E+02  0.39788381035E+02  0.00000000000E+00 0.  1.
</event>
<event>
12    1  0.1681255E-001  0.2114339E+03  0.7818608E-02  0.1140522E+00
         21   -1    0    0  503  502  0.00000000000E+00  0.00000000000E+00  0.11355113096E+04  0.11355113096E+04  0.00000000000E+00 0. -1.
         21   -1    0    0  501  503 -0.00000000000E+00 -0.00000000000E+00 -0.15736994885E+03  0.15736994885E+03  0.00000000000E+00 0.  1.
          6    2    1    2  501    0 -0.62523288841E+02 -0.10475859455E+03 -0.70766880258E+02  0.22296243615E+03  0.17268691848E+03 0.  0.
         24    2    3    3    0    0 -0.93736945976E+02 -0.56217758633E+02 -0.90370059700E+02  0.16183241254E+03  0.77948256112E+02 0.  0.
         -6    2    1    2    0  502  0.62523288841E+02  0.10475859455E+03  0.10489082410E+04  0.10699188223E+04  0.17214605271E+03 0.  0.
        -24    2    5    5    0    0 -0.28164718196E+02  0.20174598692E+02  0.39416564976E+03  0.40351900404E+03  0.79124973215E+02 0.  0.
          5    1    3    3  501    0  0.31213657134E+02 -0.48540835916E+02  0.19603179441E+02  0.61130023616E+02  0.47000000000E+01 0. -1.
        -11    1    4    4    0    0 -0.16253895700E+02 -0.10826747318E+02 -0.65936732735E+02  0.68768163468E+02  0.00000000000E+00 0.  1.
         12    1    4    4    0    0 -0.77483050276E+02 -0.45391011315E+02 -0.24433326964E+02  0.93064249070E+02  0.00000000000E+00 0. -1.
         -5    1    5    5    0  502  0.90688007038E+02  0.84583995857E+02  0.65474259123E+03  0.66639981823E+03  0.47000000000E+01 0.  1.
         11    1    6    6    0    0  0.20073941100E+02  0.29217773576E+02  0.20765326097E+03  0.21065734783E+03  0.00000000000E+00 0. -1.
        -12    1    6    6    0    0 -0.48238659297E+02 -0.90431748845E+01  0.18651238879E+03  0.19286165621E+03  0.00000000000E+00 0.  1.
</event>
<event>
12    1  0.1681255E-001  0.1800894E+03  0.7818608E-02  0.1167969E+00
         21   -1    0    0  503  502  0.00000000000E+00  0.00000000000E+00  0.16355305384E+03  0.16355305384E+03  0.00000000000E+00 0.  1.
         21   -1    0    0  501  503 -0.00000000000E+00 -0.00000000000E+00 -0.29415855113E+03  0.29415855113E+03  0.00000000000E+00 0.  1.
          6    2    1    2  501    0  0.79883114609E+01 -0.48492723879E+02 -0.19659849450E+03  0.26591154496E+03  0.17217033517E+03 0.  0.
         24    2    3    3    0    0 -0.17686062942E+02  0.16270116922E+02 -0.38462637718E+02  0.93046168868E+02  0.81244701450E+02 0.  0.
         -6    2    1    2    0  502 -0.79883114609E+01  0.48492723879E+02  0.65992997212E+02  0.19180006001E+03  0.17325365783E+03 0.  0.
        -24    2    5    5    0    0 -0.16933882648E+02 -0.30702873739E+02  0.70704801232E+02  0.11182345704E+03  0.79220538937E+02 0.  0.
          5    1    3    3  501    0  0.25674374403E+02 -0.64762840801E+02 -0.15813585678E+03  0.17286537609E+03  0.47000000000E+01 0. -1.
        -11    1    4    4    0    0  0.26508739331E+02  0.22031495231E+02 -0.33730271190E+02  0.48226872567E+02  0.00000000000E+00 0.  1.
         12    1    4    4    0    0 -0.44194802273E+02 -0.57613783091E+01 -0.47323665288E+01  0.44819296301E+02  0.00000000000E+00 0. -1.
         -5    1    5    5    0  502  0.89455711872E+01  0.79195597617E+02 -0.47118040204E+01  0.79976602972E+02  0.47000000000E+01 0.  1.
         13    1    6    6    0    0 -0.41480275006E+02 -0.41186037993E+02  0.38492588413E+02  0.69989872860E+02  0.00000000000E+00 0. -1.
        -14    1    6    6    0    0  0.24546392358E+02  0.10483164254E+02  0.32212212819E+02  0.41833584179E+02  0.00000000000E+00 0.  1.
</event>
<event>
12    1  0.1681255E-001  0.1865301E+03  0.7818608E-02  0.1161812E+00
         21   -1    0    0  503  502  0.00000000000E+00  0.00000000000E+00  0.22556771717E+03  0.22556771717E+03  0.00000000000E+00 0.  1.
         21   -1    0    0  501  503 -0.00000000000E+00 -0.00000000000E+00 -0.38292038650E+03  0.38292038650E+03  0.00000000000E+00 0.  1.
          6    2    1    2  501    0 -0.69665489126E+02  0.11598573619E+02 -0.31419050519E+03  0.36538902236E+03  0.17264314879E+03 0.  0.
         24    2    3    3    0    0 -0.93797033404E+02  0.24108108472E+02 -0.14002724586E+03  0.18905482037E+03  0.82188874868E+02 0.  0.
         -6    2    1    2    0  502  0.69665489126E+02 -0.11598573619E+02  0.15683783586E+03  0.24309908131E+03  0.17178838521E+03 0.  0.
        -24    2    5    5    0    0  0.23696653601E+02 -0.24411029336E+02  0.87360022743E+01  0.87427838072E+02  0.80061722372E+02 0.  0.
          5    1    3    3  501    0  0.24131544278E+02 -0.12509534853E+02 -0.17416325933E+03  0.17633420199E+03  0.47000000000E+01 0. -1.
        -13    1    4    4    0    0 -0.67877043618E+02  0.45443644394E+02 -0.13084654733E+03  0.15425056504E+03  0.00000000000E+00 0.  1.
         14    1    4    4    0    0 -0.25919989786E+02 -0.21335535922E+02 -0.91806985277E+01  0.34804255330E+02  0.00000000000E+00 0. -1.
         -5    1    5    5    0  502  0.45968835524E+02  0.12812455717E+02  0.14810183358E+03  0.15567124324E+03  0.47000000000E+01 0.  1.
         13    1    6    6    0    0  0.26148696507E+01 -0.31160360195E+02  0.38964958765E+02  0.49960720595E+02  0.00000000000E+00 0. -1.
        -14    1    6    6    0    0  0.21081783951E+02  0.67493308596E+01 -0.30228956490E+02  0.37467117478E+02  0.00000000000E+00 0.  1.
</event>
<event>
12    1  0.1681255E-001  0.2368853E+03  0.7818608E-02  0.1121893E+00
         21   -1    0    0  503  502  0.00000000000E+00  0.00000000000E+00  0.35671722200E+03  0.35671722200E+03  0.00000000000E+00 0. -1.
         21   -1    0    0  501  503 -0.00000000000E+00 -0.00000000000E+00 -0.29812307400E+03  0.29812307400E+03  0.00000000000E+00 0. -1.
          6    2    1    2  501    0  0.12406338667E+03 -0.10548633913E+03 -0.19575389713E+03  0.30726642549E+03  0.17197085898E+03 0.  0.
         24    2    3    3    0    0  0.29239568460E+02 -0.12621754323E+02 -0.24067015983E+02  0.90209145565E+02  0.80896277042E+02 0.  0.
         -6    2    1    2    0  502 -0.12406338667E+03  0.10548633913E+03  0.25434804514E+03  0.34757387051E+03  0.17203364712E+03 0.  0.
        -24    2    5    5    0    0 -0.84872428612E+02  0.44305723417E+02  0.24290132326E+03  0.27387097794E+03  0.82691797952E+02 0.  0.
          5    1    3    3  501    0  0.94823818213E+02 -0.92864584805E+02 -0.17168688115E+03  0.21705727993E+03  0.47000000000E+01 0. -1.
        -11    1    4    4    0    0  0.32259399551E+01 -0.37562381926E+02  0.11660502559E+02  0.39462723480E+02  0.00000000000E+00 0.  1.
         12    1    4    4    0    0  0.26013628505E+02  0.24940627603E+02 -0.35727518542E+02  0.50746422085E+02  0.00000000000E+00 0. -1.
         -5    1    5    5    0  502 -0.39190958061E+02  0.61180615710E+02  0.11446721878E+02  0.73702892577E+02  0.47000000000E+01 0.  1.
         13    1    6    6    0    0 -0.65392441397E+02 -0.10758673887E+01  0.78300442671E+02  0.10202101845E+03  0.00000000000E+00 0. -1.
        -14    1    6    6    0    0 -0.19479987215E+02  0.45381590806E+02  0.16460088059E+03  0.17184995949E+03  0.00000000000E+00 0.  1.
</event>
<event>
12    1  0.1681255E-001  0.1869831E+03  0.7818608E-02  0.1161361E+00
         21   -1    0    0  503  502  0.00000000000E+00  0.00000000000E+00  0.38957068902E+03  0.38957068902E+03  0.00000000000E+00 0.  1.
         21   -1    0    0  501  503 -0.00000000000E+00 -0.00000000000E+00 -0.17696226515E+03  0.17696226515E+03  0.00000000000E+00 0.  1.
          6    2    1    2  501    0  0.68324495811E+02  0.27028886841E+02 -0.93006006444E+02  0.20825534706E+03  0.17123485303E+03 0.  0.
         24    2    3    3    0    0 -0.20186130140E+02  0.37691682529E+02 -0.48508027044E+02  0.10850572907E+03  0.87133930087E+02 0.  0.
         -6    2    1    2    0  502 -0.68324495811E+02 -0.27028886841E+02  0.30561443031E+03  0.35827760711E+03  0.17194146181E+03 0.  0.
        -24    2    5    5    0    0 -0.99286863549E+02 -0.53026147332E+02  0.19607474638E+03  0.24142060850E+03  0.84669654924E+02 0.  0.
          5    1    3    3  501    0  0.88510625951E+02 -0.10662795688E+02 -0.44497979401E+02  0.99749617988E+02  0.47000000000E+01 0. -1.
        -11    1    4    4    0    0  0.10277656312E+02  0.38859328559E+02 -0.63015471520E+02  0.74743744128E+02  0.00000000000E+00 0.  1.
         12    1    4    4    0    0 -0.30463786452E+02 -0.11676460303E+01  0.14507444477E+02  0.33761984946E+02  0.00000000000E+00 0. -1.
         -5    1    5    5    0  502  0.30962367738E+02  0.25997260491E+02  0.10953968393E+03  0.11685699861E+03  0.47000000000E+01 0.  1.
         11    1    6    6    0    0 -0.71631680624E+02 -0.72190411176E+02  0.17281112990E+03  0.20051493648E+03  0.00000000000E+00 0. -1.
        -12    1    6    6    0    0 -0.27655182925E+02  0.19164263844E+02  0.23263616479E+02  0.40905672015E+02  0.00000000000E+00 0.  1.
</event>
<event>
12    1  0.1681255E-001  0.2070240E+03  0.7818608E-02  0.1144032E+00
         21   -1    0    0  503  502  0.00000000000E+00  0.00000000000E+00  0.12228672272E+04  0.12228672272E+04  0.00000000000E+00 0. -1.
         21   -1    0    0  501  503 -0.00000000000E+00 -0.00000000000E+00 -0.14587071217E+03  0.14587071217E+03  0.00000000000E+00 0. -1.
          6    2    1    2  501    0 -0.86954647903E+02 -0.76035830215E+02 -0.58077842054E+02  0.21501622775E+03  0.17180332997E+03 0.  0.
         24    2    3    3    0    0 -0.23700723155E+01  0.10089197344E+02  0.23875954945E+01  0.79922815853E+02  0.79212036559E+02 0.  0.
         -6    2    1    2    0  502  0.86954647903E+02  0.76035830215E+02  0.11350743571E+04  0.11537217116E+04  0.17128173724E+03 0.  0.
        -24    2    5    5    0    0 -0.96015362280E+00  0.61516711744E+02  0.82003965307E+03  0.82629420536E+03  0.80696056225E+02 0.  0.
          5    1    3    3  501    0 -0.84584575587E+02 -0.86125027559E+02 -0.60465437548E+02  0.13509341189E+03  0.47000000000E+01 0. -1.
        -11    1    4    4    0    0 -0.11604072467E+02  0.17213033815E+02 -0.35035904870E+02  0.40724165565E+02  0.00000000000E+00 0.  1.
         12    1    4    4    0    0  0.92340001514E+01 -0.71238364717E+01  0.37423500364E+02  0.39198650288E+02  0.00000000000E+00 0. -1.
         -5    1    5    5    0  502  0.87914801526E+02  0.14519118471E+02  0.31503470402E+03  0.32742750628E+03  0.47000000000E+01 0.  1.
         13    1    6    6    0    0 -0.30130192914E+02  0.63402541387E+02  0.49669453088E+03  0.50163050923E+03  0.00000000000E+00 0. -1.
        -14    1    6    6    0    0  0.29170039292E+02 -0.18858296432E+01  0.32334512218E+03  0.32466369613E+03  0.00000000000E+00 0.  1.
</event>
<event>
12    1  0.1681255E-001  0.1910103E+03  0.7818608E-02  0.1159516E+00
         21   -1    0    0  501  502  0.00000000000E+00  0.00000000000E+00  0.35611445186E+03  0.35611445186E+03  0.00000000000E+00 0. -1.
         21   -1    0    0  502  503 -0.00000000000E+00 -0.00000000000E+00 -0.18510499975E+03  0.18510499975E+03  0.00000000000E+00 0. -1.
         -6    2    1    2    0  503  0.57209708662E+02 -0.17384511224E+02 -0.10122736032E+03  0.20865696963E+03  0.17238207710E+03 0.  0.
        -24    2    3    3    0    0  0.10297649839E+03 -0.29463145683E+02 -0.83831378467E+02  0.15800914010E+03  0.80417362337E+02 0.  0.
          6    2    1    2  501    0 -0.57209708662E+02  0.17384511224E+02  0.27223681243E+03  0.33256248198E+03  0.18141044727E+03 0.  0.
         24    2    5    5    0    0  0.28202399949E+02 -0.33425711929E+02  0.12680410176E+03  0.15635331533E+03  0.80339438710E+02 0.  0.
          5    1    5    5  501    0 -0.85412108611E+02  0.50810223153E+02  0.14543271068E+03  0.17620916664E+03  0.47000000000E+01 0. -1.
        -13    1    6    6    0    0  0.45705515218E+01  0.26410947749E+02  0.31396171559E+02  0.41281323753E+02  0.00000000000E+00 0.  1.
         14    1    6    6    0    0  0.23631848427E+02 -0.59836659678E+02  0.95407930198E+02  0.11507199158E+03  0.00000000000E+00 0. -1.
         -5    1    3    3    0  503 -0.45766789725E+02  0.12078634460E+02 -0.17395981851E+02  0.50647829536E+02  0.47000000000E+01 0.  1.
         13    1    4    4    0    0  0.39963317120E+02 -0.21863284146E+02 -0.82831902408E+02  0.94531444321E+02  0.00000000000E+00 0. -1.
        -14    1    4    4    0    0  0.63013181268E+02 -0.75998615370E+01 -0.99947605951E+00  0.63477695778E+02  0.00000000000E+00 0.  1.
</event>
<event>
12    1  0.1681255E-001  0.2427323E+03  0.7818608E-02  0.1118017E+00
         21   -1    0    0  501  502  0.00000000000E+00  0.00000000000E+00  0.34522239100E+03  0.34522239100E+03  0.00000000000E+00 0. -1.
         21   -1    0    0  502  503 -0.00000000000E+00 -0.00000000000E+00 -0.17054306472E+03  0.17054306472E+03  0.00000000000E+00 0.  1.
         -6    2    1    2    0  503  0.28899035254E+02 -0.16874658976E+03  0.89094936526E+02  0.25856698760E+03  0.17207095503E+03 0.  0.
        -24    2    3    3    0    0  0.25427919680E+02 -0.10813408281E+02  0.27349383571E+02  0.88892175781E+02  0.79939484833E+02 0.  0.
          6    2    1    2  501    0 -0.28899035254E+02  0.16874658976E+03  0.85584389752E+02  0.25719846813E+03  0.17180162527E+03 0.  0.
         24    2    5    5    0    0 -0.10101847294E+01  0.42663935354E+02  0.90100790795E+02  0.12790379847E+03  0.80124885694E+02 0.  0.
          5    1    5    5  501    0 -0.27888850524E+02  0.12608265440E+03 -0.45164010430E+01  0.12929466966E+03  0.47000000000E+01 0. -1.
        -13    1    6    6    0    0 -0.32050200022E+01 -0.12305346436E+02 -0.82886751200E+01  0.15178795715E+02  0.00000000000E+00 0.  1.
         14    1    6    6    0    0  0.21948352728E+01  0.54969281790E+02  0.98389465915E+02  0.11272500275E+03  0.00000000000E+00 0. -1.
         -5    1    3    3    0  503  0.34711155735E+01 -0.15793318148E+03  0.61745552954E+02  0.16967481181E+03  0.47000000000E+01 0.  1.
         13    1    4    4    0    0 -0.13616617681E+02  0.10685831123E+02  0.39131669204E+02  0.42788863021E+02  0.00000000000E+00 0. -1.
        -14    1    4    4    0    0  0.39044537361E+02 -0.21499239404E+02 -0.11782285633E+02  0.46103312760E+02  0.00000000000E+00 0.  1.
</event>
<event>
12    1  0.1681255E-001  0.1922682E+03  0.7818608E-02  0.1156472E+00
         21   -1    0    0  503  502  0.00000000000E+00  0.00000000000E+00  0.62240101372E+03  0.62240101372E+03  0.00000000000E+00 0.  1.
         21   -1    0    0  501  503 -0.00000000000E+00 -0.00000000000E+00 -0.86732262684E+02  0.86732262684E+02  0.00000000000E+00 0.  1.
          6    2    1    2  501    0 -0.71842578960E+02 -0.46966293912E+02  0.68652615249E+02  0.20415743781E+03  0.17204618252E+03 0.  0.
         24    2    3    3    0    0 -0.54789936679E+02 -0.85892058395E+02  0.72993675794E+01  0.12937563021E+03  0.79406486309E+02 0.  0.
         -6    2    1    2    0  502  0.71842578960E+02  0.46966293912E+02  0.46701613579E+03  0.50497583859E+03  0.17184102409E+03 0.  0.
        -24    2    5    5    0    0 -0.65904070438E+01 -0.16199181498E+02  0.26918259398E+03  0.28293572770E+03  0.85366914933E+02 0.  0.
          5    1    3    3  501    0 -0.17052642281E+02  0.38925764482E+02  0.61353247670E+02  0.74781807607E+02  0.47000000000E+01 0. -1.
        -13    1    4    4    0    0  0.11633998486E+02 -0.29033446622E+01 -0.16547809967E+02  0.20435492303E+02  0.00000000000E+00 0.  1.
         14    1    4    4    0    0 -0.66423935165E+02 -0.82988713732E+02  0.23847177546E+02  0.10894013790E+03  0.00000000000E+00 0. -1.
         -5    1    5    5    0  502  0.78432986004E+02  0.63165475411E+02  0.19783354181E+03  0.22204011089E+03  0.47000000000E+01 0.  1.
         13    1    6    6    0    0  0.34093205397E+02 -0.44766889431E+01  0.56987395628E+02  0.66557874504E+02  0.00000000000E+00 0. -1.
        -14    1    6    6    0    0 -0.40683612440E+02 -0.11722492555E+02  0.21219519835E+03  0.21637785320E+03  0.00000000000E+00 0.  1.
</event>
<event>
12    1  0.1681255E-001  0.2164669E+03  0.7818608E-02  0.1136719E+00
         21   -1    0    0  503  502  0.00000000000E+00  0.00000000000E+00  0.12967989042E+03  0.12967989042E+03  0.00000000000E+00 0. -1.
         21   -1    0    0  501  503 -0.00000000000E+00 -0.00000000000E+00 -0.74982281662E+03  0.74982281662E+03  0.00000000000E+00 0. -1.
          6    2    1    2  501    0 -0.10665003953E+03  0.67654360230E+02 -0.62753367085E+03  0.66381958747E+03  0.17580271121E+03 0.  0.
         24    2    3    3    0    0 -0.84588401715E+02 -0.20268108630E+01 -0.21171121793E+03  0.24159620605E+03  0.79923596715E+02 0.  0.
         -6    2    1    2    0  502  0.10665003953E+03 -0.67654360230E+02  0.73907446525E+01  0.21568311958E+03  0.17468039837E+03 0.  0.
        -24    2    5    5    0    0  0.11711031654E+03 -0.71732744983E+02  0.54390338800E+02  0.16713311991E+03  0.78196917303E+02 0.  0.
          5    1    3    3  501    0 -0.22061637819E+02  0.69681171093E+02 -0.41582245292E+03  0.42222338142E+03  0.47000000000E+01 0. -1.
        -11    1    4    4    0    0  0.76684972593E+01  0.16811309098E+02 -0.16124707359E+02  0.24524113668E+02  0.00000000000E+00 0.  1.
         12    1    4    4    0    0 -0.92256898974E+02 -0.18838119961E+02 -0.19558651057E+03  0.21707209238E+03  0.00000000000E+00 0. -1.
         -5    1    5    5    0  502 -0.10460277002E+02  0.40783847523E+01 -0.46999594148E+02  0.48549999662E+02  0.47000000000E+01 0.  1.
         11    1    6    6    0    0 -0.51800921873E+01 -0.27284614061E+02  0.12333977214E+02  0.30387670418E+02  0.00000000000E+00 0. -1.
        -12    1    6    6    0    0  0.12229040872E+03 -0.44448130922E+02  0.42056361586E+02  0.13674544950E+03  0.00000000000E+00 0.  1.
</event>
<event>
12    1  0.1681255E-001  0.2090685E+03  0.7818608E-02  0.1142326E+00
         21   -1    0    0  501  502  0.00000000000E+00  0.00000000000E+00  0.73080830441E+03  0.73080830441E+03  0.00000000000E+00 0.  1.
         21   -1    0    0  502  503 -0.00000000000E+00 -0.00000000000E+00 -0.60274054186E+02  0.60274054186E+02  0.00000000000E+00 0. -1.
         -6    2    1    2    0  503  0.10202089215E+03  0.57097122046E+02  0.29956383862E+03  0.36530554333E+03  0.17332427064E+03 0.  0.
        -24    2    3    3    0    0  0.47041281695E+02  0.72246395473E+02  0.89883510324E+02  0.14795746276E+03  0.79874536086E+02 0.  0.
          6    2    1    2  501    0 -0.10202089215E+03 -0.57097122046E+02  0.37097041160E+03  0.42577681527E+03  0.17320076893E+03 0.  0.
         24    2    5    5    0    0  0.13317219075E+02 -0.79139398745E+01  0.12964302831E+03  0.15377890860E+03  0.81244440864E+02 0.  0.
          5    1    5    5  501    0 -0.11533811123E+03 -0.49183182172E+02  0.24132738329E+03  0.27199790667E+03  0.47000000000E+01 0. -1.
        -11    1    6    6    0    0 -0.25205733453E+02  0.22190225325E+02  0.58560641244E+02  0.67506176027E+02  0.00000000000E+00 0.  1.
         12    1    6    6    0    0  0.38522952528E+02 -0.30104165199E+02  0.71082387070E+02  0.86272732572E+02  0.00000000000E+00 0. -1.
         -5    1    3    3    0  503  0.54979610455E+02 -0.15149273427E+02  0.20968032830E+03  0.21734808057E+03  0.47000000000E+01 0.  1.
         11    1    4    4    0    0  0.51338054585E+02  0.12504916154E+02  0.21483500300E+02  0.57039543843E+02  0.00000000000E+00 0. -1.
        -12    1    4    4    0    0 -0.42967728899E+01  0.59741479319E+02  0.68400010024E+02  0.90917918915E+02  0.00000000000E+00 0.  1.
</event>
<event>
12    1  0.1681255E-001  0.1930806E+03  0.7818608E-02  0.1155823E+00
         21   -1    0    0  503  502  0.00000000000E+00  0.00000000000E+00  0.17842148276E+03  0.17842148276E+03  0.00000000000E+00 0.  1.
         21   -1    0    0  501  503 -0.00000000000E+00 -0.00000000000E+00 -0.62974564052E+03  0.62974564052E+03  0.00000000000E+00 0. -1.
          6    2    1    2  501    0  0.87232938051E+02 -0.11878471757E+01 -0.55609188901E+03  0.58849369545E+03  0.17168472295E+03 0.  0.
         24    2    3    3    0    0  0.74338849251E+01  0.54025669546E+02 -0.27158534063E+03  0.28785689235E+03  0.78287659364E+02 0.  0.
         -6    2    1    2    0  502 -0.87232938051E+02  0.11878471757E+01  0.10476773125E+03  0.21967342784E+03  0.17224732486E+03 0.  0.
        -24    2    5    5    0    0 -0.44827615545E+02 -0.41468381392E+02  0.26399796561E+01  0.10105668003E+03  0.80475718798E+02 0.  0.
          5    1    3    3  501    0  0.79799053126E+02 -0.55213516722E+02 -0.28450654838E+03  0.30063680310E+03  0.47000000000E+01 0. -1.
        -11    1    4    4    0    0  0.23986096933E+02  0.61020094630E+02 -0.25537134064E+03  0.26365376237E+03  0.00000000000E+00 0.  1.
         12    1    4    4    0    0 -0.16552212007E+02 -0.69944250843E+01 -0.16213999999E+02  0.24203129974E+02  0.00000000000E+00 0. -1.
         -5    1    5    5    0  502 -0.42405322506E+02  0.42656228568E+02  0.10212775160E+03  0.11861674780E+03  0.47000000000E+01 0.  1.
         13    1    6    6    0    0 -0.17520536064E+02  0.22783720101E+02 -0.93426411523E+01  0.30221714533E+02  0.00000000000E+00 0. -1.
        -14    1    6    6    0    0 -0.27307079482E+02 -0.64252101493E+02  0.11982620808E+02  0.70834965501E+02  0.00000000000E+00 0.  1.
</event>
<event>
12    1  0.1681255E-001  0.1741446E+03  0.7818608E-02  0.1173701E+00
         21   -1    0    0  501  502  0.00000000000E+00  0.00000000000E+00  0.86382725216E+02  0.86382725216E+02  0.00000000000E+00 0. -1.
         21   -1    0    0  502  503 -0.00000000000E+00 -0.00000000000E+00 -0.38539104667E+03  0.38539104667E+03  0.00000000000E+00 0. -1.
         -6    2    1    2    0  503  0.20620824806E+02  0.16566070145E+02 -0.78067231845E+02  0.19045315503E+03  0.17169233668E+03 0.  0.
        -24    2    3    3    0    0 -0.49394047736E+01 -0.31167534766E+02  0.10396827616E+02  0.86627328806E+02  0.80002419518E+02 0.  0.
          6    2    1    2  501    0 -0.20620824806E+02 -0.16566070145E+02 -0.22094108961E+03  0.28132061686E+03  0.17212399977E+03 0.  0.
         24    2    5    5    0    0  0.51627555862E+02  0.33304852644E+01 -0.15968925786E+03  0.18442078033E+03  0.76379764902E+02 0.  0.
          5    1    5    5  501    0 -0.72248380668E+02 -0.19896555410E+02 -0.61251831751E+02  0.96899836528E+02  0.47000000000E+01 0. -1.
        -11    1    6    6    0    0 -0.55042301003E+01  0.22992166320E+02 -0.16005484339E+02  0.28550162697E+02  0.00000000000E+00 0.  1.
         12    1    6    6    0    0  0.57131785962E+02 -0.19661681056E+02 -0.14368377352E+03  0.15587061763E+03  0.00000000000E+00 0. -1.
         -5    1    3    3    0  503  0.25560229580E+02  0.47733604911E+02 -0.88464059461E+02  0.10382582622E+03  0.47000000000E+01 0.  1.
         13    1    4    4    0    0  0.29711230304E+02 -0.31557558469E+02 -0.12480057759E+02  0.45104196527E+02  0.00000000000E+00 0. -1.
        -14    1    4    4    0    0 -0.34650635078E+02  0.39002370249E+00  0.22876885375E+02  0.41523132279E+02  0.00000000000E+00 0.  1.
</event>
<event>
12    1  0.1681255E-001  0.2030524E+03  0.7818608E-02  0.1147279E+00
         21   -1    0    0  503  502  0.00000000000E+00  0.00000000000E+00  0.63622284168E+03  0.63622284168E+03  0.00000000000E+00 0.  1.
         21   -1    0    0  501  503 -0.00000000000E+00 -0.00000000000E+00 -0.72248673559E+02  0.72248673559E+02  0.00000000000E+00 0.  1.
          6    2    1    2  501    0 -0.10868788505E+03 -0.14885453043E+02  0.16696333902E+03  0.26254790277E+03  0.17035260962E+03 0.  0.
         24    2    3    3    0    0  0.98091012107E+01 -0.16614885834E+02  0.58263724598E+02  0.10166837373E+03  0.81052598446E+02 0.  0.
         -6    2    1    2    0  502  0.10868788505E+03  0.14885453043E+02  0.39701082910E+03  0.44592361247E+03  0.17086730718E+03 0.  0.
        -24    2    5    5    0    0  0.13762264482E+03  0.14383181189E+02  0.25008393464E+03  0.29610013328E+03  0.77372128666E+02 0.  0.
          5    1    3    3  501    0 -0.11849698626E+03  0.17294327914E+01  0.10869961442E+03  0.16087952904E+03  0.47000000000E+01 0. -1.
        -13    1    4    4    0    0 -0.94509227355E+01 -0.30786946899E+02 -0.63030270552E+01  0.32815913669E+02  0.00000000000E+00 0.  1.
         14    1    4    4    0    0  0.19260023946E+02  0.14172061064E+02  0.64566751653E+02  0.68852460060E+02  0.00000000000E+00 0. -1.
         -5    1    5    5    0  502 -0.28934759773E+02  0.50227185433E+00  0.14692689446E+03  0.14982347919E+03  0.47000000000E+01 0.  1.
         11    1    6    6    0    0  0.45338464971E+02 -0.18504209729E+02  0.36360448535E+02  0.60992330676E+02  0.00000000000E+00 0. -1.
        -12    1    6    6    0    0  0.92284179848E+02  0.32887390918E+02  0.21372348610E+03  0.23510780260E+03  0.00000000000E+00 0.  1.
</event>
<event>
12    1  0.1681255E-001  0.2584288E+03  0.7818608E-02  0.1108341E+00
         21   -1    0    0  501  502  0.00000000000E+00  0.00000000000E+00  0.23446356315E+03  0.23446356315E+03  0.00000000000E+00 0. -1.
         21   -1    0    0  502  503 -0.00000000000E+00 -0.00000000000E+00 -0.67734738133E+03  0.67734738133E+03  0.00000000000E+00 0.  1.
         -6    2    1    2    0  503  0.46407899422E+02 -0.18673048522E+03 -0.56899391576E+03  0.62425365271E+03  0.17004875628E+03 0.  0.
        -24    2    3    3    0    0  0.25719538025E+02 -0.17112722833E+03 -0.31129293602E+03  0.36521050017E+03  0.80804668828E+02 0.  0.
          6    2    1    2  501    0 -0.46407899422E+02  0.18673048522E+03  0.12611009759E+03  0.28755729177E+03  0.17252093234E+03 0.  0.
         24    2    5    5    0    0 -0.41508408996E+02  0.13904402095E+03  0.15349483695E+02  0.16677646767E+03  0.80762588720E+02 0.  0.
          5    1    5    5  501    0 -0.48994904259E+01  0.47686464269E+02  0.11076061389E+03  0.12078082410E+03  0.47000000000E+01 0. -1.
        -11    1    6    6    0    0 -0.57022450546E+01 -0.41991195395E+01 -0.14501880888E+02  0.16138548660E+02  0.00000000000E+00 0.  1.
         12    1    6    6    0    0 -0.35806163941E+02  0.14324314049E+03  0.29851364583E+02  0.15063791901E+03  0.00000000000E+00 0. -1.
         -5    1    3    3    0  503  0.20688361396E+02 -0.15603256897E+02 -0.25770097974E+03  0.25904315254E+03  0.47000000000E+01 0.  1.
         11    1    4    4    0    0 -0.88736009975E+01 -0.13480048372E+03 -0.18302048053E+03  0.22747836710E+03  0.00000000000E+00 0. -1.
        -12    1    4    4    0    0  0.34593139023E+02 -0.36326744611E+02 -0.12827245549E+03  0.13773213307E+03  0.00000000000E+00 0.  1.
</event>
<event>
12    1  0.1681255E-001  0.2422882E+03  0.7818608E-02  0.1120768E+00
         21   -1    0    0  501  502  0.00000000000E+00  0.00000000000E+00  0.73717524605E+02  0.73717524605E+02  0.00000000000E+00 0.  1.
         21   -1    0    0  502  503 -0.00000000000E+00 -0.00000000000E+00 -0.80444185067E+03  0.80444185067E+03  0.00000000000E+00 0. -1.
         -6    2    1    2    0  503 -0.16830912844E+03  0.14290858790E+02 -0.23947987605E+03  0.33041429339E+03  0.15261324609E+03 0.  0.
        -24    2    3    3    0    0 -0.14182034786E+03  0.49963598074E+02 -0.22868741620E+03  0.28444944797E+03  0.77486656413E+02 0.  0.
          6    2    1    2  501    0  0.16830912844E+03 -0.14290858790E+02 -0.49124445002E+03  0.54774508188E+03  0.17369908949E+03 0.  0.
         24    2    5    5    0    0  0.12432120477E+03 -0.55044397506E+02 -0.23544800532E+03  0.28497198686E+03  0.85367572502E+02 0.  0.
          5    1    5    5  501    0  0.43987923678E+02  0.40753538716E+02 -0.25579644470E+03  0.26277309502E+03  0.47000000000E+01 0. -1.
        -11    1    6    6    0    0  0.42961154658E+02  0.87762916539E+01 -0.24956942584E+02  0.50453276285E+02  0.00000000000E+00 0.  1.
         12    1    6    6    0    0  0.81360050108E+02 -0.63820689160E+02 -0.21049106274E+03  0.23451871058E+03  0.00000000000E+00 0. -1.
         -5    1    3    3    0  503 -0.26488780586E+02 -0.35672739284E+02 -0.10792459842E+02  0.45964845419E+02  0.47000000000E+01 0.  1.
         11    1    4    4    0    0 -0.73841092694E+02  0.30133066414E+02 -0.18445299963E+03  0.20095625826E+03  0.00000000000E+00 0. -1.
        -12    1    4    4    0    0 -0.67979255165E+02  0.19830531660E+02 -0.44234416578E+02  0.83493189714E+02  0.00000000000E+00 0.  1.
</event>
<event>
12    1  0.1681255E-001  0.1872394E+03  0.7818608E-02  0.1161137E+00
         21   -1    0    0  501  502  0.00000000000E+00  0.00000000000E+00  0.76094983741E+02  0.76094983741E+02  0.00000000000E+00 0.  1.
         21   -1    0    0  502  503 -0.00000000000E+00 -0.00000000000E+00 -0.51961904980E+03  0.51961904980E+03  0.00000000000E+00 0. -1.
         -6    2    1    2    0  503  0.50736756738E+01  0.73549499516E+02 -0.32387617771E+03  0.37410476857E+03  0.17211428854E+03 0.  0.
        -24    2    3    3    0    0 -0.27959030474E+02  0.21126800666E+02 -0.28989342956E+03  0.30327951741E+03  0.81928115381E+02 0.  0.
          6    2    1    2  501    0 -0.50736756738E+01 -0.73549499516E+02 -0.11964788836E+03  0.22160926497E+03  0.17134695232E+03 0.  0.
         24    2    5    5    0    0  0.39402514225E+02 -0.14586806622E+01 -0.99161460055E+02  0.13433383100E+03  0.81595938097E+02 0.  0.
          5    1    5    5  501    0 -0.44476189899E+02 -0.72090818854E+02 -0.20486428301E+02  0.87275433974E+02  0.47000000000E+01 0. -1.
        -11    1    6    6    0    0  0.43697080690E+02 -0.29922173498E+02 -0.33568798746E+02  0.62702755736E+02  0.00000000000E+00 0.  1.
         12    1    6    6    0    0 -0.42945664656E+01  0.28463492836E+02 -0.65592661309E+02  0.71631075262E+02  0.00000000000E+00 0. -1.
         -5    1    3    3    0  503  0.33032706148E+02  0.52422698850E+02 -0.33982748152E+02  0.70825251161E+02  0.47000000000E+01 0.  1.
         13    1    4    4    0    0  0.13374188111E+02  0.40397908031E+02 -0.11797768111E+03  0.12541767468E+03  0.00000000000E+00 0. -1.
        -14    1    4    4    0    0 -0.41333218585E+02 -0.19271107364E+02 -0.17191574844E+03  0.17786184273E+03  0.00000000000E+00 0.  1.
</event>
<event>
12    1  0.1681255E-001  0.2495449E+03  0.7818608E-02  0.1113900E+00
         21   -1    0    0  501  502  0.00000000000E+00  0.00000000000E+00  0.30935629812E+03  0.30935629812E+03  0.00000000000E+00 0.  1.
         21   -1    0    0  502  503 -0.00000000000E+00 -0.00000000000E+00 -0.64052348638E+03  0.64052348638E+03  0.00000000000E+00 0. -1.
         -6    2    1    2    0  503  0.21563593082E+01  0.17878919281E+03 -0.55937002437E+03  0.61172419908E+03  0.17129345061E+03 0.  0.
        -24    2    3    3    0    0  0.20195161980E+02  0.14172507123E+03 -0.24879681813E+03  0.29839218038E+03  0.81511939095E+02 0.  0.
          6    2    1    2  501    0 -0.21563593082E+01 -0.17878919281E+03  0.22820283611E+03  0.33815558542E+03  0.17407596098E+03 0.  0.
         24    2    5    5    0    0  0.80450551859E+01 -0.31974500128E+02  0.38308299133E+02  0.97862747369E+02  0.83800357809E+02 0.  0.
          5    1    5    5  501    0 -0.10201414494E+02 -0.14681469269E+03  0.18989453698E+03  0.24029283805E+03  0.47000000000E+01 0. -1.
        -11    1    6    6    0    0  0.12478274683E+02 -0.28429307896E+02  0.64222856477E+02  0.71333780080E+02  0.00000000000E+00 0.  1.
         12    1    6    6    0    0 -0.44332194975E+01 -0.35451922328E+01 -0.25914557344E+02  0.26528967289E+02  0.00000000000E+00 0. -1.
         -5    1    3    3    0  503 -0.18038802672E+02  0.37064121586E+02 -0.31057320624E+03  0.31333201870E+03  0.47000000000E+01 0.  1.
         11    1    4    4    0    0  0.20891746391E+01  0.13266643641E+03 -0.24375685386E+03  0.27752865042E+03  0.00000000000E+00 0. -1.
        -12    1    4    4    0    0  0.18105987341E+02  0.90586348218E+01 -0.50399642721E+01  0.20863529958E+02  0.00000000000E+00 0.  1.
</event>
<event>
12    1  0.1681255E-001  0.2112504E+03  0.7818608E-02  0.1140944E+00
         21   -1    0    0  501  502  0.00000000000E+00  0.00000000000E+00  0.44480861051E+03  0.44480861051E+03  0.00000000000E+00 0.  1.
         21   -1    0    0  502  503 -0.00000000000E+00 -0.00000000000E+00 -0.10688909747E+03  0.10688909747E+03  0.00000000000E+00 0. -1.
         -6    2    1    2    0  503 -0.20760832969E+02  0.12020836886E+03  0.96890342487E+02  0.23241009886E+03  0.17246927684E+03 0.  0.
        -24    2    3    3    0    0  0.45349350743E+02  0.40495285186E+02  0.74141603634E+02  0.12627656401E+03  0.82172753970E+02 0.  0.
          6    2    1    2  501    0  0.20760832969E+02 -0.12020836886E+03  0.24102917056E+03  0.31928760912E+03  0.17020121078E+03 0.  0.
         24    2    5    5    0    0  0.55778254641E+02 -0.44443465269E+02  0.67303160512E+02  0.12649404854E+03  0.79903652017E+02 0.  0.
          5    1    5    5  501    0 -0.35017421671E+02 -0.75764903589E+02  0.17372601004E+03  0.19279356058E+03  0.47000000000E+01 0. -1.
        -13    1    6    6    0    0 -0.15463046680E+02 -0.21304921370E+02  0.37634208443E+02  0.45927542198E+02  0.00000000000E+00 0.  1.
         14    1    6    6    0    0  0.71241301321E+02 -0.23138543899E+02  0.29668952069E+02  0.80566506344E+02  0.00000000000E+00 0. -1.
         -5    1    3    3    0  503 -0.66110183713E+02  0.79713083672E+02  0.22748738854E+02  0.10613353484E+03  0.47000000000E+01 0.  1.
         11    1    4    4    0    0 -0.17502950105E+02 -0.91677624124E+01  0.26567367461E+02  0.33109306000E+02  0.00000000000E+00 0. -1.
        -12    1    4    4    0    0  0.62852300848E+02  0.49663047598E+02  0.47574236173E+02  0.93167258015E+02  0.00000000000E+00 0.  1.
</event>
<event>
12    1  0.1681255E-001  0.1778535E+03  0.7818608E-02  0.1170084E+00
         21   -1    0    0  503  502  0.00000000000E+00  0.00000000000E+00  0.42470020570E+03  0.42470020570E+03  0.00000000000E+00 0.  1.
         21   -1    0    0  501  503 -0.00000000000E+00 -0.00000000000E+00 -0.11511190848E+03  0.11511190848E+03  0.00000000000E+00 0.  1.
          6    2    1    2  501    0  0.18052297529E+02  0.39064195541E+02 -0.64019327483E+01  0.17720808602E+03  0.17178423731E+03 0.  0.
         24    2    3    3    0    0 -0.31918573347E+02  0.68469885062E+02 -0.27513499145E+02  0.11532456036E+03  0.82679145505E+02 0.  0.
         -6    2    1    2    0  502 -0.18052297529E+02 -0.39064195541E+02  0.31599022997E+03  0.36260402816E+03  0.17256870800E+03 0.  0.
        -24    2    5    5    0    0 -0.76123473177E+01 -0.24551601166E+02  0.52590272983E+02  0.98556238363E+02  0.79289761989E+02 0.  0.
          5    1    3    3  501    0  0.49970870877E+02 -0.29405689521E+02  0.21111566396E+02  0.61883525660E+02  0.47000000000E+01 0. -1.
        -13    1    4    4    0    0 -0.31052545600E+02  0.64882022478E+02 -0.53142036671E+02  0.89431613485E+02  0.00000000000E+00 0.  1.
         14    1    4    4    0    0 -0.86602774746E+00  0.35878625840E+01  0.25628537526E+02  0.25892946872E+02  0.00000000000E+00 0. -1.
         -5    1    5    5    0  502 -0.10439950212E+02 -0.14512594375E+02  0.26339995699E+03  0.26404778980E+03  0.47000000000E+01 0.  1.
         11    1    6    6    0    0 -0.34540180060E+02 -0.19093629250E+02  0.58388606586E+02  0.70475670238E+02  0.00000000000E+00 0. -1.
        -12    1    6    6    0    0  0.26927832742E+02 -0.54579719161E+01 -0.57983336024E+01  0.28080568125E+02  0.00000000000E+00 0.  1.
</event>
<event>
12    1  0.1681255E-001  0.3618064E+03  0.7818608E-02  0.1057971E+00
         21   -1    0    0  501  502  0.00000000000E+00  0.00000000000E+00  0.36798036818E+03  0.36798036818E+03  0.00000000000E+00 0. -1.
         21   -1    0    0  502  503 -0.00000000000E+00 -0.00000000000E+00 -0.60114840141E+03  0.60114840141E+03  0.00000000000E+00 0. -1.
         -6    2    1    2    0  503 -0.28821761182E+03 -0.13314881222E+03  0.19355303185E+03  0.41032504707E+03  0.17351043241E+03 0.  0.
        -24    2    3    3    0    0 -0.26059249100E+03 -0.14553721028E+03  0.21354692912E+03  0.37374000046E+03  0.70638311615E+02 0.  0.
          6    2    1    2  501    0  0.28821761182E+03  0.13314881222E+03 -0.42672106508E+03  0.55880372253E+03  0.17138475711E+03 0.  0.
         24    2    5    5    0    0  0.19642793989E+03  0.15426000182E+03 -0.27471713619E+03  0.37992300641E+03  0.80572341123E+02 0.  0.
          5    1    5    5  501    0  0.91789671927E+02 -0.21111189606E+02 -0.15200392889E+03  0.17888071611E+03  0.47000000000E+01 0. -1.
        -11    1    6    6    0    0  0.43780566354E+02  0.81662091015E+02 -0.83808869679E+02  0.12493743129E+03  0.00000000000E+00 0.  1.
         12    1    6    6    0    0  0.15264737354E+03  0.72597910807E+02 -0.19090826651E+03  0.25498557513E+03  0.00000000000E+00 0. -1.
         -5    1    3    3    0  503 -0.27625120824E+02  0.12388398060E+02 -0.19993897275E+02  0.36585046608E+02  0.47000000000E+01 0.  1.
         13    1    4    4    0    0 -0.89610793900E+02 -0.88952523598E+02  0.96936763932E+02  0.15918348545E+03  0.00000000000E+00 0. -1.
        -14    1    4    4    0    0 -0.17098169710E+03 -0.56584686679E+02  0.11661016519E+03  0.21455651501E+03  0.00000000000E+00 0.  1.
</event>
<event>
12    1  0.1681255E-001  0.2521364E+03  0.7818608E-02  0.1112126E+00
         21   -1    0    0  501  502  0.00000000000E+00  0.00000000000E+00  0.97454784511E+03  0.97454784511E+03  0.00000000000E+00 0. -1.
         21   -1    0    0  502  503 -0.00000000000E+00 -0.00000000000E+00 -0.64974703728E+02  0.64974703728E+02  0.00000000000E+00 0.  1.
         -6    2    1    2    0  503  0.11341000862E+03 -0.14292424105E+03  0.46292008176E+03  0.52713161835E+03  0.17402175793E+03 0.  0.
        -24    2    3    3    0    0  0.14969125401E+03 -0.11814203972E+03  0.40902525751E+03  0.45743779976E+03  0.74717242210E+02 0.  0.
          6    2    1    2  501    0 -0.11341000862E+03  0.14292424105E+03  0.44665305962E+03  0.51239093049E+03  0.17250026446E+03 0.  0.
         24    2    5    5    0    0 -0.83996368975E+02  0.15829898662E+02  0.17071566871E+03  0.20713420613E+03  0.80341546606E+02 0.  0.
          5    1    5    5  501    0 -0.29413639643E+02  0.12709434239E+03  0.27593739091E+03  0.30525672436E+03  0.47000000000E+01 0. -1.
        -13    1    6    6    0    0 -0.17445784333E+02 -0.28508884582E+02  0.76974112730E+02  0.83917375564E+02  0.00000000000E+00 0.  1.
         14    1    6    6    0    0 -0.66550584642E+02  0.44338783244E+02  0.93741555984E+02  0.12321683056E+03  0.00000000000E+00 0. -1.
         -5    1    3    3    0  503 -0.36281245393E+02 -0.24782201332E+02  0.53894824245E+02  0.69693818596E+02  0.47000000000E+01 0.  1.
         13    1    4    4    0    0  0.14190164861E+03 -0.95830567408E+02  0.39355787493E+03  0.42919386814E+03  0.00000000000E+00 0. -1.
        -14    1    4    4    0    0  0.77896054013E+01 -0.22311472316E+02  0.15467382583E+02  0.28243931617E+02  0.00000000000E+00 0.  1.
</event>
<event>
12    1  0.1681255E-001  0.2104991E+03  0.7818608E-02  0.1141375E+00
         21   -1    0    0  503  502  0.00000000000E+00  0.00000000000E+00  0.80919242472E+03  0.80919242472E+03  0.00000000000E+00 0. -1.
         21   -1    0    0  501  503 -0.00000000000E+00 -0.00000000000E+00 -0.83270569149E+02  0.83270569149E+02  0.00000000000E+00 0.  1.
          6    2    1    2  501    0 -0.10560435505E+03 -0.59136842125E+02  0.10120655489E+03  0.23356510522E+03  0.17222208256E+03 0.  0.
         24    2    3    3    0    0 -0.13711736599E+03 -0.63693345273E+02  0.10564390039E+03  0.20107492802E+03  0.80077953887E+02 0.  0.
         -6    2    1    2    0  502  0.10560435505E+03  0.59136842125E+02  0.62471530069E+03  0.65889788865E+03  0.17096132562E+03 0.  0.
        -24    2    5    5    0    0  0.81187854829E+02  0.95902074484E+02  0.34382567645E+03  0.37452327868E+03  0.79138579872E+02 0.  0.
          5    1    3    3  501    0  0.31513010941E+02  0.45565031485E+01 -0.44373455063E+01  0.32490177203E+02  0.47000000000E+01 0. -1.
        -13    1    4    4    0    0 -0.25768993348E+02 -0.32179957802E+02  0.67748832743E+02  0.79306336697E+02  0.00000000000E+00 0.  1.
         14    1    4    4    0    0 -0.11134837264E+03 -0.31513387471E+02  0.37895067651E+02  0.12176859132E+03  0.00000000000E+00 0. -1.
         -5    1    5    5    0  502  0.24416500219E+02 -0.36765232359E+02  0.28088962423E+03  0.28437460997E+03  0.47000000000E+01 0.  1.
         13    1    6    6    0    0  0.17962438402E+02  0.57657171793E+02  0.78158132591E+02  0.98770908382E+02  0.00000000000E+00 0. -1.
        -14    1    6    6    0    0  0.63225416427E+02  0.38244902691E+02  0.26566754386E+03  0.27575237030E+03  0.00000000000E+00 0.  1.
</event>
<event>
12    1  0.1681255E-001  0.1876144E+03  0.7818608E-02  0.1160889E+00
         21   -1    0    0  503  502  0.00000000000E+00  0.00000000000E+00  0.48081267503E+02  0.48081267503E+02  0.00000000000E+00 0.  1.
         21   -1    0    0  501  503 -0.00000000000E+00 -0.00000000000E+00 -0.20791564312E+04  0.20791564312E+04  0.00000000000E+00 0.  1.
          6    2    1    2  501    0 -0.20623026766E+02 -0.65297760304E+02 -0.18719874190E+04  0.18812537855E+04  0.17346412222E+03 0.  0.
         24    2    3    3    0    0 -0.23226941245E+02  0.29680654368E+02 -0.70794545800E+03  0.71333107544E+03  0.78955808154E+02 0.  0.
         -6    2    1    2    0  502  0.20623026766E+02  0.65297760304E+02 -0.15908774468E+03  0.24598391322E+03  0.17467131511E+03 0.  0.
        -24    2    5    5    0    0  0.25767532232E+02  0.64498708279E+02 -0.18835331199E+03  0.21588959730E+03  0.79418505382E+02 0.  0.
          5    1    3    3  501    0  0.26039144785E+01 -0.94978414672E+02 -0.11640419610E+04  0.11679227100E+04  0.47000000000E+01 0. -1.
        -11    1    4    4    0    0 -0.35310240832E+02  0.17350598763E+02 -0.67491870266E+03  0.67606442858E+03  0.00000000000E+00 0.  1.
         12    1    4    4    0    0  0.12083299588E+02  0.12330055605E+02 -0.33026755338E+02  0.37266646862E+02  0.00000000000E+00 0. -1.
         -5    1    5    5    0  502 -0.51445054656E+01  0.79905202440E+00  0.29265567312E+02  0.30094315921E+02  0.47000000000E+01 0.  1.
         13    1    6    6    0    0 -0.51462032394E+01  0.52254654424E+02 -0.16997067488E+03  0.17789621310E+03  0.00000000000E+00 0. -1.
        -14    1    6    6    0    0  0.30913735471E+02  0.12244053855E+02 -0.18382637109E+02  0.37993384196E+02  0.00000000000E+00 0.  1.
</event>
<event>
12    1  0.1681255E-001  0.2400715E+03  0.7818608E-02  0.1119899E+00
         21   -1    0    0  503  502  0.00000000000E+00  0.00000000000E+00  0.10787149003E+04  0.10787149003E+04  0.00000000000E+00 0.  1.
         21   -1    0    0  501  503 -0.00000000000E+00 -0.00000000000E+00 -0.64080961806E+02  0.64080961806E+02  0.00000000000E+00 0.  1.
          6    2    1    2  501    0  0.83785199102E+02 -0.14363622975E+03  0.27131688903E+03  0.36167195537E+03  0.17187909397E+03 0.  0.
         24    2    3    3    0    0  0.63121716956E+02 -0.87066256187E+01  0.11675888206E+03  0.15541181602E+03  0.80374371149E+02 0.  0.
         -6    2    1    2    0  502 -0.83785199102E+02  0.14363622975E+03  0.74331704944E+03  0.78112390671E+03  0.17315598621E+03 0.  0.
        -24    2    5    5    0    0 -0.74335202429E+02  0.17160362735E+03  0.56819972650E+03  0.60347356317E+03  0.79723804558E+02 0.  0.
          5    1    3    3  501    0  0.20663482146E+02 -0.13492960414E+03  0.15455800697E+03  0.20626013935E+03  0.47000000000E+01 0. -1.
        -11    1    4    4    0    0 -0.17676992972E+02  0.15075960590E+01  0.78016293241E+01  0.19380772599E+02  0.00000000000E+00 0.  1.
         12    1    4    4    0    0  0.80798709928E+02 -0.10214221678E+02  0.10895725274E+03  0.13603104342E+03  0.00000000000E+00 0. -1.
         -5    1    5    5    0  502 -0.94499966729E+01 -0.27967397598E+02  0.17511732295E+03  0.17765034354E+03  0.47000000000E+01 0.  1.
         13    1    6    6    0    0 -0.73825713397E+01  0.69649760207E+02  0.11971428472E+03  0.13869787822E+03  0.00000000000E+00 0. -1.
        -14    1    6    6    0    0 -0.66952631090E+02  0.10195386715E+03  0.44848544178E+03  0.46477568495E+03  0.00000000000E+00 0.  1.
</event>
<event>
12    1  0.1681255E-001  0.1795182E+03  0.7818608E-02  0.1168686E+00
         21   -1    0    0  503  502  0.00000000000E+00  0.00000000000E+00  0.25828456085E+02  0.25828456085E+02  0.00000000000E+00 0.  1.
         21   -1    0    0  501  503 -0.00000000000E+00 -0.00000000000E+00 -0.12463034960E+04  0.12463034960E+04  0.00000000000E+00 0.  1.
          6    2    1    2  501    0 -0.38852542735E+02 -0.23298412464E+02 -0.55502085246E+03  0.58333088266E+03  0.17370790399E+03 0.  0.
         24    2    3    3    0    0 -0.17790231909E+02  0.17692502637E+02 -0.12323683546E+03  0.14906897621E+03  0.80029526143E+02 0.  0.
         -6    2    1    2    0  502  0.38852542735E+02  0.23298412464E+02 -0.66545418744E+03  0.68880106940E+03  0.17194563539E+03 0.  0.
        -24    2    5    5    0    0  0.39294070277E+02 -0.47583477909E+02 -0.39179534354E+03  0.40607206457E+03  0.87078809568E+02 0.  0.
          5    1    3    3  501    0 -0.21062310825E+02 -0.40990915100E+02 -0.43178401700E+03  0.43426190645E+03  0.47000000000E+01 0. -1.
        -11    1    4    4    0    0 -0.59433436136E+01  0.42674376707E+02 -0.11054807376E+03  0.11864780813E+03  0.00000000000E+00 0.  1.
         12    1    4    4    0    0 -0.11846888296E+02 -0.24981874070E+02 -0.12688761694E+02  0.30421168085E+02  0.00000000000E+00 0. -1.
         -5    1    5    5    0  502 -0.44152754261E+00  0.70881890372E+02 -0.27365884390E+03  0.28272900483E+03  0.47000000000E+01 0.  1.
         11    1    6    6    0    0  0.52940473282E+02 -0.19409605749E+01 -0.27277769610E+03  0.27787431067E+03  0.00000000000E+00 0. -1.
        -12    1    6    6    0    0 -0.13646403005E+02 -0.45642517334E+02 -0.11901764744E+03  0.12819775390E+03  0.00000000000E+00 0.  1.
</event>
<event>
12    1  0.1681255E-001  0.2620905E+03  0.7818608E-02  0.1106087E+00
         21   -1    0    0  503  502  0.00000000000E+00  0.00000000000E+00  0.27480398098E+03  0.27480398098E+03  0.00000000000E+00 0. -1.
         21   -1    0    0  501  503 -0.00000000000E+00 -0.00000000000E+00 -0.49310037621E+03  0.49310037621E+03  0.00000000000E+00 0. -1.
          6    2    1    2  501    0  0.17009202401E+03  0.98322988439E+02 -0.37957625210E+03  0.46126953558E+03  0.17347261054E+03 0.  0.
         24    2    3    3    0    0  0.83847559746E+02  0.98777473821E+02 -0.14219931208E+03  0.20866665391E+03  0.80831463487E+02 0.  0.
         -6    2    1    2    0  502 -0.17009202401E+03 -0.98322988439E+02  0.16127985687E+03  0.30663482161E+03  0.17150806075E+03 0.  0.
        -24    2    5    5    0    0 -0.13898018604E+03 -0.13598246514E+03  0.14244637049E+03  0.25407083340E+03  0.80338639399E+02 0.  0.
          5    1    3    3  501    0  0.86244464269E+02 -0.45448538169E+00 -0.23737694002E+03  0.25260288167E+03  0.47000000000E+01 0. -1.
        -11    1    4    4    0    0  0.77832606142E+01  0.57050374608E+02 -0.91709998041E+02  0.10828687884E+03  0.00000000000E+00 0.  1.
         12    1    4    4    0    0  0.76064299132E+02  0.41727099213E+02 -0.50489314040E+02  0.10037977507E+03  0.00000000000E+00 0. -1.
         -5    1    5    5    0  502 -0.31111837972E+02  0.37659476700E+02  0.18833486376E+02  0.52563988208E+02  0.47000000000E+01 0.  1.
         13    1    6    6    0    0 -0.99850958197E+02 -0.56537939656E+02  0.47369454427E+02  0.12413950896E+03  0.00000000000E+00 0. -1.
        -14    1    6    6    0    0 -0.39129227846E+02 -0.79444525483E+02  0.95076916064E+02  0.12993132443E+03  0.00000000000E+00 0.  1.
</event>
<event>
12    1  0.1681255E-001  0.2402296E+03  0.7818608E-02  0.1119712E+00
         21   -1    0    0  503  502  0.00000000000E+00  0.00000000000E+00  0.10972691196E+03  0.10972691196E+03  0.00000000000E+00 0. -1.
         21   -1    0    0  501  503 -0.00000000000E+00 -0.00000000000E+00 -0.58757161526E+03  0.58757161526E+03  0.00000000000E+00 0.  1.
          6    2    1    2  501    0 -0.28465557125E+02 -0.16497698233E+03 -0.35288587852E+03  0.42689425639E+03  0.17228630311E+03 0.  0.
         24    2    3    3    0    0 -0.70548141560E+02 -0.69442238688E+02 -0.24361400851E+03  0.27569814953E+03  0.82839723060E+02 0.  0.
         -6    2    1    2    0  502  0.28465557125E+02  0.16497698233E+03 -0.12495882478E+03  0.27040427083E+03  0.17168596085E+03 0.  0.
        -24    2    5    5    0    0 -0.47703203374E+02  0.11760086261E+03 -0.67614993247E+02  0.16383700658E+03  0.78518907998E+02 0.  0.
          5    1    3    3  501    0  0.42082584434E+02 -0.95534743645E+02 -0.10927187000E+03  0.15119610686E+03  0.47000000000E+01 0. -1.
        -13    1    4    4    0    0 -0.44085332627E+02 -0.83342547563E+02 -0.14764250843E+03  0.17517935689E+03  0.00000000000E+00 0.  1.
         14    1    4    4    0    0 -0.26462808932E+02  0.13900308875E+02 -0.95971500086E+02  0.10051879263E+03  0.00000000000E+00 0. -1.
         -5    1    5    5    0  502  0.76168760499E+02  0.47376119721E+02 -0.57343831535E+02  0.10656726426E+03  0.47000000000E+01 0.  1.
         13    1    6    6    0    0  0.45596947555E+01  0.89733015639E+02 -0.44408668735E+02  0.10022442203E+03  0.00000000000E+00 0. -1.
        -14    1    6    6    0    0 -0.52262898129E+02  0.27867846973E+02 -0.23206324513E+02  0.63612584550E+02  0.00000000000E+00 0.  1.
</event>
<event>
12    1  0.1681255E-001  0.1839885E+03  0.7818608E-02  0.1165192E+00
         21   -1    0    0  503  502  0.00000000000E+00  0.00000000000E+00  0.25019794812E+03  0.25019794812E+03  0.00000000000E+00 0.  1.
         21   -1    0    0  501  503 -0.00000000000E+00 -0.00000000000E+00 -0.47764023236E+03  0.47764023236E+03  0.00000000000E+00 0.  1.
          6    2    1    2  501    0  0.30856800830E+02  0.31269641059E+02 -0.42301528681E+03  0.45932267737E+03  0.17350924028E+03 0.  0.
         24    2    3    3    0    0  0.47552533207E+02  0.21881720017E+02 -0.42839355698E+03  0.43888016454E+03  0.79716410327E+02 0.  0.
         -6    2    1    2    0  502 -0.30856800830E+02 -0.31269641059E+02  0.19557300257E+03  0.26851550311E+03  0.17866685050E+03 0.  0.
        -24    2    5    5    0    0 -0.22285750699E+02 -0.56971375452E+02  0.36327874593E+02  0.10691369980E+03  0.79802458775E+02 0.  0.
          5    1    3    3  501    0 -0.16695732376E+02  0.93879210425E+01  0.53782701692E+01  0.20442512837E+02  0.47000000000E+01 0. -1.
        -11    1    4    4    0    0  0.54748071253E+02 -0.12777560519E+02 -0.19967217627E+03  0.20743576195E+03  0.00000000000E+00 0.  1.
         12    1    4    4    0    0 -0.71955380460E+01  0.34659280536E+02 -0.22872138071E+03  0.23144440259E+03  0.00000000000E+00 0. -1.
         -5    1    5    5    0  502 -0.85710501309E+01  0.25701734393E+02  0.15924512798E+03  0.16160180332E+03  0.47000000000E+01 0.  1.
         13    1    6    6    0    0 -0.25437327969E+01 -0.28986260448E+02 -0.23883126927E+02  0.37644091477E+02  0.00000000000E+00 0. -1.
        -14    1    6    6    0    0 -0.19742017903E+02 -0.27985115004E+02  0.60211001520E+02  0.69269608319E+02  0.00000000000E+00 0.  1.
</event>
<event>
12    1  0.1681255E-001  0.2519779E+03  0.7818608E-02  0.1112453E+00
         21   -1    0    0  501  502  0.00000000000E+00  0.00000000000E+00  0.15027606111E+03  0.15027606111E+03  0.00000000000E+00 0.  1.
         21   -1    0    0  502  503 -0.00000000000E+00 -0.00000000000E+00 -0.12291689125E+04  0.12291689125E+04  0.00000000000E+00 0.  1.
         -6    2    1    2    0  503  0.18188761287E+03 -0.14102320315E+02 -0.10987195323E+04  0.11266882929E+04  0.17017614266E+03 0.  0.
        -24    2    3    3    0    0  0.25875010220E+02 -0.10554406937E+02 -0.26111529800E+03  0.27465809203E+03  0.80467117539E+02 0.  0.
          6    2    1    2  501    0 -0.18188761287E+03  0.14102320315E+02  0.19826680938E+02  0.25275668069E+03  0.17381272451E+03 0.  0.
         24    2    5    5    0    0 -0.77624506771E+02  0.62536319125E+02  0.47212918538E+02  0.13448266180E+03  0.76942649988E+02 0.  0.
          5    1    5    5  501    0 -0.10426310610E+03 -0.48433998810E+02 -0.27386237600E+02  0.11827401889E+03  0.47000000000E+01 0. -1.
        -13    1    6    6    0    0 -0.60293916967E+02  0.80522181559E+02  0.41758841630E+02  0.10891730349E+03  0.00000000000E+00 0.  1.
         14    1    6    6    0    0 -0.17330589804E+02 -0.17985862434E+02  0.54540769080E+01  0.25565358307E+02  0.00000000000E+00 0. -1.
         -5    1    3    3    0  503  0.15601260265E+03 -0.35479133784E+01 -0.83760423428E+03  0.85203020085E+03  0.47000000000E+01 0.  1.
         11    1    4    4    0    0  0.10007409678E+02  0.28351351432E+02 -0.18750458125E+03  0.18989975083E+03  0.00000000000E+00 0. -1.
        -12    1    4    4    0    0  0.15867600542E+02 -0.38905758368E+02 -0.73610716754E+02  0.84758341196E+02  0.00000000000E+00 0.  1.
</event>
<event>
12    1  0.1681255E-001  0.3064940E+03  0.7818608E-02  0.1082050E+00
         21   -1    0    0  503  502  0.00000000000E+00  0.00000000000E+00  0.40815298036E+03  0.40815298036E+03  0.00000000000E+00 0.  1.
         21   -1    0    0  501  503 -0.00000000000E+00 -0.00000000000E+00 -0.39866148995E+03  0.39866148995E+03  0.00000000000E+00 0. -1.
          6    2    1    2  501    0 -0.24937499951E+03  0.53074609146E+02 -0.25757802685E+03  0.40035611840E+03  0.17009931542E+03 0.  0.
         24    2    3    3    0    0 -0.76699540939E+02  0.71219453810E+02 -0.94190240349E+02  0.16189499335E+03  0.79894663865E+02 0.  0.
         -6    2    1    2    0  502  0.24937499951E+03 -0.53074609146E+02  0.26706951726E+03  0.40645835191E+03  0.16993369377E+03 0.  0.
        -24    2    5    5    0    0  0.57906498042E+02  0.26806987743E+02  0.73391106952E+02  0.12260156902E+03  0.74653285530E+02 0.  0.
          5    1    3    3  501    0 -0.17267545857E+03 -0.18144844664E+02 -0.16338778650E+03  0.23846112505E+03  0.47000000000E+01 0. -1.
        -11    1    4    4    0    0  0.71204269361E+01 -0.23006819490E+01 -0.34748388629E+02  0.35544959270E+02  0.00000000000E+00 0.  1.
         12    1    4    4    0    0 -0.83819967875E+02  0.73520135759E+02 -0.59441851720E+02  0.12635003408E+03  0.00000000000E+00 0. -1.
         -5    1    5    5    0  502  0.19146850146E+03 -0.79881596889E+02  0.19367841030E+03  0.28385678289E+03  0.47000000000E+01 0.  1.
         11    1    6    6    0    0 -0.68663090838E+00 -0.20836105334E+02  0.26469407421E+02  0.33693386246E+02  0.00000000000E+00 0. -1.
        -12    1    6    6    0    0  0.58593128950E+02  0.47643093078E+02  0.46921699530E+02  0.88908182779E+02  0.00000000000E+00 0.  1.
</event>
<event>
12    1  0.1681255E-001  0.2298972E+03  0.7818608E-02  0.1127240E+00
         21   -1    0    0  501  502  0.00000000000E+00  0.00000000000E+00  0.15073769189E+04  0.15073769189E+04  0.00000000000E+00 0. -1.
         21   -1    0    0  502  503 -0.00000000000E+00 -0.00000000000E+00 -0.35011348984E+02  0.35011348984E+02  0.00000000000E+00 0. -1.
         -6    2    1    2    0  503 -0.12400666089E+03  0.87436259697E+02  0.65837138259E+03  0.69735613839E+03  0.17271350521E+03 0.  0.
        -24    2    3    3    0    0 -0.12428421444E+03  0.83800840670E+02  0.35726408982E+03  0.39619009604E+03  0.82824002965E+02 0.  0.
          6    2    1    2  501    0  0.12400666089E+03 -0.87436259697E+02  0.81399418736E+03  0.84503212953E+03  0.16873058828E+03 0.  0.
         24    2    5    5    0    0  0.12919041547E+03 -0.76038319143E+01  0.47643775432E+03  0.49809334052E+03  0.66000457658E+02 0.  0.
          5    1    5    5  501    0 -0.51837545800E+01 -0.79832427783E+02  0.33755643304E+03  0.34693878901E+03  0.47000000000E+01 0. -1.
        -13    1    6    6    0    0  0.38853374204E+02  0.21932217122E+02  0.94426597826E+02  0.10443653198E+03  0.00000000000E+00 0.  1.
         14    1    6    6    0    0  0.90337041266E+02 -0.29536049037E+02  0.38201115650E+03  0.39365680854E+03  0.00000000000E+00 0. -1.
         -5    1    3    3    0  503  0.27755355084E+00  0.36354190271E+01  0.30110729277E+03  0.30116604235E+03  0.47000000000E+01 0.  1.
         11    1    4    4    0    0 -0.65672141712E+02  0.77897026292E+02  0.28671739077E+03  0.30428217015E+03  0.00000000000E+00 0. -1.
        -12    1    4    4    0    0 -0.58612072729E+02  0.59038143779E+01  0.70546699049E+02  0.91907925885E+02  0.00000000000E+00 0.  1.
</event>
<event>
12    1  0.1681255E-001  0.2318653E+03  0.7818608E-02  0.1125413E+00
         21   -1    0    0  501  502  0.00000000000E+00  0.00000000000E+00  0.48583308888E+03  0.48583308888E+03  0.00000000000E+00 0.  1.
         21   -1    0    0  502  503 -0.00000000000E+00 -0.00000000000E+00 -0.15459168923E+03  0.15459168923E+03  0.00000000000E+00 0.  1.
         -6    2    1    2    0  503  0.29740685882E+02  0.15227914878E+03 -0.53856484249E+01  0.23192781607E+03  0.17230223187E+03 0.  0.
        -24    2    3    3    0    0  0.37801223032E+02  0.50913353758E+02  0.51660334810E+02  0.11523878118E+03  0.81179335068E+02 0.  0.
          6    2    1    2  501    0 -0.29740685882E+02 -0.15227914878E+03  0.33662704808E+03  0.40849696204E+03  0.17169318842E+03 0.  0.
         24    2    5    5    0    0 -0.23876654186E+02 -0.16495337545E+03  0.34400831600E+03  0.39201679197E+03  0.86923719584E+02 0.  0.
          5    1    5    5  501    0 -0.58640316959E+01  0.12674226675E+02 -0.73812679149E+01  0.16480170071E+02  0.47000000000E+01 0. -1.
        -13    1    6    6    0    0  0.22639424622E+01  0.32811945643E+01  0.65299080028E+02  0.65420650606E+02  0.00000000000E+00 0.  1.
         14    1    6    6    0    0 -0.26140596649E+02 -0.16823457002E+03  0.27870923597E+03  0.32659614137E+03  0.00000000000E+00 0. -1.
         -5    1    3    3    0  503 -0.80605371496E+01  0.10136579502E+03 -0.57045983235E+02  0.11668903489E+03  0.47000000000E+01 0.  1.
         13    1    4    4    0    0  0.56729707603E+02  0.51832453632E+02  0.56854322503E+02  0.95589104826E+02  0.00000000000E+00 0. -1.
        -14    1    4    4    0    0 -0.18928484571E+02 -0.91909987380E+00 -0.51939876935E+01  0.19649676356E+02  0.00000000000E+00 0.  1.
</event>
<event>
12    1  0.1681255E-001  0.2108795E+03  0.7818608E-02  0.1143384E+00
         21   -1    0    0  501  502  0.00000000000E+00  0.00000000000E+00  0.18814474612E+03  0.18814474612E+03  0.00000000000E+00 0.  1.
         21   -1    0    0  502  503 -0.00000000000E+00 -0.00000000000E+00 -0.22369695844E+03  0.22369695844E+03  0.00000000000E+00 0.  1.
         -6    2    1    2    0  503  0.13089356031E+02  0.98317215268E+02 -0.36231988031E+01  0.19855873386E+03  0.17197336179E+03 0.  0.
        -24    2    3    3    0    0  0.43839629761E+02  0.12684523023E+03  0.10415402862E+01  0.15609372753E+03  0.79702831809E+02 0.  0.
          6    2    1    2  501    0 -0.13089356031E+02 -0.98317215268E+02 -0.31929013518E+02  0.21328297070E+03  0.18609824725E+03 0.  0.
         24    2    5    5    0    0  0.30894523045E+02 -0.12034018157E+03 -0.58315966713E+02  0.15726552733E+03  0.76781920132E+02 0.  0.
          5    1    5    5  501    0 -0.43983879076E+02  0.22022966300E+02  0.26386953195E+02  0.56017443374E+02  0.47000000000E+01 0. -1.
        -13    1    6    6    0    0  0.62764548134E+01 -0.11825127117E+03 -0.59510344381E+02  0.13253014037E+03  0.00000000000E+00 0.  1.
         14    1    6    6    0    0  0.24618068232E+02 -0.20889103989E+01  0.11943776680E+01  0.24735386962E+02  0.00000000000E+00 0. -1.
         -5    1    3    3    0  503 -0.30750273730E+02 -0.28528014961E+02 -0.46647390893E+01  0.42465006333E+02  0.47000000000E+01 0.  1.
         13    1    4    4    0    0  0.21189439406E+02  0.73155103130E+02 -0.38827055681E+02  0.85488020852E+02  0.00000000000E+00 0. -1.
        -14    1    4    4    0    0  0.22650190355E+02  0.53690127098E+02  0.39868595967E+02  0.70605706677E+02  0.00000000000E+00 0.  1.
</event>
<event>
12    1  0.1681255E-001  0.1876899E+03  0.7818608E-02  0.1161602E+00
         21   -1    0    0  503  502  0.00000000000E+00  0.00000000000E+00  0.70167948819E+03  0.70167948819E+03  0.00000000000E+00 0.  1.
         21   -1    0    0  501  503 -0.00000000000E+00 -0.00000000000E+00 -0.57666900036E+02  0.57666900036E+02  0.00000000000E+00 0. -1.
          6    2    1    2  501    0 -0.72191506450E+02 -0.17274349978E+02  0.17162962898E+03  0.25104218916E+03  0.16749756542E+03 0.  0.
         24    2    3    3    0    0 -0.38348888095E+02  0.28643821430E+02  0.17093225515E+03  0.19380253845E+03  0.77784846442E+02 0.  0.
         -6    2    1    2    0  502  0.72191506450E+02  0.17274349978E+02  0.47238295917E+03  0.50830419907E+03  0.17238759208E+03 0.  0.
        -24    2    5    5    0    0 -0.22630345449E+02  0.39308965344E+02  0.25696206741E+03  0.27186190488E+03  0.76302450469E+02 0.  0.
          5    1    3    3  501    0 -0.33842618356E+02 -0.45918171408E+02  0.69737383261E+00  0.57239650705E+02  0.47000000000E+01 0. -1.
        -13    1    4    4    0    0 -0.37107203869E+02  0.53958088387E+02  0.13193235529E+03  0.14729075414E+03  0.00000000000E+00 0.  1.
         14    1    4    4    0    0 -0.12416842258E+01 -0.25314266957E+02  0.38999899852E+02  0.46511784311E+02  0.00000000000E+00 0. -1.
         -5    1    5    5    0  502  0.94821851899E+02 -0.22034615366E+02  0.21542089176E+03  0.23644229419E+03  0.47000000000E+01 0.  1.
         11    1    6    6    0    0 -0.36343251000E+02  0.43814896291E+02  0.10694488069E+03  0.12115190686E+03  0.00000000000E+00 0. -1.
        -12    1    6    6    0    0  0.13712905551E+02 -0.45059309471E+01  0.15001718672E+03  0.15070999803E+03  0.00000000000E+00 0.  1.
</event>
<event>
12    1  0.1681255E-001  0.1733606E+03  0.7818608E-02  0.1174515E+00
         21   -1    0    0  503  502  0.00000000000E+00  0.00000000000E+00  0.22620603605E+03  0.22620603605E+03  0.00000000000E+00 0.  1.
         21   -1    0    0  501  503 -0.00000000000E+00 -0.00000000000E+00 -0.16671239964E+03  0.16671239964E+03  0.00000000000E+00 0.  1.
          6    2    1    2  501    0  0.24101141235E+02 -0.29797353618E+01 -0.59246661721E+02  0.18320494715E+03  0.17165122168E+03 0.  0.
         24    2    3    3    0    0  0.64887030042E+02 -0.41915431829E+02 -0.20868533669E+02  0.11483501298E+03  0.82367192598E+02 0.  0.
         -6    2    1    2    0  502 -0.24101141235E+02  0.29797353618E+01  0.11874029813E+03  0.20971348854E+03  0.17114539154E+03 0.  0.
        -24    2    5    5    0    0  0.38691215851E+02  0.37096535957E+02  0.91762863022E+02  0.13318435555E+03  0.80277558317E+02 0.  0.
          5    1    3    3  501    0 -0.40785888807E+02  0.38935696467E+02 -0.38378128052E+02  0.68369934166E+02  0.47000000000E+01 0. -1.
        -11    1    4    4    0    0 -0.11553272201E+02 -0.14480970718E+02 -0.27711137418E+02  0.33332922891E+02  0.00000000000E+00 0.  1.
         12    1    4    4    0    0  0.76440302243E+02 -0.27434461111E+02  0.68426037488E+01  0.81502090093E+02  0.00000000000E+00 0. -1.
         -5    1    5    5    0  502 -0.62792357086E+02 -0.34116800596E+02  0.26977435109E+02  0.76529132991E+02  0.47000000000E+01 0.  1.
         13    1    6    6    0    0  0.23453729633E+02  0.15219137480E+02 -0.86705733315E+01  0.29272485737E+02  0.00000000000E+00 0. -1.
        -14    1    6    6    0    0  0.15237486218E+02  0.21877398478E+02  0.10043343635E+03  0.10391186981E+03  0.00000000000E+00 0.  1.
</event>
<event>
12    1  0.1681255E-001  0.1770811E+03  0.7818608E-02  0.1171026E+00
         21   -1    0    0  501  502  0.00000000000E+00  0.00000000000E+00  0.14205459738E+03  0.14205459738E+03  0.00000000000E+00 0.  1.
         21   -1    0    0  502  503 -0.00000000000E+00 -0.00000000000E+00 -0.30178065665E+03  0.30178065665E+03  0.00000000000E+00 0.  1.
         -6    2    1    2    0  503 -0.32230377070E+02 -0.63675894829E+01  0.36189510233E+02  0.18074126946E+03  0.17400684593E+03 0.  0.
        -24    2    3    3    0    0 -0.36336819089E+02  0.57044507973E+02  0.64716898094E+02  0.11092824182E+03  0.59517708482E+02 0.  0.
          6    2    1    2  501    0  0.32230377070E+02  0.63675894829E+01 -0.19591556950E+03  0.26309398457E+03  0.17249982882E+03 0.  0.
         24    2    5    5    0    0  0.27267860637E+02  0.68013731073E+02 -0.94340771373E+02  0.14407968729E+03  0.80556634167E+02 0.  0.
          5    1    5    5  501    0  0.49625164331E+01 -0.61646141590E+02 -0.10157479813E+03  0.11901429728E+03  0.47000000000E+01 0. -1.
        -13    1    6    6    0    0  0.15685314938E+02  0.33892195313E+02  0.56715335518E+01  0.37774016210E+02  0.00000000000E+00 0.  1.
         14    1    6    6    0    0  0.11582545699E+02  0.34121535761E+02 -0.10001230492E+03  0.10630567108E+03  0.00000000000E+00 0. -1.
         -5    1    3    3    0  503  0.41064420186E+01 -0.63412097456E+02 -0.28527387860E+02  0.69813027638E+02  0.47000000000E+01 0.  1.
         11    1    4    4    0    0  0.67562332953E+01  0.44282164205E+02  0.37227613696E+02  0.58244759219E+02  0.00000000000E+00 0. -1.
        -12    1    4    4    0    0 -0.43093052384E+02  0.12762343768E+02  0.27489284398E+02  0.52683482601E+02  0.00000000000E+00 0.  1.
</event>
<event>
12    1  0.1681255E-001  0.1851997E+03  0.7818608E-02  0.1164398E+00
         21   -1    0    0  503  502  0.00000000000E+00  0.00000000000E+00  0.21372606998E+03  0.21372606998E+03  0.00000000000E+00 0. -1.
         21   -1    0    0  501  503 -0.00000000000E+00 -0.00000000000E+00 -0.31691647669E+03  0.31691647669E+03  0.00000000000E+00 0. -1.
          6    2    1    2  501    0 -0.25817569367E+02  0.20355522012E+02 -0.24081820676E+03  0.29990390021E+03  0.17569304621E+03 0.  0.
         24    2    3    3    0    0 -0.42050999877E+02  0.75168560294E+02 -0.13108782324E+03  0.17608612886E+03  0.80023173700E+02 0.  0.
         -6    2    1    2    0  502  0.25817569367E+02 -0.20355522012E+02  0.13762780005E+03  0.23073864646E+03  0.18225810671E+03 0.  0.
        -24    2    5    5    0    0 -0.10531230123E+02 -0.49598411446E+02  0.11082700400E+02  0.95786306533E+02  0.80506403752E+02 0.  0.
          5    1    3    3  501    0  0.16233430510E+02 -0.54813038283E+02 -0.10973038352E+03  0.12381777134E+03  0.47000000000E+01 0. -1.
        -11    1    4    4    0    0 -0.48658310467E+02  0.26791218103E+02 -0.10932973149E+03  0.12263111649E+03  0.00000000000E+00 0.  1.
         12    1    4    4    0    0  0.66073105894E+01  0.48377342192E+02 -0.21758091748E+02  0.53455012368E+02  0.00000000000E+00 0. -1.
         -5    1    5    5    0  502  0.36348799490E+02  0.29242889435E+02  0.12654509965E+03  0.13495233993E+03  0.47000000000E+01 0.  1.
         11    1    6    6    0    0 -0.43917640361E+02 -0.19208675663E+02 -0.42125397102E+01  0.48119412365E+02  0.00000000000E+00 0. -1.
        -12    1    6    6    0    0  0.33386410238E+02 -0.30389735783E+02  0.15295240110E+02  0.47666894168E+02  0.00000000000E+00 0.  1.
</event>
<event>
12    1  0.1681255E-001  0.1890630E+03  0.7818608E-02  0.1159678E+00
         21   -1    0    0  501  502  0.00000000000E+00  0.00000000000E+00  0.40948962681E+03  0.40948962681E+03  0.00000000000E+00 0. -1.
         21   -1    0    0  502  503 -0.00000000000E+00 -0.00000000000E+00 -0.10770728496E+03  0.10770728496E+03  0.00000000000E+00 0.  1.
         -6    2    1    2    0  503  0.38370493278E+02 -0.67837249461E+02  0.35745815618E+02  0.19082252337E+03  0.17047370743E+03 0.  0.
        -24    2    3    3    0    0  0.61860590108E+02  0.14475935323E+02  0.68823978884E+01  0.10036572749E+03  0.77392677573E+02 0.  0.
          6    2    1    2  501    0 -0.38370493278E+02  0.67837249461E+02  0.26603652623E+03  0.32637438840E+03  0.17225162102E+03 0.  0.
         24    2    5    5    0    0 -0.37769997092E+02 -0.14943875021E+02  0.59022276782E+02  0.10337200132E+03  0.74513417717E+02 0.  0.
          5    1    5    5  501    0 -0.60049618651E+00  0.82781124481E+02  0.20701424945E+03  0.22300238707E+03  0.47000000000E+01 0. -1.
        -11    1    6    6    0    0 -0.22350628989E+02 -0.45467868920E+02  0.35700028072E+02  0.61978784472E+02  0.00000000000E+00 0.  1.
         12    1    6    6    0    0 -0.15419368103E+02  0.30523993899E+02  0.23322248710E+02  0.41393216850E+02  0.00000000000E+00 0. -1.
         -5    1    3    3    0  503 -0.23490096830E+02 -0.82313184784E+02  0.28863417730E+02  0.90456795883E+02  0.47000000000E+01 0.  1.
         11    1    4    4    0    0  0.19013807388E+02 -0.30115855777E+01  0.39368799127E+02  0.43823473890E+02  0.00000000000E+00 0. -1.
        -12    1    4    4    0    0  0.42846782720E+02  0.17487520901E+02 -0.32486401239E+02  0.56542253600E+02  0.00000000000E+00 0.  1.
</event>
<event>
12    1  0.1681255E-001  0.4329878E+03  0.7818608E-02  0.1033006E+00
         21   -1    0    0  503  502  0.00000000000E+00  0.00000000000E+00  0.67773629656E+03  0.67773629656E+03  0.00000000000E+00 0.  1.
         21   -1    0    0  501  503 -0.00000000000E+00 -0.00000000000E+00 -0.30292708492E+03  0.30292708492E+03  0.00000000000E+00 0. -1.
          6    2    1    2  501    0  0.17400960862E+03  0.35687057571E+03  0.41225245933E+02  0.43494594548E+03  0.17274982746E+03 0.  0.
         24    2    3    3    0    0  0.11673269415E+03  0.30969769739E+03  0.81831523036E+02  0.35022944697E+03  0.80156607397E+02 0.  0.
         -6    2    1    2    0  502 -0.17400960862E+03 -0.35687057571E+03  0.33358396570E+03  0.54571743600E+03  0.16998031087E+03 0.  0.
        -24    2    5    5    0    0 -0.85930811397E+02 -0.16503855017E+03  0.84887878518E+02  0.21948249869E+03  0.79654177053E+02 0.  0.
          5    1    3    3  501    0  0.57276914463E+02  0.47172878321E+02 -0.40606277103E+02  0.84716498510E+02  0.47000000000E+01 0. -1.
        -13    1    4    4    0    0  0.14949107113E+02  0.35682526621E+02  0.38762033787E+02  0.54765078041E+02  0.00000000000E+00 0.  1.
         14    1    4    4    0    0  0.10178358704E+03  0.27401517077E+03  0.43069489249E+02  0.29546436893E+03  0.00000000000E+00 0. -1.
         -5    1    5    5    0  502 -0.88078797220E+02 -0.19183202554E+03  0.24869608718E+03  0.32623493731E+03  0.47000000000E+01 0.  1.
         13    1    6    6    0    0 -0.91706911690E+02 -0.15491988347E+03  0.95440642741E+02  0.20376271551E+03  0.00000000000E+00 0. -1.
        -14    1    6    6    0    0  0.57761002930E+01 -0.10118666703E+02 -0.10552764224E+02  0.15719783179E+02  0.00000000000E+00 0.  1.
</event>
<event>
12    1  0.1681255E-001  0.2264963E+03  0.7818608E-02  0.1129480E+00
         21   -1    0    0  503  502  0.00000000000E+00  0.00000000000E+00  0.31071332508E+03  0.31071332508E+03  0.00000000000E+00 0.  1.
         21   -1    0    0  501  503 -0.00000000000E+00 -0.00000000000E+00 -0.52017630729E+03  0.52017630729E+03  0.00000000000E+00 0.  1.
          6    2    1    2  501    0  0.18029019322E+02 -0.14267892206E+03 -0.44850834028E+03  0.50158239356E+03  0.17246114313E+03 0.  0.
         24    2    3    3    0    0  0.20362976930E+02 -0.60201036247E+02 -0.91636714466E+02  0.13526627827E+03  0.76556273452E+02 0.  0.
         -6    2    1    2    0  502 -0.18029019322E+02  0.14267892206E+03  0.23904535806E+03  0.32930723881E+03  0.17498072461E+03 0.  0.
        -24    2    5    5    0    0 -0.31034100754E+02  0.10559223719E+03  0.64784431313E+02  0.15060772866E+03  0.79830003297E+02 0.  0.
          5    1    3    3  501    0 -0.23339576077E+01 -0.82477885808E+02 -0.35687162582E+03  0.36631611529E+03  0.47000000000E+01 0. -1.
        -13    1    4    4    0    0 -0.22162800773E+02 -0.10066730439E+02 -0.54670777293E+02  0.59844988843E+02  0.00000000000E+00 0.  1.
         14    1    4    4    0    0  0.42525777703E+02 -0.50134305808E+02 -0.36965937174E+02  0.75421289430E+02  0.00000000000E+00 0. -1.
         -5    1    5    5    0  502  0.13005081431E+02  0.37086684864E+02  0.17426092675E+03  0.17869951015E+03  0.47000000000E+01 0.  1.
         13    1    6    6    0    0 -0.11186292765E+02  0.70769195899E+02 -0.31645146105E+01  0.71717685314E+02  0.00000000000E+00 0. -1.
        -14    1    6    6    0    0 -0.19847807989E+02  0.34823041292E+02  0.67948945923E+02  0.78890043344E+02  0.00000000000E+00 0.  1.
</event>
<event>
12    1  0.1681255E-001  0.1977973E+03  0.7818608E-02  0.1152274E+00
         21   -1    0    0  503  502  0.00000000000E+00  0.00000000000E+00  0.83509601096E+03  0.83509601096E+03  0.00000000000E+00 0. -1.
         21   -1    0    0  501  503 -0.00000000000E+00 -0.00000000000E+00 -0.49321271955E+02  0.49321271955E+02  0.00000000000E+00 0. -1.
          6    2    1    2  501    0  0.73129057527E+02 -0.53369192131E+02  0.27743734738E+03  0.33895357016E+03  0.17240043875E+03 0.  0.
         24    2    3    3    0    0  0.68738953704E+02 -0.53833824165E+02  0.92151150669E+02  0.15355520559E+03  0.86395846046E+02 0.  0.
         -6    2    1    2    0  502 -0.73129057527E+02  0.53369192131E+02  0.50833739163E+03  0.54546371276E+03  0.17586252722E+03 0.  0.
        -24    2    5    5    0    0 -0.10918282064E+03  0.59812345084E+02  0.30953068270E+03  0.34325692362E+03  0.80732070063E+02 0.  0.
          5    1    3    3  501    0  0.43901038221E+01  0.46463203443E+00  0.18528619671E+03  0.18539836457E+03  0.47000000000E+01 0. -1.
        -13    1    4    4    0    0  0.58588971211E+02  0.56734512059E+01  0.63980934281E+02  0.86939148532E+02  0.00000000000E+00 0.  1.
         14    1    4    4    0    0  0.10149982494E+02 -0.59507275371E+02  0.28170216388E+02  0.66616057059E+02  0.00000000000E+00 0. -1.
         -5    1    5    5    0  502  0.36053763114E+02 -0.64431529528E+01  0.19880670893E+03  0.20220678913E+03  0.47000000000E+01 0.  1.
         13    1    6    6    0    0 -0.14386760425E+02  0.49698550326E+02  0.87982783307E+02  0.10206808972E+03  0.00000000000E+00 0. -1.
        -14    1    6    6    0    0 -0.94796060215E+02  0.10113794758E+02  0.22154789939E+03  0.24118883391E+03  0.00000000000E+00 0.  1.
</event>
<event>
12    1  0.1681255E-001  0.2050902E+03  0.7818608E-02  0.1146755E+00
         21   -1    0    0  501  502  0.00000000000E+00  0.00000000000E+00  0.28868362648E+03  0.28868362648E+03  0.00000000000E+00 0. -1.
         21   -1    0    0  502  503 -0.00000000000E+00 -0.00000000000E+00 -0.21053525627E+03  0.21053525627E+03  0.00000000000E+00 0.  1.
         -6    2    1    2    0  503  0.85740740207E+02  0.47616629384E+02 -0.10425477305E+03  0.22475052188E+03  0.17327700787E+03 0.  0.
        -24    2    3    3    0    0  0.90702003901E+02  0.81967639801E+01 -0.13079798471E+03  0.17673831499E+03  0.76382450396E+02 0.  0.
          6    2    1    2  501    0 -0.85740740207E+02 -0.47616629384E+02  0.18240314326E+03  0.27446836087E+03  0.18011983933E+03 0.  0.
         24    2    5    5    0    0 -0.50189819004E+02  0.44798930745E+02  0.33894202539E+02  0.95914449603E+02  0.59370047578E+02 0.  0.
          5    1    5    5  501    0 -0.35550921202E+02 -0.92415560129E+02  0.14850894072E+03  0.17855391126E+03  0.47000000000E+01 0. -1.
        -11    1    6    6    0    0 -0.15691325856E+02  0.26346291655E+01 -0.15619706392E+02  0.22296506581E+02  0.00000000000E+00 0.  1.
         12    1    6    6    0    0 -0.34498493149E+02  0.42164301579E+02  0.49513908931E+02  0.73617943022E+02  0.00000000000E+00 0. -1.
         -5    1    3    3    0  503 -0.49612636946E+01  0.39419865404E+02  0.26543211658E+02  0.48012206897E+02  0.47000000000E+01 0.  1.
         13    1    4    4    0    0 -0.12491314288E+01 -0.21797956373E+02 -0.19356588046E+02  0.29178566315E+02  0.00000000000E+00 0. -1.
        -14    1    4    4    0    0  0.91951135330E+02  0.29994720354E+02 -0.11144139667E+03  0.14755974867E+03  0.00000000000E+00 0.  1.
</event>
<event>
12    1  0.1681255E-001  0.1934515E+03  0.7818608E-02  0.1155478E+00
         21   -1    0    0  503  502  0.00000000000E+00  0.00000000000E+00  0.21346159481E+03  0.21346159481E+03  0.00000000000E+00 0.  1.
         21   -1    0    0  501  503 -0.00000000000E+00 -0.00000000000E+00 -0.17493744937E+03  0.17493744937E+03  0.00000000000E+00 0.  1.
          6    2    1    2  501    0  0.84270048148E+02 -0.23131035556E+02  0.20072104561E+02  0.19449003228E+03  0.17258910004E+03 0.  0.
         24    2    3    3    0    0  0.14086235739E+02  0.43256574601E+02 -0.11053661185E+02  0.92883016772E+02  0.80221680957E+02 0.  0.
         -6    2    1    2    0  502 -0.84270048148E+02  0.23131035556E+02  0.18452040883E+02  0.19390901190E+03  0.17211548815E+03 0.  0.
        -24    2    5    5    0    0 -0.13244909224E+02  0.55720301548E+02 -0.34627292158E+02  0.99324995208E+02  0.73390910104E+02 0.  0.
          5    1    3    3  501    0  0.70183812409E+02 -0.66387610158E+02  0.31125765746E+02  0.10160701551E+03  0.47000000000E+01 0. -1.
        -11    1    4    4    0    0  0.13812749155E+02 -0.22452651084E+02 -0.55825938562E+01  0.26945851890E+02  0.00000000000E+00 0.  1.
         12    1    4    4    0    0  0.27348658433E+00  0.65709225685E+02 -0.54710673288E+01  0.65937164883E+02  0.00000000000E+00 0. -1.
         -5    1    5    5    0  502 -0.71025138924E+02 -0.32589265992E+02  0.53079333041E+02  0.94584016689E+02  0.47000000000E+01 0.  1.
         13    1    6    6    0    0 -0.70875492841E+01  0.30027287402E+02 -0.56928076386E+02  0.64750885899E+02  0.00000000000E+00 0. -1.
        -14    1    6    6    0    0 -0.61573599403E+01  0.25693014146E+02  0.22300784229E+02  0.34574109310E+02  0.00000000000E+00 0.  1.
</event>
<event>
12    1  0.1681255E-001  0.1976204E+03  0.7818608E-02  0.1152897E+00
         21   -1    0    0  503  502  0.00000000000E+00  0.00000000000E+00  0.42791449638E+02  0.42791449638E+02  0.00000000000E+00 0.  1.
         21   -1    0    0  501  503 -0.00000000000E+00 -0.00000000000E+00 -0.89156332310E+03  0.89156332310E+03  0.00000000000E+00 0. -1.
          6    2    1    2  501    0  0.26651064913E+02  0.82904378694E+02 -0.45651427173E+03  0.49745259732E+03  0.17739896003E+03 0.  0.
         24    2    3    3    0    0 -0.29970141733E+02  0.10281095194E+03 -0.26980277430E+03  0.30127536630E+03  0.80653630318E+02 0.  0.
         -6    2    1    2    0  502 -0.26651064913E+02 -0.82904378694E+02 -0.39225760174E+03  0.43690217542E+03  0.17156360191E+03 0.  0.
        -24    2    5    5    0    0 -0.58025934678E+02 -0.11107277223E+03 -0.30641391821E+03  0.34114692048E+03  0.82386663093E+02 0.  0.
          5    1    3    3  501    0  0.56621206646E+02 -0.19906573243E+02 -0.18671149742E+03  0.19617723102E+03  0.47000000000E+01 0. -1.
        -11    1    4    4    0    0  0.25785910116E+02  0.21003818456E+02 -0.48162271209E+02  0.58529291113E+02  0.00000000000E+00 0.  1.
         12    1    4    4    0    0 -0.55756051849E+02  0.81807133481E+02 -0.22164050310E+03  0.24274607519E+03  0.00000000000E+00 0. -1.
         -5    1    5    5    0  502  0.31374869764E+02  0.28168393535E+02 -0.85843683531E+02  0.95755254943E+02  0.47000000000E+01 0.  1.
         13    1    6    6    0    0 -0.35228999057E+02 -0.85003236548E+02 -0.11829935755E+03  0.14987118000E+03  0.00000000000E+00 0. -1.
        -14    1    6    6    0    0 -0.22796935620E+02 -0.26069535681E+02 -0.18811456066E+03  0.19127574048E+03  0.00000000000E+00 0.  1.
</event>
<event>
12    1  0.1681255E-001  0.1834462E+03  0.7818608E-02  0.1164639E+00
         21   -1    0    0  501  502  0.00000000000E+00  0.00000000000E+00  0.41064386939E+03  0.41064386939E+03  0.00000000000E+00 0. -1.
         21   -1    0    0  502  503 -0.00000000000E+00 -0.00000000000E+00 -0.82109861404E+02  0.82109861404E+02  0.00000000000E+00 0. -1.
         -6    2    1    2    0  503 -0.16742295476E+02 -0.62192517961E+02  0.18183664951E+03  0.25829651302E+03  0.17176818036E+03 0.  0.
        -24    2    3    3    0    0  0.35175567086E+02 -0.29644693385E+02  0.35140333156E+02  0.99247072375E+02  0.80616437499E+02 0.  0.
          6    2    1    2  501    0  0.16742295476E+02  0.62192517961E+02  0.14669735847E+03  0.23445721777E+03  0.17117785556E+03 0.  0.
         24    2    5    5    0    0 -0.47555454900E+02  0.61903125879E+02  0.60492263059E+02  0.12681107094E+03  0.79550081959E+02 0.  0.
          5    1    5    5  501    0  0.64297750376E+02  0.28939208278E+00  0.86205095413E+02  0.10764614683E+03  0.47000000000E+01 0. -1.
        -13    1    6    6    0    0 -0.34251792942E+01  0.25490098352E+02 -0.16746112476E+02  0.30690540078E+02  0.00000000000E+00 0.  1.
         14    1    6    6    0    0 -0.44130275606E+02  0.36413027527E+02  0.77238375536E+02  0.96120530867E+02  0.00000000000E+00 0. -1.
         -5    1    3    3    0  503 -0.51917862562E+02 -0.32547824577E+02  0.14669631636E+03  0.15904944065E+03  0.47000000000E+01 0.  1.
         11    1    4    4    0    0  0.18513022525E+02  0.26051812015E+02  0.24206712037E+02  0.40092316220E+02  0.00000000000E+00 0. -1.
        -12    1    4    4    0    0  0.16662544561E+02 -0.55696505400E+02  0.10933621119E+02  0.59154756155E+02  0.00000000000E+00 0.  1.
</event>
<event>
12    1  0.1681255E-001  0.2282554E+03  0.7818608E-02  0.1128742E+00
         21   -1    0    0  501  502  0.00000000000E+00  0.00000000000E+00  0.22127446372E+03  0.22127446372E+03  0.00000000000E+00 0. -1.
         21   -1    0    0  502  503 -0.00000000000E+00 -0.00000000000E+00 -0.54682557172E+03  0.54682557172E+03  0.00000000000E+00 0.  1.
         -6    2    1    2    0  503 -0.45438825126E+02  0.13813491965E+03 -0.45413357449E+03  0.50611913776E+03  0.16962704759E+03 0.  0.
        -24    2    3    3    0    0 -0.30532863676E+00  0.18716596494E+02 -0.27068189162E+03  0.28256963908E+03  0.78908239565E+02 0.  0.
          6    2    1    2  501    0  0.45438825126E+02 -0.13813491965E+03  0.12858246649E+03  0.26198089768E+03  0.17593918610E+03 0.  0.
         24    2    5    5    0    0  0.14990621206E+02 -0.11861447563E+03  0.17495253825E+02  0.14505955799E+03  0.80262562288E+02 0.  0.
          5    1    5    5  501    0  0.30448203920E+02 -0.19520444024E+02  0.11108721267E+03  0.11692133969E+03  0.47000000000E+01 0. -1.
        -11    1    6    6    0    0  0.42465704107E+02 -0.86008916602E+02  0.30210232859E+02  0.10056603766E+03  0.00000000000E+00 0.  1.
         12    1    6    6    0    0 -0.27475082901E+02 -0.32605559026E+02 -0.12714979035E+02  0.44493520334E+02  0.00000000000E+00 0. -1.
         -5    1    3    3    0  503 -0.45133496489E+02  0.11941832316E+03 -0.18345168288E+03  0.22354949868E+03  0.47000000000E+01 0.  1.
         11    1    4    4    0    0 -0.56976157853E+01 -0.19125313053E+02 -0.20936694617E+03  0.21031585431E+03  0.00000000000E+00 0. -1.
        -12    1    4    4    0    0  0.53922871485E+01  0.37841909547E+02 -0.61314945449E+02  0.72253784775E+02  0.00000000000E+00 0.  1.
</event>
<event>
12    1  0.1681255E-001  0.2765310E+03  0.7818608E-02  0.1097631E+00
         21   -1    0    0  503  502  0.00000000000E+00  0.00000000000E+00  0.12070011839E+03  0.12070011839E+03  0.00000000000E+00 0.  1.
         21   -1    0    0  501  503 -0.00000000000E+00 -0.00000000000E+00 -0.63303087304E+03  0.63303087304E+03  0.00000000000E+00 0. -1.
          6    2    1    2  501    0 -0.21299413075E+03  0.33538597216E+02 -0.25423215996E+03  0.37563728740E+03  0.17314168560E+03 0.  0.
         24    2    3    3    0    0 -0.18891236072E+03  0.77353725277E+02 -0.17065129946E+03  0.27813063462E+03  0.81014227514E+02 0.  0.
         -6    2    1    2    0  502  0.21299413075E+03 -0.33538597216E+02 -0.25809859469E+03  0.37809370402E+03  0.17276755252E+03 0.  0.
        -24    2    5    5    0    0  0.12040808183E+03 -0.56767600688E+02 -0.81870681282E+02  0.17761894122E+03  0.84409793090E+02 0.  0.
          5    1    3    3  501    0 -0.24081770030E+02 -0.43815128061E+02 -0.83580860506E+02  0.97506652786E+02  0.47000000000E+01 0. -1.
        -11    1    4    4    0    0 -0.43447283349E+02  0.50322685996E+02 -0.82317893978E+02  0.10581245118E+03  0.00000000000E+00 0.  1.
         12    1    4    4    0    0 -0.14546507737E+03  0.27031039281E+02 -0.88333405479E+02  0.17231818344E+03  0.00000000000E+00 0. -1.
         -5    1    5    5    0  502  0.92586048918E+02  0.23229003472E+02 -0.17622791340E+03  0.20047476280E+03  0.47000000000E+01 0.  1.
         11    1    6    6    0    0  0.78138842439E+02  0.52450582172E+01 -0.21252693031E+02  0.81147189074E+02  0.00000000000E+00 0. -1.
        -12    1    6    6    0    0  0.42269239392E+02 -0.62012658905E+02 -0.60617988251E+02  0.96471752150E+02  0.00000000000E+00 0.  1.
</event>
<event>
12    1  0.1681255E-001  0.2146980E+03  0.7818608E-02  0.1138018E+00
         21   -1    0    0  501  502  0.00000000000E+00  0.00000000000E+00  0.23250625972E+04  0.23250625972E+04  0.00000000000E+00 0. -1.
         21   -1    0    0  502  503 -0.00000000000E+00 -0.00000000000E+00 -0.21516668548E+02  0.21516668548E+02  0.00000000000E+00 0. -1.
         -6    2    1    2    0  503 -0.52384521086E+01  0.12718298669E+03  0.81576375609E+03  0.84338565587E+03  0.17212177462E+03 0.  0.
        -24    2    3    3    0    0  0.44852519598E+02  0.93987291570E+02  0.35071592733E+03  0.37444788531E+03  0.79775921444E+02 0.  0.
          6    2    1    2  501    0  0.52384521086E+01 -0.12718298669E+03  0.14877821726E+04  0.15031936099E+04  0.17289384691E+03 0.  0.
         24    2    5    5    0    0  0.21515862667E+00 -0.67647586572E+01  0.35491725513E+03  0.36392595288E+03  0.80187486191E+02 0.  0.
          5    1    5    5  501    0  0.50232934819E+01 -0.12041822803E+03  0.11328649175E+04  0.11392676570E+04  0.47000000000E+01 0. -1.
        -13    1    6    6    0    0  0.34711561391E+02 -0.10110912510E+02  0.93934237418E+02  0.10065169649E+03  0.00000000000E+00 0.  1.
         14    1    6    6    0    0 -0.34496402764E+02  0.33461538533E+01  0.26098301771E+03  0.26327425640E+03  0.00000000000E+00 0. -1.
         -5    1    3    3    0  503 -0.50090971707E+02  0.33195695116E+02  0.46504782876E+03  0.46893777056E+03  0.47000000000E+01 0.  1.
         13    1    4    4    0    0  0.77089213240E+01  0.80903969592E+02  0.15719628181E+03  0.17696200377E+03  0.00000000000E+00 0. -1.
        -14    1    4    4    0    0  0.37143598274E+02  0.13083321978E+02  0.19351964552E+03  0.19748588154E+03  0.00000000000E+00 0.  1.
</event>
<event>
12    1  0.1681255E-001  0.1958112E+03  0.7818608E-02  0.1153726E+00
         21   -1    0    0  501  502  0.00000000000E+00  0.00000000000E+00  0.11622259300E+03  0.11622259300E+03  0.00000000000E+00 0. -1.
         21   -1    0    0  502  503 -0.00000000000E+00 -0.00000000000E+00 -0.43594114081E+03  0.43594114081E+03  0.00000000000E+00 0. -1.
         -6    2    1    2    0  503  0.56800790442E+02  0.69591079974E+02 -0.29743737515E+03  0.35508892488E+03  0.17190085581E+03 0.  0.
        -24    2    3    3    0    0  0.38048028729E+02  0.80363255252E+02 -0.31160178402E+03  0.32881296037E+03  0.55824598683E+02 0.  0.
          6    2    1    2  501    0 -0.56800790442E+02 -0.69591079974E+02 -0.22281172665E+02  0.19707480894E+03  0.17399075106E+03 0.  0.
         24    2    5    5    0    0 -0.87797128151E+02 -0.42845455410E+01 -0.35255531020E+02  0.12348037731E+03  0.79232304472E+02 0.  0.
          5    1    5    5  501    0  0.30996337710E+02 -0.65306534433E+02  0.12974358355E+02  0.73594431622E+02  0.47000000000E+01 0. -1.
        -11    1    6    6    0    0  0.95286000834E+01 -0.96089641974E+01 -0.20985119593E+02  0.24970015155E+02  0.00000000000E+00 0.  1.
         12    1    6    6    0    0 -0.97325728235E+02  0.53244186564E+01 -0.14270411427E+02  0.98510362159E+02  0.00000000000E+00 0. -1.
         -5    1    3    3    0  503  0.18752761713E+02 -0.10772175278E+02  0.14164408871E+02  0.26275964507E+02  0.47000000000E+01 0.  1.
         11    1    4    4    0    0 -0.48711376616E+01  0.23290217052E+02 -0.15348711100E+03  0.15532049265E+03  0.00000000000E+00 0. -1.
        -12    1    4    4    0    0  0.42919166390E+02  0.57073038199E+02 -0.15811467302E+03  0.17349246772E+03  0.00000000000E+00 0.  1.
</event>
<event>
12    1  0.1681255E-001  0.2316760E+03  0.7818608E-02  0.1125470E+00
         21   -1    0    0  501  502  0.00000000000E+00  0.00000000000E+00  0.82583070636E+02  0.82583070636E+02  0.00000000000E+00 0.  1.
         21   -1    0    0  502  503 -0.00000000000E+00 -0.00000000000E+00 -0.69354137780E+03  0.69354137780E+03  0.00000000000E+00 0. -1.
         -6    2    1    2    0  503  0.10901617961E+03  0.11178526068E+03 -0.40287314593E+03  0.46473706201E+03  0.17115283572E+03 0.  0.
        -24    2    3    3    0    0  0.12269123118E+03  0.31111561238E+02 -0.27162926453E+03  0.31000406869E+03  0.79366225843E+02 0.  0.
          6    2    1    2  501    0 -0.10901617961E+03 -0.11178526068E+03 -0.20808516123E+03  0.31138738642E+03  0.17112042011E+03 0.  0.
         24    2    5    5    0    0 -0.77036273082E+02 -0.14057973601E+02 -0.50382002674E+02  0.12306395910E+03  0.80462275900E+02 0.  0.
          5    1    5    5  501    0 -0.31979906525E+02 -0.97727287078E+02 -0.15770315856E+03  0.18832342733E+03  0.47000000000E+01 0. -1.
        -13    1    6    6    0    0 -0.17485955144E+02 -0.56838684979E+01  0.22187559864E+02  0.28815842884E+02  0.00000000000E+00 0.  1.
         14    1    6    6    0    0 -0.59550317937E+02 -0.83741051030E+01 -0.72569562538E+02  0.94248116213E+02  0.00000000000E+00 0. -1.
         -5    1    3    3    0  503 -0.13675051573E+02  0.80673699440E+02 -0.13124388140E+03  0.15473299332E+03  0.47000000000E+01 0.  1.
         13    1    4    4    0    0  0.15817961542E+02 -0.82266410866E+01 -0.11486350364E+03  0.11623902098E+03  0.00000000000E+00 0. -1.
        -14    1    4    4    0    0  0.10687326964E+03  0.39338202325E+02 -0.15676576089E+03  0.19376504770E+03  0.00000000000E+00 0.  1.
</event>
<event>
12    1  0.1681255E-001  0.1761416E+03  0.7818608E-02  0.1171684E+00
         21   -1    0    0  501  502  0.00000000000E+00  0.00000000000E+00  0.32905059870E+03  0.32905059870E+03  0.00000000000E+00 0. -1.
         21   -1    0    0  502  503 -0.00000000000E+00 -0.00000000000E+00 -0.94194060975E+02  0.94194060975E+02  0.00000000000E+00 0. -1.
         -6    2    1    2    0  503 -0.31566437142E+02  0.15572053518E+02  0.11017953289E+03  0.20744328293E+03  0.17220411540E+03 0.  0.
        -24    2    3    3    0    0 -0.44350008655E+02  0.55671388329E+02  0.20560586122E+02  0.10832203408E+03  0.79023405518E+02 0.  0.
          6    2    1    2  501    0  0.31566437142E+02 -0.15572053518E+02  0.12467700484E+03  0.21580137675E+03  0.17258896218E+03 0.  0.
         24    2    5    5    0    0 -0.24292417420E+01 -0.77401784874E+02  0.74569028834E+02  0.12913234467E+03  0.71537995930E+02 0.  0.
          5    1    5    5  501    0  0.33995678884E+02  0.61829731356E+02  0.50107976003E+02  0.86669032079E+02  0.47000000000E+01 0. -1.
        -13    1    6    6    0    0 -0.23611737808E+02 -0.85227908327E+01 -0.45280890201E+00  0.25106914621E+02  0.00000000000E+00 0.  1.
         14    1    6    6    0    0  0.21182496066E+02 -0.68878994041E+02  0.75021837736E+02  0.10402543005E+03  0.00000000000E+00 0. -1.
         -5    1    3    3    0  503  0.12783571513E+02 -0.40099334811E+02  0.89618946767E+02  0.99121248845E+02  0.47000000000E+01 0.  1.
         13    1    4    4    0    0  0.91253464233E+01  0.50352887664E+02  0.11540224229E+01  0.51186101738E+02  0.00000000000E+00 0. -1.
        -14    1    4    4    0    0 -0.53475355079E+02  0.53185006649E+01  0.19406563699E+02  0.57135932343E+02  0.00000000000E+00 0.  1.
</event>
<event>
12    1  0.1681255E-001  0.1875193E+03  0.7818608E-02  0.1165162E+00
         21   -1    0    0  501  502  0.00000000000E+00  0.00000000000E+00  0.59619683121E+02  0.59619683121E+02  0.00000000000E+00 0.  1.
         21   -1    0    0  502  503 -0.00000000000E+00 -0.00000000000E+00 -0.60387422755E+03  0.60387422755E+03  0.00000000000E+00 0.  1.
         -6    2    1    2    0  503  0.12963708208E+02 -0.32277988249E+02 -0.39758765786E+03  0.43959007820E+03  0.18426493132E+03 0.  0.
        -24    2    3    3    0    0 -0.25427423581E+02 -0.86474819256E+02 -0.27291882277E+03  0.29825507216E+03  0.79667785266E+02 0.  0.
          6    2    1    2  501    0 -0.12963708208E+02  0.32277988249E+02 -0.14666688657E+03  0.22390383247E+03  0.16556516639E+03 0.  0.
         24    2    5    5    0    0 -0.45372829270E+02 -0.22761349160E+02 -0.50266011389E+02  0.10816750055E+03  0.81220463080E+02 0.  0.
          5    1    5    5  501    0  0.32409121062E+02  0.55039337408E+02 -0.96400875179E+02  0.11573633192E+03  0.47000000000E+01 0. -1.
        -11    1    6    6    0    0 -0.52266054961E+02  0.16520293793E+02 -0.21000219399E+02  0.58699828134E+02  0.00000000000E+00 0.  1.
         12    1    6    6    0    0  0.68932256910E+01 -0.39281642953E+02 -0.29265791991E+02  0.49467672417E+02  0.00000000000E+00 0. -1.
         -5    1    3    3    0  503  0.38391131789E+02  0.54196831007E+02 -0.12466883509E+03  0.14133500604E+03  0.47000000000E+01 0.  1.
         11    1    4    4    0    0  0.50084543203E+00 -0.88019246823E+02 -0.24396498826E+03  0.25935796528E+03  0.00000000000E+00 0. -1.
        -12    1    4    4    0    0 -0.25928269013E+02  0.15444275679E+01 -0.28953834514E+02  0.38897106879E+02  0.00000000000E+00 0.  1.
</event>
<event>
12    1  0.1681255E-001  0.2039743E+03  0.7818608E-02  0.1146789E+00
         21   -1    0    0  503  502  0.00000000000E+00  0.00000000000E+00  0.93313765052E+03  0.93313765052E+03  0.00000000000E+00 0.  1.
         21   -1    0    0  501  503 -0.00000000000E+00 -0.00000000000E+00 -0.67170341480E+02  0.67170341480E+02  0.00000000000E+00 0. -1.
          6    2    1    2  501    0 -0.10926317444E+03 -0.16344434523E+02  0.14176477424E+03  0.24840043980E+03  0.17146412292E+03 0.  0.
         24    2    3    3    0    0 -0.11717163289E+03  0.12401357813E+02  0.15917480172E+03  0.21355702795E+03  0.79918717805E+02 0.  0.
         -6    2    1    2    0  502  0.10926317444E+03  0.16344434523E+02  0.72420253480E+03  0.75190755220E+03  0.16938144474E+03 0.  0.
        -24    2    5    5    0    0  0.13475267927E+03  0.37521054658E+02  0.50236108495E+03  0.52755541166E+03  0.79887036394E+02 0.  0.
          5    1    3    3  501    0  0.79084584504E+01 -0.28745792335E+02 -0.17410027481E+02  0.34843411844E+02  0.47000000000E+01 0. -1.
        -13    1    4    4    0    0 -0.51051658123E+02 -0.33872739820E+02  0.76693450397E+02  0.98160682729E+02  0.00000000000E+00 0.  1.
         14    1    4    4    0    0 -0.66119974765E+02  0.46274097633E+02  0.82481351327E+02  0.11539634523E+03  0.00000000000E+00 0. -1.
         -5    1    5    5    0  502 -0.25489504829E+02 -0.21176620135E+02  0.22184144984E+03  0.22435214054E+03  0.47000000000E+01 0.  1.
         13    1    6    6    0    0  0.56997637133E+01 -0.19061085928E+02  0.73005900890E+02  0.75668182665E+02  0.00000000000E+00 0. -1.
        -14    1    6    6    0    0  0.12905291555E+03  0.56582140585E+02  0.42935518406E+03  0.45188722899E+03  0.00000000000E+00 0.  1.
</event>
<event>
12    1  0.1681255E-001  0.1946941E+03  0.7818608E-02  0.1154373E+00
         21   -1    0    0  503  502  0.00000000000E+00  0.00000000000E+00  0.23222065667E+03  0.23222065667E+03  0.00000000000E+00 0.  1.
         21   -1    0    0  501  503 -0.00000000000E+00 -0.00000000000E+00 -0.24021364485E+03  0.24021364485E+03  0.00000000000E+00 0.  1.
          6    2    1    2  501    0 -0.99685646108E+01  0.91624601563E+02 -0.13798443566E+03  0.23863254793E+03  0.17149737187E+03 0.  0.
         24    2    3    3    0    0 -0.96766369663E+01 -0.98118729058E+00 -0.90600746991E+01  0.79826067588E+02  0.78711600680E+02 0.  0.
         -6    2    1    2    0  502  0.99685646108E+01 -0.91624601563E+02  0.12999144749E+03  0.23380175359E+03  0.17108782443E+03 0.  0.
        -24    2    5    5    0    0 -0.31397600291E+02 -0.13935179038E+02  0.11575419424E+03  0.14451796250E+03  0.79412905010E+02 0.  0.
          5    1    3    3  501    0 -0.29192764452E+00  0.92605788854E+02 -0.12892436096E+03  0.15880648035E+03  0.47000000000E+01 0. -1.
        -13    1    4    4    0    0 -0.24600232943E+02  0.33595733883E+02 -0.41004144906E+01  0.41840867522E+02  0.00000000000E+00 0.  1.
         14    1    4    4    0    0  0.14923595976E+02 -0.34576921174E+02 -0.49596602085E+01  0.37985200067E+02  0.00000000000E+00 0. -1.
         -5    1    5    5    0  502  0.41366164902E+02 -0.77689422525E+02  0.14237253247E+02  0.89283791087E+02  0.47000000000E+01 0.  1.
         13    1    6    6    0    0 -0.33908526001E+01  0.30952854636E+02  0.27116164002E+02  0.41289992028E+02  0.00000000000E+00 0. -1.
        -14    1    6    6    0    0 -0.28006747691E+02 -0.44888033674E+02  0.88638030237E+02  0.10322797047E+03  0.00000000000E+00 0.  1.
</event>
<event>
12    1  0.1681255E-001  0.2418009E+03  0.7818608E-02  0.1118710E+00
         21   -1    0    0  501  502  0.00000000000E+00  0.00000000000E+00  0.17234855207E+03  0.17234855207E+03  0.00000000000E+00 0.  1.
         21   -1    0    0  502  503 -0.00000000000E+00 -0.00000000000E+00 -0.33957354820E+03  0.33957354820E+03  0.00000000000E+00 0.  1.
         -6    2    1    2    0  503  0.38254747804E+02  0.16535713450E+03 -0.68030133614E+02  0.25118869426E+03  0.17222442737E+03 0.  0.
        -24    2    3    3    0    0 -0.20234954581E+02  0.44931077043E+02 -0.70352426431E+02  0.11720748795E+03  0.79748832317E+02 0.  0.
          6    2    1    2  501    0 -0.38254747804E+02 -0.16535713450E+03 -0.99194862514E+02  0.26073340601E+03  0.17127720398E+03 0.  0.
         24    2    5    5    0    0  0.37339093494E+02 -0.10689909569E+03 -0.27400401519E+02  0.14111607544E+03  0.79632532187E+02 0.  0.
          5    1    5    5  501    0 -0.75593841298E+02 -0.58458038813E+02 -0.71794460995E+02  0.11961733057E+03  0.47000000000E+01 0. -1.
        -11    1    6    6    0    0  0.18796459475E+02 -0.10459302838E+03 -0.45040409604E+02  0.11541943932E+03  0.00000000000E+00 0.  1.
         12    1    6    6    0    0  0.18542634019E+02 -0.23060673048E+01  0.17640008085E+02  0.25696636123E+02  0.00000000000E+00 0. -1.
         -5    1    3    3    0  503  0.58489702384E+02  0.12042605746E+03  0.23222928162E+01  0.13398120631E+03  0.47000000000E+01 0.  1.
         11    1    4    4    0    0 -0.43933801908E+02  0.17018073437E+02 -0.12506431446E+02  0.48746329104E+02  0.00000000000E+00 0. -1.
        -12    1    4    4    0    0  0.23698847327E+02  0.27913003606E+02 -0.57845994984E+02  0.68461158847E+02  0.00000000000E+00 0.  1.
</event>
<event>
12    1  0.1681255E-001  0.1981879E+03  0.7818608E-02  0.1153851E+00
         21   -1    0    0  503  502  0.00000000000E+00  0.00000000000E+00  0.47326789101E+02  0.47326789101E+02  0.00000000000E+00 0.  1.
         21   -1    0    0  501  503 -0.00000000000E+00 -0.00000000000E+00 -0.78180739934E+03  0.78180739934E+03  0.00000000000E+00 0.  1.
          6    2    1    2  501    0 -0.28810752935E+02 -0.66856395058E+02 -0.38109156211E+03  0.42954535498E+03  0.18433284090E+03 0.  0.
         24    2    3    3    0    0 -0.85560465453E+02 -0.35713563054E+02 -0.30888553330E+03  0.33245670244E+03  0.80753541602E+02 0.  0.
         -6    2    1    2    0  502  0.28810752935E+02  0.66856395058E+02 -0.35338904813E+03  0.39958883346E+03  0.17171947892E+03 0.  0.
        -24    2    5    5    0    0 -0.16839887104E+02  0.27336284835E+02 -0.76054956336E+02  0.11571895390E+03  0.81090478123E+02 0.  0.
          5    1    3    3  501    0  0.56749712518E+02 -0.31142832004E+02 -0.72206028804E+02  0.97088652538E+02  0.47000000000E+01 0. -1.
        -11    1    4    4    0    0 -0.14098781328E+02 -0.11589451167E+02 -0.19504803636E+03  0.19590004467E+03  0.00000000000E+00 0.  1.
         12    1    4    4    0    0 -0.71461684125E+02 -0.24124111888E+02 -0.11383749694E+03  0.13655665777E+03  0.00000000000E+00 0. -1.
         -5    1    5    5    0  502  0.45650640039E+02  0.39520110224E+02 -0.27733409180E+03  0.28386987956E+03  0.47000000000E+01 0.  1.
         13    1    6    6    0    0 -0.45953176148E+01  0.25604156823E+02 -0.91962012523E+02  0.95570400951E+02  0.00000000000E+00 0. -1.
        -14    1    6    6    0    0 -0.12244569489E+02  0.17321280117E+01  0.15907056187E+02  0.20148552950E+02  0.00000000000E+00 0.  1.
</event>
<event>
12    1  0.1681255E-001  0.2041209E+03  0.7818608E-02  0.1146376E+00
         21   -1    0    0  503  502  0.00000000000E+00  0.00000000000E+00  0.14180550994E+04  0.14180550994E+04  0.00000000000E+00 0.  1.
         21   -1    0    0  501  503 -0.00000000000E+00 -0.00000000000E+00 -0.38381273545E+02  0.38381273545E+02  0.00000000000E+00 0.  1.
          6    2    1    2  501    0 -0.93094317468E+02 -0.57359789730E+02  0.10438047105E+04  0.10635758603E+04  0.17236194338E+03 0.  0.
         24    2    3    3    0    0 -0.83360211304E+02 -0.24987975291E+02  0.37276432081E+03  0.39166814209E+03  0.82929915721E+02 0.  0.
         -6    2    1    2    0  502  0.93094317468E+02  0.57359789730E+02  0.33586911531E+03  0.39286051261E+03  0.17197273714E+03 0.  0.
        -24    2    5    5    0    0  0.71722178332E+02 -0.15472489863E+02  0.27140538361E+03  0.29316611965E+03  0.83078412654E+02 0.  0.
          5    1    3    3  501    0 -0.97341061639E+01 -0.32371814439E+02  0.67104038972E+03  0.67190771824E+03  0.47000000000E+01 0. -1.
        -13    1    4    4    0    0 -0.43646292561E+02  0.25347855317E+02  0.22502381793E+03  0.23061489817E+03  0.00000000000E+00 0.  1.
         14    1    4    4    0    0 -0.39713918743E+02 -0.50335830608E+02  0.14774050287E+03  0.16105324391E+03  0.00000000000E+00 0. -1.
         -5    1    5    5    0  502  0.21372139135E+02  0.72832279593E+02  0.64463731701E+02  0.99694392956E+02  0.47000000000E+01 0.  1.
         11    1    6    6    0    0 -0.10982245743E+02 -0.13402762193E+02  0.11433278333E+03  0.11563835480E+03  0.00000000000E+00 0. -1.
        -12    1    6    6    0    0  0.82704424075E+02 -0.20697276696E+01  0.15707260028E+03  0.17752776485E+03  0.00000000000E+00 0.  1.
</event>
<event>
12    1  0.1681255E-001  0.2046247E+03  0.7818608E-02  0.1146197E+00
         21   -1    0    0  503  502  0.00000000000E+00  0.00000000000E+00  0.68206227849E+03  0.68206227849E+03  0.00000000000E+00 0.  1.
         21   -1    0    0  501  503 -0.00000000000E+00 -0.00000000000E+00 -0.90169087806E+02  0.90169087806E+02  0.00000000000E+00 0.  1.
          6    2    1    2  501    0  0.89638580085E+02  0.62828897772E+02  0.75426119964E+02  0.21670503354E+03  0.17114153953E+03 0.  0.
         24    2    3    3    0    0  0.86319668900E+02  0.81655795231E+02  0.44519786949E+01  0.14305120832E+03  0.79530333553E+02 0.  0.
         -6    2    1    2    0  502 -0.89638580085E+02 -0.62828897772E+02  0.51646707072E+03  0.55552633276E+03  0.17288356144E+03 0.  0.
        -24    2    5    5    0    0 -0.39043926698E+02  0.34511051637E+02  0.25682721373E+03  0.27362239515E+03  0.78699151954E+02 0.  0.
          5    1    3    3  501    0  0.33189111842E+01 -0.18826897458E+02  0.70974141269E+02  0.73653825211E+02  0.47000000000E+01 0. -1.
        -13    1    4    4    0    0  0.18148959085E+02 -0.14572241091E+02  0.91997432406E+01  0.25027389037E+02  0.00000000000E+00 0.  1.
         14    1    4    4    0    0  0.68170709815E+02  0.96228036322E+02 -0.47477645457E+01  0.11802381929E+03  0.00000000000E+00 0. -1.
         -5    1    5    5    0  502 -0.50594653386E+02 -0.97339949409E+02  0.25963985699E+03  0.28190393761E+03  0.47000000000E+01 0.  1.
         13    1    6    6    0    0 -0.11179244615E+02  0.18353603305E+02  0.83329689038E+01  0.23049265394E+02  0.00000000000E+00 0. -1.
        -14    1    6    6    0    0 -0.27864682083E+02  0.16157448332E+02  0.24849424483E+03  0.25057312976E+03  0.00000000000E+00 0.  1.
</event>
<event>
12    1  0.1681255E-001  0.3249640E+03  0.7818608E-02  0.1073550E+00
         21   -1    0    0  503  502  0.00000000000E+00  0.00000000000E+00  0.51334626455E+03  0.51334626455E+03  0.00000000000E+00 0. -1.
         21   -1    0    0  501  503 -0.00000000000E+00 -0.00000000000E+00 -0.26449276351E+03  0.26449276351E+03  0.00000000000E+00 0.  1.
          6    2    1    2  501    0  0.14843695153E+03 -0.23036997626E+03 -0.60544224693E+02  0.32914251470E+03  0.17194573940E+03 0.  0.
         24    2    3    3    0    0  0.13502960139E+03 -0.19282627595E+03  0.83237358846E+01  0.24942945138E+03  0.82041457107E+02 0.  0.
         -6    2    1    2    0  502 -0.14843695153E+03  0.23036997626E+03  0.30939772573E+03  0.44869651336E+03  0.17463606122E+03 0.  0.
        -24    2    5    5    0    0 -0.12137443435E+03  0.21839690079E+03  0.32223206046E+03  0.41609981843E+03  0.82925258635E+02 0.  0.
          5    1    3    3  501    0  0.13407350134E+02 -0.37543700305E+02 -0.68867960578E+02  0.79713063323E+02  0.47000000000E+01 0. -1.
        -13    1    4    4    0    0  0.10487626034E+03 -0.15383473573E+03 -0.27897114731E+02  0.18826153328E+03  0.00000000000E+00 0.  1.
         14    1    4    4    0    0  0.30153341053E+02 -0.38991540219E+02  0.36220850615E+02  0.61167918099E+02  0.00000000000E+00 0. -1.
         -5    1    5    5    0  502 -0.27062517180E+02  0.11973075465E+02 -0.12834334738E+02  0.32596694930E+02  0.47000000000E+01 0.  1.
         11    1    6    6    0    0 -0.11750686772E+03  0.14081319440E+03  0.20082652421E+03  0.27196969041E+03  0.00000000000E+00 0. -1.
        -12    1    6    6    0    0 -0.38675666295E+01  0.77583706395E+02  0.12140553625E+03  0.14413012802E+03  0.00000000000E+00 0.  1.
</event>
<event>
12    1  0.1681255E-001  0.2328747E+03  0.7818608E-02  0.1124668E+00
         21   -1    0    0  501  502  0.00000000000E+00  0.00000000000E+00  0.60434059427E+02  0.60434059427E+02  0.00000000000E+00 0. -1.
         21   -1    0    0  502  503 -0.00000000000E+00 -0.00000000000E+00 -0.90813253667E+03  0.90813253667E+03  0.00000000000E+00 0.  1.
         -6    2    1    2    0  503  0.15663759215E+03 -0.77819075464E+01 -0.47867871719E+03  0.53231939071E+03  0.17214739638E+03 0.  0.
        -24    2    3    3    0    0  0.59836802933E+02 -0.60427159604E+01 -0.89500266769E+02  0.13125159862E+03  0.74831323575E+02 0.  0.
          6    2    1    2  501    0 -0.15663759215E+03  0.77819075464E+01 -0.36901976006E+03  0.43624720539E+03  0.17187247464E+03 0.  0.
         24    2    5    5    0    0 -0.11629270969E+03 -0.72245657337E+01 -0.36648179710E+03  0.39287169344E+03  0.80393228696E+02 0.  0.
          5    1    5    5  501    0 -0.40344882460E+02  0.15006473280E+02 -0.25379629538E+01  0.43375511950E+02  0.47000000000E+01 0. -1.
        -13    1    6    6    0    0 -0.90891272391E+02  0.19976343543E+02 -0.17914978513E+03  0.20187848625E+03  0.00000000000E+00 0.  1.
         14    1    6    6    0    0 -0.25401437296E+02 -0.27200909276E+02 -0.18733201197E+03  0.19099320719E+03  0.00000000000E+00 0. -1.
         -5    1    3    3    0  503  0.96800789214E+02 -0.17391915861E+01 -0.38917845042E+03  0.40106779209E+03  0.47000000000E+01 0.  1.
         13    1    4    4    0    0 -0.49991569948E+01  0.23519609561E+02 -0.29796486710E+02  0.38288304021E+02  0.00000000000E+00 0. -1.
        -14    1    4    4    0    0  0.64835959928E+02 -0.29562325521E+02 -0.59703780059E+02  0.92963294602E+02  0.00000000000E+00 0.  1.
</event>
<event>
12    1  0.1681255E-001  0.1775838E+03  0.7818608E-02  0.1170448E+00
         21   -1    0    0  503  502  0.00000000000E+00  0.00000000000E+00  0.26762036933E+03  0.26762036933E+03  0.00000000000E+00 0.  1.
         21   -1    0    0  501  503 -0.00000000000E+00 -0.00000000000E+00 -0.13143159140E+03  0.13143159140E+03  0.00000000000E+00 0.  1.
          6    2    1    2  501    0 -0.42003320591E+02  0.10702866862E+02  0.19446853712E+01  0.17643684798E+03  0.17101856398E+03 0.  0.
         24    2    3    3    0    0 -0.49630960126E+02 -0.45834855579E+02  0.38181141336E+02  0.10868830051E+03  0.76100465999E+02 0.  0.
         -6    2    1    2    0  502  0.42003320591E+02 -0.10702866862E+02  0.13424409256E+03  0.22261511276E+03  0.17221260622E+03 0.  0.
        -24    2    5    5    0    0  0.52854806222E+02 -0.67241244507E+02  0.73508876265E+02  0.13879865026E+03  0.80910412933E+02 0.  0.
          5    1    3    3  501    0  0.76276395348E+01  0.56537722440E+02 -0.36236455965E+02  0.67748547472E+02  0.47000000000E+01 0. -1.
        -11    1    4    4    0    0 -0.46776803041E+02 -0.30846420519E+02 -0.11081286803E+02  0.57117124217E+02  0.00000000000E+00 0.  1.
         12    1    4    4    0    0 -0.28541570847E+01 -0.14988435060E+02  0.49262428139E+02  0.51571176294E+02  0.00000000000E+00 0. -1.
         -5    1    5    5    0  502 -0.10851485631E+02  0.56538377645E+02  0.60735216292E+02  0.83816462495E+02  0.47000000000E+01 0.  1.
         13    1    6    6    0    0  0.71839247690E+02 -0.62199922505E+02  0.71764040276E+02  0.11907890386E+03  0.00000000000E+00 0. -1.
        -14    1    6    6    0    0 -0.18984441469E+02 -0.50413220018E+01  0.17448359895E+01  0.19719746399E+02  0.00000000000E+00 0.  1.
</event>
<event>
12    1  0.1681255E-001  0.1928443E+03  0.7818608E-02  0.1155942E+00
         21   -1    0    0  503  502  0.00000000000E+00  0.00000000000E+00  0.18918069561E+04  0.18918069561E+04  0.00000000000E+00 0. -1.
         21   -1    0    0  501  503 -0.00000000000E+00 -0.00000000000E+00 -0.43083726262E+02  0.43083726262E+02  0.00000000000E+00 0. -1.
          6    2    1    2  501    0  0.85778273862E+02 -0.12023979725E+02  0.21094408349E+03  0.28580823299E+03  0.17229756623E+03 0.  0.
         24    2    3    3    0    0  0.37851800706E+01  0.28930136204E+02  0.15818043514E+03  0.17994889410E+03  0.80680072265E+02 0.  0.
         -6    2    1    2    0  502 -0.85778273862E+02  0.12023979725E+02  0.16377791463E+04  0.16490824494E+04  0.17219147560E+03 0.  0.
        -24    2    5    5    0    0 -0.64238643068E+01  0.59486730959E+02  0.10742460547E+04  0.10779944785E+04  0.66989346112E+02 0.  0.
          5    1    3    3  501    0  0.81993093791E+02 -0.40954115928E+02  0.52763648354E+02  0.10585933888E+03  0.47000000000E+01 0. -1.
        -13    1    4    4    0    0 -0.26026522078E+01 -0.25629701627E+02  0.82534363088E+02  0.86461416218E+02  0.00000000000E+00 0.  1.
         14    1    4    4    0    0  0.63878322784E+01  0.54559837831E+02  0.75646072048E+02  0.93487477887E+02  0.00000000000E+00 0. -1.
         -5    1    5    5    0  502 -0.79354409555E+02 -0.47462751235E+02  0.56353309163E+03  0.57108797083E+03  0.47000000000E+01 0.  1.
         11    1    6    6    0    0 -0.32578918508E+02  0.10616862737E+02  0.43840276488E+03  0.43973979574E+03  0.00000000000E+00 0. -1.
        -12    1    6    6    0    0  0.26155054202E+02  0.48869868222E+02  0.63584328983E+03  0.63825468279E+03  0.00000000000E+00 0.  1.
</event>
<event>
12    1  0.1681255E-001  0.2237068E+03  0.7818608E-02  0.1131375E+00
         21   -1    0    0  501  502  0.00000000000E+00  0.00000000000E+00  0.20091164603E+03  0.20091164603E+03  0.00000000000E+00 0. -1.
         21   -1    0    0  502  503 -0.00000000000E+00 -0.00000000000E+00 -0.29334109273E+03  0.29334109273E+03  0.00000000000E+00 0. -1.
         -6    2    1    2    0  503 -0.13829308592E+03  0.35275998339E+02 -0.14356859928E+03  0.26477516871E+03  0.17065923238E+03 0.  0.
        -24    2    3    3    0    0 -0.10323690155E+03  0.59398650825E+02 -0.38175837637E+02  0.15101857492E+03  0.84635440745E+02 0.  0.
          6    2    1    2  501    0  0.13829308592E+03 -0.35275998339E+02  0.51139152575E+02  0.22947757004E+03  0.17226540150E+03 0.  0.
         24    2    5    5    0    0  0.65612959191E+02  0.10239398584E+02  0.87998367262E+02  0.13601771831E+03  0.79669325070E+02 0.  0.
          5    1    5    5  501    0  0.72680126727E+02 -0.45515396923E+02 -0.36859214687E+02  0.93459851730E+02  0.47000000000E+01 0. -1.
        -13    1    6    6    0    0 -0.96411284530E+01 -0.20309552838E+02  0.18088944258E+02  0.28855488191E+02  0.00000000000E+00 0.  1.
         14    1    6    6    0    0  0.75254087644E+02  0.30548951422E+02  0.69909423003E+02  0.10716223012E+03  0.00000000000E+00 0. -1.
         -5    1    3    3    0  503 -0.35056184368E+02 -0.24122652486E+02 -0.10539276164E+03  0.11375659379E+03  0.47000000000E+01 0.  1.
         13    1    4    4    0    0 -0.45596162857E+02  0.39518280669E+02  0.23068599367E+02  0.64597715525E+02  0.00000000000E+00 0. -1.
        -14    1    4    4    0    0 -0.57640738694E+02  0.19880370156E+02 -0.61244437004E+02  0.86420859395E+02  0.00000000000E+00 0.  1.
</event>
<event>
12    1  0.1681255E-001  0.2185260E+03  0.7818608E-02  0.1136283E+00
         21   -1    0    0  501  502  0.00000000000E+00  0.00000000000E+00  0.33826940329E+03  0.33826940329E+03  0.00000000000E+00 0.  1.
         21   -1    0    0  502  503 -0.00000000000E+00 -0.00000000000E+00 -0.42366264192E+03  0.42366264192E+03  0.00000000000E+00 0. -1.
         -6    2    1    2    0  503 -0.10280567200E+03  0.67684597855E+02 -0.35593537393E+03  0.41415819902E+03  0.17229861411E+03 0.  0.
        -24    2    3    3    0    0 -0.25730814174E+02  0.77306278893E+02 -0.29195405159E+03  0.31341689636E+03  0.79716040597E+02 0.  0.
          6    2    1    2  501    0  0.10280567200E+03 -0.67684597855E+02  0.27054213530E+03  0.34777384619E+03  0.18056408872E+03 0.  0.
         24    2    5    5    0    0  0.53665208791E+02 -0.96561611098E+02  0.25421101700E+03  0.28829727565E+03  0.79296775543E+02 0.  0.
          5    1    5    5  501    0  0.49140463207E+02  0.28877013243E+02  0.16331118306E+02  0.59476570539E+02  0.47000000000E+01 0. -1.
        -13    1    6    6    0    0  0.55028407295E+02 -0.51107159159E+02  0.21671025260E+03  0.22935431303E+03  0.00000000000E+00 0.  1.
         14    1    6    6    0    0 -0.13631985043E+01 -0.45454451939E+02  0.37500764401E+02  0.58942962615E+02  0.00000000000E+00 0. -1.
         -5    1    3    3    0  503 -0.77074857824E+02 -0.96216810378E+01 -0.63981322334E+02  0.10074130266E+03  0.47000000000E+01 0.  1.
         11    1    4    4    0    0  0.21950721596E+02  0.34209214606E+01 -0.31708549487E+02  0.38716520928E+02  0.00000000000E+00 0. -1.
        -12    1    4    4    0    0 -0.47681535770E+02  0.73885357432E+02 -0.26024550210E+03  0.27470037543E+03  0.00000000000E+00 0.  1.
</event>
<event>
12    1  0.1681255E-001  0.2136400E+03  0.7818608E-02  0.1139860E+00
         21   -1    0    0  503  502  0.00000000000E+00  0.00000000000E+00  0.68604537447E+03  0.68604537447E+03  0.00000000000E+00 0.  1.
         21   -1    0    0  501  503 -0.00000000000E+00 -0.00000000000E+00 -0.97552441636E+02  0.97552441636E+02  0.00000000000E+00 0.  1.
          6    2    1    2  501    0 -0.74849447505E+01  0.12679993610E+03  0.51880411511E+03  0.55887896164E+03  0.16448019855E+03 0.  0.
         24    2    3    3    0    0  0.17140247613E+02  0.10792093559E+03  0.50621361586E+03  0.52506435783E+03  0.86600453574E+02 0.  0.
         -6    2    1    2    0  502  0.74849447505E+01 -0.12679993610E+03  0.69688817722E+02  0.22471885446E+03  0.17177829910E+03 0.  0.
        -24    2    5    5    0    0  0.72365184881E+02 -0.76447479706E+02  0.53770725296E+02  0.14093167710E+03  0.76743140243E+02 0.  0.
          5    1    3    3  501    0 -0.24625192364E+02  0.18879000513E+02  0.12590499251E+02  0.33814603808E+02  0.47000000000E+01 0. -1.
        -13    1    4    4    0    0  0.19778696331E+02  0.69865909194E+02  0.14828450927E+03  0.16510826080E+03  0.00000000000E+00 0.  1.
         14    1    4    4    0    0 -0.26384487181E+01  0.38055026395E+02  0.35792910659E+03  0.35995609703E+03  0.00000000000E+00 0. -1.
         -5    1    5    5    0  502 -0.64880240131E+02 -0.50352456397E+02  0.15918092426E+02  0.83787177367E+02  0.47000000000E+01 0.  1.
         11    1    6    6    0    0  0.48356877648E+02 -0.79846346046E+02  0.14056490114E+02  0.94400272812E+02  0.00000000000E+00 0. -1.
        -12    1    6    6    0    0  0.24008307233E+02  0.33988663401E+01  0.39714235182E+02  0.46531404285E+02  0.00000000000E+00 0.  1.
</event>
<event>
12    1  0.1681255E-001  0.2250404E+03  0.7818608E-02  0.1130510E+00
         21   -1    0    0  501  502  0.00000000000E+00  0.00000000000E+00  0.48306399902E+02  0.48306399902E+02  0.00000000000E+00 0.  1.
         21   -1    0    0  502  503 -0.00000000000E+00 -0.00000000000E+00 -0.14609890180E+04  0.14609890180E+04  0.00000000000E+00 0.  1.
         -6    2    1    2    0  503 -0.13368641929E+03  0.55002584678E+02 -0.11134911141E+04  0.11360042413E+04  0.17246980075E+03 0.  0.
        -24    2    3    3    0    0 -0.10580994179E+03  0.18413573592E+02 -0.41177923817E+03  0.43277063824E+03  0.78698671273E+02 0.  0.
          6    2    1    2  501    0  0.13368641929E+03 -0.55002584678E+02 -0.29919150404E+03  0.37329117659E+03  0.17009821693E+03 0.  0.
         24    2    5    5    0    0  0.11175104364E+03 -0.31385992508E+02 -0.10220101309E+03  0.17362583745E+03  0.78914561844E+02 0.  0.
          5    1    5    5  501    0  0.21935375650E+02 -0.23616592170E+02 -0.19699049095E+03  0.19966533914E+03  0.47000000000E+01 0. -1.
        -11    1    6    6    0    0  0.11918317633E+01 -0.42302371500E+01 -0.46818113384E+02  0.47023941882E+02  0.00000000000E+00 0.  1.
         12    1    6    6    0    0  0.11055921188E+03 -0.27155755358E+02 -0.55382899708E+02  0.12660189556E+03  0.00000000000E+00 0. -1.
         -5    1    3    3    0  503 -0.27876477503E+02  0.36589011086E+02 -0.70171187589E+03  0.70323360308E+03  0.47000000000E+01 0.  1.
         13    1    4    4    0    0 -0.63627519122E+02 -0.99357258034E+01 -0.33192706188E+03  0.33811648030E+03  0.00000000000E+00 0. -1.
        -14    1    4    4    0    0 -0.42182422667E+02  0.28349299396E+02 -0.79852176288E+02  0.94654157945E+02  0.00000000000E+00 0.  1.
</event>
<event>
12    1  0.1681255E-001  0.2287448E+03  0.7818608E-02  0.1127622E+00
         21   -1    0    0  501  502  0.00000000000E+00  0.00000000000E+00  0.11838785964E+04  0.11838785964E+04  0.00000000000E+00 0. -1.
         21   -1    0    0  502  503 -0.00000000000E+00 -0.00000000000E+00 -0.57962389749E+02  0.57962389749E+02  0.00000000000E+00 0.  1.
         -6    2    1    2    0  503  0.17479602750E+02 -0.14922454573E+03  0.25973444827E+03  0.34610136801E+03  0.17248383042E+03 0.  0.
        -24    2    3    3    0    0 -0.33694873345E+02 -0.30328886967E+02  0.15371150575E+03  0.17871570847E+03  0.79100515676E+02 0.  0.
          6    2    1    2  501    0 -0.17479602750E+02  0.14922454573E+03  0.86618175836E+03  0.89573961812E+03  0.17177055452E+03 0.  0.
         24    2    5    5    0    0  0.27206413392E+02  0.12442659671E+03  0.47570868391E+03  0.50190832152E+03  0.96907400985E+02 0.  0.
          5    1    5    5  501    0 -0.44686016142E+02  0.24797949020E+02  0.39047307445E+03  0.39383129660E+03  0.47000000000E+01 0. -1.
        -13    1    6    6    0    0  0.61830789794E+02  0.82611697752E+02  0.26676140576E+03  0.28602340249E+03  0.00000000000E+00 0.  1.
         14    1    6    6    0    0 -0.34624376402E+02  0.41814898959E+02  0.20894727815E+03  0.21588491903E+03  0.00000000000E+00 0. -1.
         -5    1    3    3    0  503  0.51174476095E+02 -0.11889565876E+03  0.10602294252E+03  0.16738565954E+03  0.47000000000E+01 0.  1.
         11    1    4    4    0    0  0.11374229116E+02  0.10712056575E+02  0.86828467327E+02  0.88223035441E+02  0.00000000000E+00 0. -1.
        -12    1    4    4    0    0 -0.45069102461E+02 -0.41040943542E+02  0.66883038422E+02  0.90492673030E+02  0.00000000000E+00 0.  1.
</event>
<event>
12    1  0.1681255E-001  0.2434207E+03  0.7818608E-02  0.1119424E+00
         21   -1    0    0  503  502  0.00000000000E+00  0.00000000000E+00  0.41734388553E+02  0.41734388553E+02  0.00000000000E+00 0. -1.
         21   -1    0    0  501  503 -0.00000000000E+00 -0.00000000000E+00 -0.18003712706E+04  0.18003712706E+04  0.00000000000E+00 0.  1.
          6    2    1    2  501    0  0.54195701394E+02 -0.16256690200E+03 -0.13217375055E+04  0.13419709816E+04  0.15662346697E+03 0.  0.
         24    2    3    3    0    0  0.24243208650E+02 -0.14938064841E+03 -0.75782256625E+03  0.77708765047E+03  0.81656985716E+02 0.  0.
         -6    2    1    2    0  502 -0.54195701394E+02  0.16256690200E+03 -0.43689937657E+03  0.50013467755E+03  0.17288278909E+03 0.  0.
        -24    2    5    5    0    0 -0.10952611181E+02  0.16443358933E+03 -0.41245212293E+03  0.45020264792E+03  0.73534383030E+02 0.  0.
          5    1    3    3  501    0  0.29952492744E+02 -0.13186253594E+02 -0.56391493925E+03  0.56488333115E+03  0.47000000000E+01 0. -1.
        -11    1    4    4    0    0 -0.67094079673E+01 -0.77611241669E+02 -0.54156936169E+03  0.54714339483E+03  0.00000000000E+00 0.  1.
         12    1    4    4    0    0  0.30952616618E+02 -0.71769406742E+02 -0.21625320456E+03  0.22994425564E+03  0.00000000000E+00 0. -1.
         -5    1    5    5    0  502 -0.43243090213E+02 -0.18666873303E+01 -0.24447253640E+02  0.49932029634E+02  0.47000000000E+01 0.  1.
         13    1    6    6    0    0 -0.30473622033E+02  0.15539088099E+03 -0.35017700721E+03  0.38431615100E+03  0.00000000000E+00 0. -1.
        -14    1    6    6    0    0  0.19521010851E+02  0.90427083419E+01 -0.62275115716E+02  0.65886496919E+02  0.00000000000E+00 0.  1.
</event>
<event>
12    1  0.1681255E-001  0.3395928E+03  0.7818608E-02  0.1067319E+00
         21   -1    0    0  503  502  0.00000000000E+00  0.00000000000E+00  0.62029710076E+03  0.62029710076E+03  0.00000000000E+00 0.  1.
         21   -1    0    0  501  503 -0.00000000000E+00 -0.00000000000E+00 -0.19377112833E+03  0.19377112833E+03  0.00000000000E+00 0.  1.
          6    2    1    2  501    0 -0.24182035668E+03 -0.16625816366E+03  0.12348191291E+03  0.36134619105E+03  0.17089302233E+03 0.  0.
         24    2    3    3    0    0 -0.84074707894E+02 -0.35400751486E+02 -0.69595362459E+01  0.11835562808E+03  0.75085616740E+02 0.  0.
         -6    2    1    2    0  502  0.24182035668E+03  0.16625816366E+03  0.30304405952E+03  0.45272203804E+03  0.16432492149E+03 0.  0.
        -24    2    5    5    0    0  0.17985677410E+03  0.11065132076E+03  0.29152813213E+03  0.36854179613E+03  0.79007782509E+02 0.  0.
          5    1    3    3  501    0 -0.15774564879E+03 -0.13085741218E+03  0.13044144915E+03  0.24299056297E+03  0.47000000000E+01 0. -1.
        -13    1    4    4    0    0  0.77420481378E+01 -0.24494145140E+02 -0.15182944048E+01  0.25733396072E+02  0.00000000000E+00 0.  1.
         14    1    4    4    0    0 -0.91816756031E+02 -0.10906606346E+02 -0.54412418410E+01  0.92622232012E+02  0.00000000000E+00 0. -1.
         -5    1    5    5    0  502  0.61963582582E+02  0.55606842899E+02  0.11515927395E+02  0.84180241906E+02  0.47000000000E+01 0.  1.
         13    1    6    6    0    0  0.47394988387E+02  0.14829889838E+02  0.12805055797E+03  0.13734320498E+03  0.00000000000E+00 0. -1.
        -14    1    6    6    0    0  0.13246178571E+03  0.95821430925E+02  0.16347757416E+03  0.23119859115E+03  0.00000000000E+00 0.  1.
</event>
<event>
12    1  0.1681255E-001  0.1849410E+03  0.7818608E-02  0.1164116E+00
         21   -1    0    0  503  502  0.00000000000E+00  0.00000000000E+00  0.13452342655E+03  0.13452342655E+03  0.00000000000E+00 0.  1.
         21   -1    0    0  501  503 -0.00000000000E+00 -0.00000000000E+00 -0.54309496684E+03  0.54309496684E+03  0.00000000000E+00 0.  1.
          6    2    1    2  501    0 -0.55394379266E+01  0.61941401513E+02 -0.45275702544E+03  0.48747235189E+03  0.16962590361E+03 0.  0.
         24    2    3    3    0    0  0.53274586919E+02  0.19974238259E+01 -0.27068587775E+03  0.28691222923E+03  0.78775704087E+02 0.  0.
         -6    2    1    2    0  502  0.55394379266E+01 -0.61941401513E+02  0.44185485158E+02  0.19014604150E+03  0.17417157462E+03 0.  0.
        -24    2    5    5    0    0  0.54890334963E+02 -0.53608073889E+02 -0.15545319324E+02  0.11207674925E+03  0.80204528002E+02 0.  0.
          5    1    3    3  501    0 -0.58814024846E+02  0.59943977687E+02 -0.18207114769E+03  0.20056012266E+03  0.47000000000E+01 0. -1.
        -13    1    4    4    0    0  0.61667424966E+02  0.28049032415E+02 -0.19177103219E+03  0.20338571314E+03  0.00000000000E+00 0.  1.
         14    1    4    4    0    0 -0.83928380468E+01 -0.26051608589E+02 -0.78914845557E+02  0.83526516088E+02  0.00000000000E+00 0. -1.
         -5    1    5    5    0  502 -0.49350897037E+02 -0.83333276233E+01  0.59730804482E+02  0.78069292245E+02  0.47000000000E+01 0.  1.
         13    1    6    6    0    0  0.32224546375E+02  0.10067969638E+02  0.16149681070E+02  0.37424558787E+02  0.00000000000E+00 0. -1.
        -14    1    6    6    0    0  0.22665788588E+02 -0.63676043527E+02 -0.31695000394E+02  0.74652190467E+02  0.00000000000E+00 0.  1.
</event>
<event>
12    1  0.1681255E-001  0.2291897E+03  0.7818608E-02  0.1128661E+00
         21   -1    0    0  501  502  0.00000000000E+00  0.00000000000E+00  0.28145295418E+03  0.28145295418E+03  0.00000000000E+00 0. -1.
         21   -1    0    0  502  503 -0.00000000000E+00 -0.00000000000E+00 -0.76575916420E+03  0.76575916420E+03  0.00000000000E+00 0. -1.
         -6    2    1    2    0  503  0.81097737114E+02  0.12737414028E+03 -0.69901473471E+03  0.73316167392E+03  0.16156554768E+03 0.  0.
        -24    2    3    3    0    0  0.39494011640E+02  0.39539702865E+01 -0.26175503257E+03  0.27689251493E+03  0.81107070674E+02 0.  0.
          6    2    1    2  501    0 -0.81097737114E+02 -0.12737414028E+03  0.21470852469E+03  0.31405044446E+03  0.17241495444E+03 0.  0.
         24    2    5    5    0    0 -0.34193491625E+02 -0.36884480084E+01  0.48057665973E+02  0.10122949289E+03  0.82189241713E+02 0.  0.
          5    1    5    5  501    0 -0.46904245489E+02 -0.12368569227E+03  0.16665085872E+03  0.21282095157E+03  0.47000000000E+01 0. -1.
        -11    1    6    6    0    0 -0.21491873002E+02 -0.22691280864E+02  0.65435791189E+02  0.72516464344E+02  0.00000000000E+00 0.  1.
         12    1    6    6    0    0 -0.12701618623E+02  0.19002832855E+02 -0.17378125216E+02  0.28713028544E+02  0.00000000000E+00 0. -1.
         -5    1    3    3    0  503  0.41603725474E+02  0.12342016999E+03 -0.43725970214E+03  0.45626915899E+03  0.47000000000E+01 0.  1.
         11    1    4    4    0    0  0.45885262005E+02 -0.13208032232E+01 -0.26427412485E+03  0.26823127121E+03  0.00000000000E+00 0. -1.
        -12    1    4    4    0    0 -0.63912503648E+01  0.52747735098E+01  0.25190922834E+01  0.86612437177E+01  0.00000000000E+00 0.  1.
</event>
<event>
12    1  0.1681255E-001  0.2010846E+03  0.7818608E-02  0.1149420E+00
         21   -1    0    0  503  502  0.00000000000E+00  0.00000000000E+00  0.77692850279E+03  0.77692850279E+03  0.00000000000E+00 0. -1.
         21   -1    0    0  501  503 -0.00000000000E+00 -0.00000000000E+00 -0.13923053853E+03  0.13923053853E+03  0.00000000000E+00 0. -1.
          6    2    1    2  501    0 -0.80900044675E+02 -0.63931507643E+02 -0.44314508693E+02  0.20590967938E+03  0.17263535410E+03 0.  0.
         24    2    3    3    0    0 -0.58567765840E+02  0.86411958691E+01 -0.75259829007E+02  0.12378032518E+03  0.78438979961E+02 0.  0.
         -6    2    1    2    0  502  0.80900044675E+02  0.63931507643E+02  0.68201247295E+03  0.71024936194E+03  0.16935491718E+03 0.  0.
        -24    2    5    5    0    0  0.43046861392E+02 -0.13419750321E+02  0.21834098614E+03  0.23862512774E+03  0.85064936311E+02 0.  0.
          5    1    3    3  501    0 -0.22332278835E+02 -0.72572703513E+02  0.30945320314E+02  0.82129354207E+02  0.47000000000E+01 0. -1.
        -13    1    4    4    0    0  0.69625085965E+01 -0.18169612192E+02  0.12980121026E+01  0.19501183774E+02  0.00000000000E+00 0.  1.
         14    1    4    4    0    0 -0.65530274436E+02  0.26810808061E+02 -0.76557841110E+02  0.10427914140E+03  0.00000000000E+00 0. -1.
         -5    1    5    5    0  502  0.37853183283E+02  0.77351257964E+02  0.46367148682E+03  0.47162423419E+03  0.47000000000E+01 0.  1.
         13    1    6    6    0    0  0.58470111365E+02  0.10597562385E+02  0.18709416212E+03  0.19630406962E+03  0.00000000000E+00 0. -1.
        -14    1    6    6    0    0 -0.15423249973E+02 -0.24017312705E+02  0.31246824014E+02  0.42321058119E+02  0.00000000000E+00 0.  1.
</event>
<event>
12    1  0.1681255E-001  0.2839239E+03  0.7818608E-02  0.1093616E+00
         21   -1    0    0  503  502  0.00000000000E+00  0.00000000000E+00  0.18813277290E+03  0.18813277290E+03  0.00000000000E+00 0. -1.
         21   -1    0    0  501  503 -0.00000000000E+00 -0.00000000000E+00 -0.49838865035E+03  0.49838865035E+03  0.00000000000E+00 0. -1.
          6    2    1    2  501    0  0.58307646775E+02 -0.21866765670E+03 -0.28429810797E+03  0.40179370530E+03  0.17145682157E+03 0.  0.
         24    2    3    3    0    0  0.24864968289E+02 -0.22670043945E+03 -0.21088936088E+03  0.32059104222E+03  0.79328039961E+02 0.  0.
         -6    2    1    2    0  502 -0.58307646775E+02  0.21866765670E+03 -0.25957769484E+02  0.28472771795E+03  0.17082371560E+03 0.  0.
        -24    2    5    5    0    0 -0.17938727369E+02  0.16349870992E+03 -0.76217390406E+02  0.19974900392E+03  0.83886517868E+02 0.  0.
          5    1    3    3  501    0  0.33442678485E+02  0.80327827443E+01 -0.73408747086E+02  0.81202663082E+02  0.47000000000E+01 0. -1.
        -13    1    4    4    0    0 -0.78823850328E+01 -0.30207133245E+02 -0.10210113402E+01  0.31235322262E+02  0.00000000000E+00 0.  1.
         14    1    4    4    0    0  0.32747353322E+02 -0.19649330620E+03 -0.20986834954E+03  0.28935571996E+03  0.00000000000E+00 0. -1.
         -5    1    5    5    0  502 -0.40368919405E+02  0.55168946782E+02  0.50259620922E+02  0.84978714030E+02  0.47000000000E+01 0.  1.
         13    1    6    6    0    0 -0.33497744702E+02  0.44823082040E+02 -0.54483924616E+02  0.78100612195E+02  0.00000000000E+00 0. -1.
        -14    1    6    6    0    0  0.15559017333E+02  0.11867562788E+03 -0.21733465790E+02  0.12164839172E+03  0.00000000000E+00 0.  1.
</event>
<event>
12    1  0.1681255E-001  0.4289083E+03  0.7818608E-02  0.1034272E+00
         21   -1    0    0  501  502  0.00000000000E+00  0.00000000000E+00  0.28964519956E+03  0.28964519956E+03  0.00000000000E+00 0. -1.
         21   -1    0    0  502  503 -0.00000000000E+00 -0.00000000000E+00 -0.63610279457E+03  0.63610279457E+03  0.00000000000E+00 0.  1.
         -6    2    1    2    0  503 -0.27163232626E+03 -0.28256071227E+03 -0.14604967850E+03  0.45309253356E+03  0.17417708975E+03 0.  0.
        -24    2    3    3    0    0 -0.14368813783E+03 -0.12845348502E+03 -0.68028946787E+01  0.20910378454E+03  0.80817909945E+02 0.  0.
          6    2    1    2  501    0  0.27163232626E+03  0.28256071227E+03 -0.20040791651E+03  0.47265546056E+03  0.17209060001E+03 0.  0.
         24    2    5    5    0    0  0.17090745371E+03  0.97033891608E+02 -0.74641882346E+02  0.22688140480E+03  0.85316044156E+02 0.  0.
          5    1    5    5  501    0  0.10072487254E+03  0.18552682066E+03 -0.12576603417E+03  0.24577405576E+03  0.47000000000E+01 0. -1.
        -11    1    6    6    0    0  0.15850662016E+03  0.11120610802E+03 -0.75984536643E+02  0.20800191563E+03  0.00000000000E+00 0.  1.
         12    1    6    6    0    0  0.12400833552E+02 -0.14172216416E+02  0.13426542972E+01  0.18879489175E+02  0.00000000000E+00 0. -1.
         -5    1    3    3    0  503 -0.12794418842E+03 -0.15410722725E+03 -0.13924678382E+03  0.24398874902E+03  0.47000000000E+01 0.  1.
         13    1    4    4    0    0 -0.13100233860E+03 -0.83121603460E+02 -0.27698823150E+02  0.15760088352E+03  0.00000000000E+00 0. -1.
        -14    1    4    4    0    0 -0.12685799229E+02 -0.45331881559E+02  0.20895928471E+02  0.51502901029E+02  0.00000000000E+00 0.  1.
</event>
<event>
12    1  0.1681255E-001  0.2372459E+03  0.7818608E-02  0.1121672E+00
         21   -1    0    0  501  502  0.00000000000E+00  0.00000000000E+00  0.94225574715E+02  0.94225574715E+02  0.00000000000E+00 0.  1.
         21   -1    0    0  502  503 -0.00000000000E+00 -0.00000000000E+00 -0.10833739195E+04  0.10833739195E+04  0.00000000000E+00 0.  1.
         -6    2    1    2    0  503 -0.15406587391E+03 -0.52977996395E+02 -0.88923306182E+03  0.92033747052E+03  0.17246060365E+03 0.  0.
        -24    2    3    3    0    0 -0.50120194958E+02 -0.16753898554E+01 -0.61151579761E+03  0.61936300242E+03  0.84522879548E+02 0.  0.
          6    2    1    2  501    0  0.15406587391E+03  0.52977996395E+02 -0.99915282962E+02  0.25726202369E+03  0.17221417903E+03 0.  0.
         24    2    5    5    0    0  0.51996880613E+02 -0.31233082547E+01 -0.10398691111E+03  0.14062539166E+03  0.79049303912E+02 0.  0.
          5    1    5    5  501    0  0.10206899329E+03  0.56101304650E+02  0.40716281476E+01  0.11663663203E+03  0.47000000000E+01 0. -1.
        -11    1    6    6    0    0  0.27221774395E+02  0.24570972187E+02 -0.95795304729E+02  0.10257435393E+03  0.00000000000E+00 0.  1.
         12    1    6    6    0    0  0.24775106218E+02 -0.27694280442E+02 -0.81916063803E+01  0.38051037731E+02  0.00000000000E+00 0. -1.
         -5    1    3    3    0  503 -0.10394567895E+03 -0.51302606540E+02 -0.27771726421E+03  0.30097446810E+03  0.47000000000E+01 0.  1.
         13    1    4    4    0    0 -0.51237925288E+02 -0.10147612339E+02 -0.60780701549E+03  0.61004726629E+03  0.00000000000E+00 0. -1.
        -14    1    4    4    0    0  0.11177303300E+01  0.84722224840E+01 -0.37087821191E+01  0.93157361339E+01  0.00000000000E+00 0.  1.
</event>
<event>
12    1  0.1681255E-001  0.1918305E+03  0.7818608E-02  0.1157093E+00
         21   -1    0    0  501  502  0.00000000000E+00  0.00000000000E+00  0.13938537612E+04  0.13938537612E+04  0.00000000000E+00 0. -1.
         21   -1    0    0  502  503 -0.00000000000E+00 -0.00000000000E+00 -0.75378125477E+02  0.75378125477E+02  0.00000000000E+00 0.  1.
         -6    2    1    2    0  503  0.24430771591E+02  0.79251258369E+02  0.65340086597E+02  0.20149861692E+03  0.17162383620E+03 0.  0.
        -24    2    3    3    0    0 -0.42650669403E+02  0.61194813594E+02  0.53544784004E+01  0.10959476437E+03  0.80115273987E+02 0.  0.
          6    2    1    2  501    0 -0.24430771591E+02 -0.79251258369E+02  0.12531355491E+04  0.12677332698E+04  0.17297778532E+03 0.  0.
         24    2    5    5    0    0  0.31014916889E+02  0.22391996226E+02  0.47035608948E+03  0.47642337596E+03  0.65429776763E+02 0.  0.
          5    1    5    5  501    0 -0.55445688481E+02 -0.10164325459E+03  0.78277945964E+03  0.79130989379E+03  0.47000000000E+01 0. -1.
        -11    1    6    6    0    0  0.42243117629E+02  0.82541229341E-01  0.17554264081E+03  0.18055388819E+03  0.00000000000E+00 0.  1.
         12    1    6    6    0    0 -0.11228200740E+02  0.22309454996E+02  0.29481344868E+03  0.29586948777E+03  0.00000000000E+00 0. -1.
         -5    1    3    3    0  503  0.67081440994E+02  0.18056444775E+02  0.59985608197E+02  0.91903852555E+02  0.47000000000E+01 0.  1.
         13    1    4    4    0    0 -0.10755094208E+02  0.73412948884E+02  0.10896308206E+02  0.74992417269E+02  0.00000000000E+00 0. -1.
        -14    1    4    4    0    0 -0.31895575195E+02 -0.12218135290E+02 -0.55418298054E+01  0.34602347096E+02  0.00000000000E+00 0.  1.
</event>
<event>
12    1  0.1681255E-001  0.2460306E+03  0.7818608E-02  0.1116013E+00
         21   -1    0    0  503  502  0.00000000000E+00  0.00000000000E+00  0.13717873098E+03  0.13717873098E+03  0.00000000000E+00 0. -1.
         21   -1    0    0  501  503 -0.00000000000E+00 -0.00000000000E+00 -0.50666027126E+03  0.50666027126E+03  0.00000000000E+00 0.  1.
          6    2    1    2  501    0  0.14191274349E+03  0.10210935091E+03 -0.30174096677E+03  0.38865312968E+03  0.17157534169E+03 0.  0.
         24    2    3    3    0    0  0.15669233815E+03  0.93504369781E+02 -0.31029679163E+03  0.36896114508E+03  0.80948574270E+02 0.  0.
         -6    2    1    2    0  502 -0.14191274349E+03 -0.10210935091E+03 -0.67740573512E+02  0.25518587256E+03  0.17310545326E+03 0.  0.
        -24    2    5    5    0    0 -0.92877377355E+01 -0.82213087054E+01  0.19963334310E+01  0.78296972942E+02  0.77282460077E+02 0.  0.
          5    1    3    3  501    0 -0.14779594668E+02  0.86049811257E+01  0.85558248555E+01  0.19691984605E+02  0.47000000000E+01 0. -1.
        -13    1    4    4    0    0  0.10294524610E+03  0.64787349176E+02 -0.12723110209E+03  0.17601953769E+03  0.00000000000E+00 0.  1.
         14    1    4    4    0    0  0.53747092055E+02  0.28717020604E+02 -0.18306568954E+03  0.19294160739E+03  0.00000000000E+00 0. -1.
         -5    1    5    5    0  502 -0.13262500575E+03 -0.93888042201E+02 -0.69736906943E+02  0.17688889962E+03  0.47000000000E+01 0.  1.
         13    1    6    6    0    0 -0.21880873891E+02 -0.16906365683E+02  0.33402825381E+02  0.43362963302E+02  0.00000000000E+00 0. -1.
        -14    1    6    6    0    0  0.12593136156E+02  0.86850569778E+01 -0.31406491950E+02  0.34934009640E+02  0.00000000000E+00 0.  1.
</event>
<event>
12    1  0.1681255E-001  0.1870053E+03  0.7818608E-02  0.1161416E+00
         21   -1    0    0  501  502  0.00000000000E+00  0.00000000000E+00  0.74341307599E+02  0.74341307599E+02  0.00000000000E+00 0.  1.
         21   -1    0    0  502  503 -0.00000000000E+00 -0.00000000000E+00 -0.71880135137E+03  0.71880135137E+03  0.00000000000E+00 0.  1.
         -6    2    1    2    0  503  0.14113396939E+01  0.71952063431E+02 -0.55595059449E+03  0.58624921813E+03  0.17154588578E+03 0.  0.
        -24    2    3    3    0    0  0.30376997659E+02 -0.19348565147E+02 -0.18474103049E+03  0.20285197697E+03  0.75647519815E+02 0.  0.
          6    2    1    2  501    0 -0.14113396939E+01 -0.71952063431E+02 -0.88509449280E+02  0.20689344084E+03  0.17260325009E+03 0.  0.
         24    2    5    5    0    0  0.47723205541E+02 -0.16796487061E+00 -0.65718461053E+02  0.11684523439E+03  0.84002143524E+02 0.  0.
          5    1    5    5  501    0 -0.49134545235E+02 -0.71784098560E+02 -0.22790988228E+02  0.90048206456E+02  0.47000000000E+01 0. -1.
        -13    1    6    6    0    0  0.37634656506E+02  0.70060910224E+01  0.10446351401E+02  0.39680964446E+02  0.00000000000E+00 0.  1.
         14    1    6    6    0    0  0.10088549035E+02 -0.71740558931E+01 -0.76164812454E+02  0.77164269942E+02  0.00000000000E+00 0. -1.
         -5    1    3    3    0  503 -0.28965657965E+02  0.91300628578E+02 -0.37120956400E+03  0.38339724116E+03  0.47000000000E+01 0.  1.
         13    1    4    4    0    0  0.62089860732E+01 -0.44492509021E+02 -0.13360362260E+03  0.14095411607E+03  0.00000000000E+00 0. -1.
        -14    1    4    4    0    0  0.24168011586E+02  0.25143943874E+02 -0.51137407894E+02  0.61897860897E+02  0.00000000000E+00 0.  1.
</event>
<event>
12    1  0.1681255E-001  0.2925291E+03  0.7818608E-02  0.1089188E+00
         21   -1    0    0  503  502  0.00000000000E+00  0.00000000000E+00  0.28416558544E+03  0.28416558544E+03  0.00000000000E+00 0.  1.
         21   -1    0    0  501  503 -0.00000000000E+00 -0.00000000000E+00 -0.30137727748E+03  0.30137727748E+03  0.00000000000E+00 0. -1.
          6    2    1    2  501    0  0.14370655087E+03  0.18772579160E+03 -0.28865383741E+02  0.29278177576E+03  0.17028039302E+03 0.  0.
         24    2    3    3    0    0  0.59755863866E+02  0.55487582441E+02  0.40472105658E+02  0.12142122241E+03  0.80346044359E+02 0.  0.
         -6    2    1    2    0  502 -0.14370655087E+03 -0.18772579160E+03  0.11653691698E+02  0.29276108716E+03  0.17228087540E+03 0.  0.
        -24    2    5    5    0    0 -0.14071906120E+03 -0.10828434508E+03  0.55319836780E+02  0.20193878402E+03  0.78686940323E+02 0.  0.
          5    1    3    3  501    0  0.83950686999E+02  0.13223820916E+03 -0.69337489400E+02  0.17136055335E+03  0.47000000000E+01 0. -1.
        -13    1    4    4    0    0 -0.89886113708E+01  0.21672152076E+02 -0.14088572501E+02  0.27367228305E+02  0.00000000000E+00 0.  1.
         14    1    4    4    0    0  0.68744475237E+02  0.33815430365E+02  0.54560678159E+02  0.94053994107E+02  0.00000000000E+00 0. -1.
         -5    1    5    5    0  502 -0.29874896642E+01 -0.79441446521E+02 -0.43666145083E+02  0.90822303132E+02  0.47000000000E+01 0.  1.
         13    1    6    6    0    0 -0.94708698096E+01 -0.13910577562E+02  0.35225843183E+02  0.39039231178E+02  0.00000000000E+00 0. -1.
        -14    1    6    6    0    0 -0.13124819139E+03 -0.94373767516E+02  0.20093993598E+02  0.16289955285E+03  0.00000000000E+00 0.  1.
</event>
<event>
12    1  0.1681255E-001  0.1808419E+03  0.7818608E-02  0.1169090E+00
         21   -1    0    0  501  502  0.00000000000E+00  0.00000000000E+00  0.14633401581E+04  0.14633401581E+04  0.00000000000E+00 0.  1.
         21   -1    0    0  502  503 -0.00000000000E+00 -0.00000000000E+00 -0.37770994938E+02  0.37770994938E+02  0.00000000000E+00 0.  1.
         -6    2    1    2    0  503 -0.31442459163E+02  0.14798583749E+02  0.11985058295E+04  0.12108327468E+04  0.16879600388E+03 0.  0.
        -24    2    3    3    0    0 -0.64191347515E+02  0.17612409062E+02  0.11288793144E+04  0.11336942421E+04  0.80395285582E+02 0.  0.
          6    2    1    2  501    0  0.31442459163E+02 -0.14798583749E+02  0.22706333364E+03  0.29027840627E+03  0.17747160152E+03 0.  0.
         24    2    5    5    0    0  0.81602280152E+02  0.23389697261E+02  0.14801740360E+03  0.18906229340E+03  0.81421059651E+02 0.  0.
          5    1    5    5  501    0 -0.50159820989E+02 -0.38188281010E+02  0.79045930046E+02  0.10121611287E+03  0.47000000000E+01 0. -1.
        -11    1    6    6    0    0  0.13118655336E+02  0.27694297686E+02  0.58449968482E+01  0.31196750317E+02  0.00000000000E+00 0.  1.
         12    1    6    6    0    0  0.68483624816E+02 -0.43046004255E+01  0.14217240675E+03  0.15786554309E+03  0.00000000000E+00 0. -1.
         -5    1    3    3    0  503  0.32748888352E+02 -0.28138253125E+01  0.69626515147E+02  0.77138504734E+02  0.47000000000E+01 0.  1.
         11    1    4    4    0    0 -0.30610950666E+02  0.49403651479E+02  0.63803567795E+03  0.64067720220E+03  0.00000000000E+00 0. -1.
        -12    1    4    4    0    0 -0.33580396849E+02 -0.31791242417E+02  0.49084363644E+03  0.49301703985E+03  0.00000000000E+00 0.  1.
</event>
<event>
12    1  0.1681255E-001  0.1948278E+03  0.7818608E-02  0.1154249E+00
         21   -1    0    0  503  502  0.00000000000E+00  0.00000000000E+00  0.11365420569E+03  0.11365420569E+03  0.00000000000E+00 0. -1.
         21   -1    0    0  501  503 -0.00000000000E+00 -0.00000000000E+00 -0.39394361910E+03  0.39394361910E+03  0.00000000000E+00 0.  1.
          6    2    1    2  501    0  0.79706550360E+02 -0.41121343253E+02 -0.40561423023E+02  0.19868461772E+03  0.17258693241E+03 0.  0.
         24    2    3    3    0    0  0.14062379317E+02  0.35879378046E+02  0.48399659471E+01  0.87681715087E+02  0.78610289462E+02 0.  0.
         -6    2    1    2    0  502 -0.79706550360E+02  0.41121343253E+02 -0.23972799038E+03  0.30891320707E+03  0.17295595129E+03 0.  0.
        -24    2    5    5    0    0 -0.54139534271E+02  0.39356062802E+02 -0.25723229292E+03  0.27752405075E+03  0.79819530018E+02 0.  0.
          5    1    3    3  501    0  0.65644171043E+02 -0.77000721299E+02 -0.45401388970E+02  0.11100290263E+03  0.47000000000E+01 0. -1.
        -13    1    4    4    0    0  0.36965528641E+02  0.29771362461E+02 -0.21621353669E+02  0.52156181465E+02  0.00000000000E+00 0.  1.
         14    1    4    4    0    0 -0.22903149324E+02  0.61080155854E+01  0.26461319616E+02  0.35525533623E+02  0.00000000000E+00 0. -1.
         -5    1    5    5    0  502 -0.25567016089E+02  0.17652804514E+01  0.17504302542E+02  0.31389156316E+02  0.47000000000E+01 0.  1.
         13    1    6    6    0    0  0.14017358449E+02 -0.11785280429E+02 -0.34710969572E+02  0.39245771509E+02  0.00000000000E+00 0. -1.
        -14    1    6    6    0    0 -0.68156892720E+02  0.51141343230E+02 -0.22252132335E+03  0.23827827924E+03  0.00000000000E+00 0.  1.
</event>
<event>
12    1  0.1681255E-001  0.2077295E+03  0.7818608E-02  0.1143459E+00
         21   -1    0    0  503  502  0.00000000000E+00  0.00000000000E+00  0.45539811831E+03  0.45539811831E+03  0.00000000000E+00 0.  1.
         21   -1    0    0  501  503 -0.00000000000E+00 -0.00000000000E+00 -0.10600749233E+03  0.10600749233E+03  0.00000000000E+00 0.  1.
          6    2    1    2  501    0  0.70342524131E+02 -0.90946772497E+02  0.82644192761E+02  0.22356571293E+03  0.17300918841E+03 0.  0.
         24    2    3    3    0    0  0.92802471716E+02 -0.92993349821E+02  0.10886684437E+03  0.18866076799E+03  0.80503625436E+02 0.  0.
         -6    2    1    2    0  502 -0.70342524131E+02  0.90946772497E+02  0.26674643322E+03  0.33783989771E+03  0.17251884163E+03 0.  0.
        -24    2    5    5    0    0  0.25722212788E+02  0.45877755932E+02  0.84004923790E+02  0.12647244704E+03  0.78562407792E+02 0.  0.
          5    1    3    3  501    0 -0.22459947585E+02  0.20465773243E+01 -0.26222651607E+02  0.34904944944E+02  0.47000000000E+01 0. -1.
        -11    1    4    4    0    0  0.84788500511E+02 -0.46041875931E+02  0.38920708971E+02  0.10403732861E+03  0.00000000000E+00 0.  1.
         12    1    4    4    0    0  0.80139712047E+01 -0.46951473890E+02  0.69946135397E+02  0.84623439377E+02  0.00000000000E+00 0. -1.
         -5    1    5    5    0  502 -0.96064736919E+02  0.45069016565E+02  0.18274150943E+03  0.21136745067E+03  0.47000000000E+01 0.  1.
         13    1    6    6    0    0  0.43893192138E+02  0.84377852082E+01  0.69043018128E+02  0.82248081360E+02  0.00000000000E+00 0. -1.
        -14    1    6    6    0    0 -0.18170979350E+02  0.37439970723E+02  0.14961905662E+02  0.44224365675E+02  0.00000000000E+00 0.  1.
</event>
<event>
12    1  0.1681255E-001  0.4810879E+03  0.7818608E-02  0.1019358E+00
         21   -1    0    0  501  502  0.00000000000E+00  0.00000000000E+00  0.19717054135E+03  0.19717054135E+03  0.00000000000E+00 0.  1.
         21   -1    0    0  502  503 -0.00000000000E+00 -0.00000000000E+00 -0.24739326042E+04  0.24739326042E+04  0.00000000000E+00 0. -1.
         -6    2    1    2    0  503  0.21658144171E+03  0.39357352947E+03 -0.21175606281E+04  0.21715221846E+04  0.17215673342E+03 0.  0.
        -24    2    3    3    0    0  0.18016429336E+03  0.19153661032E+03 -0.11313978037E+04  0.11642067765E+04  0.78555600997E+02 0.  0.
          6    2    1    2  501    0 -0.21658144171E+03 -0.39357352947E+03 -0.15920143477E+03  0.49958096089E+03  0.14976112864E+03 0.  0.
         24    2    5    5    0    0 -0.97760486798E+02 -0.23120982643E+03 -0.13753617308E+03  0.29716588003E+03  0.79851516795E+02 0.  0.
          5    1    5    5  501    0 -0.11882095491E+03 -0.16236370304E+03 -0.21665261692E+02  0.20241508085E+03  0.47000000000E+01 0. -1.
        -13    1    6    6    0    0 -0.26240205636E+01 -0.18559299419E+02  0.10169644587E+02  0.21324979481E+02  0.00000000000E+00 0.  1.
         14    1    6    6    0    0 -0.95136466235E+02 -0.21265052701E+03 -0.14770581766E+03  0.27584090055E+03  0.00000000000E+00 0. -1.
         -5    1    3    3    0  503  0.36417148347E+02  0.20203691915E+03 -0.98616282438E+03  0.10073154082E+04  0.47000000000E+01 0.  1.
         13    1    4    4    0    0  0.10841482875E+03  0.72169629002E+02 -0.65717385876E+03  0.66995500676E+03  0.00000000000E+00 0. -1.
        -14    1    4    4    0    0  0.71749464616E+02  0.11936698132E+03 -0.47422394493E+03  0.49425176970E+03  0.00000000000E+00 0.  1.
</event>
<event>
12    1  0.1681255E-001  0.1890666E+03  0.7818608E-02  0.1162077E+00
         21   -1    0    0  501  502  0.00000000000E+00  0.00000000000E+00  0.39070792743E+03  0.39070792743E+03  0.00000000000E+00 0. -1.
         21   -1    0    0  502  503 -0.00000000000E+00 -0.00000000000E+00 -0.11114602358E+03  0.11114602358E+03  0.00000000000E+00 0. -1.
         -6    2    1    2    0  503  0.39784561785E+02  0.43340395901E+01  0.23648525799E+02  0.19053987560E+03  0.18478256456E+03 0.  0.
        -24    2    3    3    0    0  0.11556558045E+02 -0.55520899323E+02 -0.30872036966E+02  0.10466778659E+03  0.82378022478E+02 0.  0.
          6    2    1    2  501    0 -0.39784561785E+02 -0.43340395901E+01  0.25591337805E+03  0.31131407540E+03  0.17269395248E+03 0.  0.
         24    2    5    5    0    0 -0.20913762044E+01  0.52595396071E+02  0.20201563231E+03  0.22420039175E+03  0.81760934570E+02 0.  0.
          5    1    5    5  501    0 -0.37693185580E+02 -0.56929435661E+02  0.53897745746E+02  0.87113683657E+02  0.47000000000E+01 0. -1.
        -11    1    6    6    0    0  0.28832101442E+02  0.28131645969E+02  0.37534959264E+02  0.55059538188E+02  0.00000000000E+00 0.  1.
         12    1    6    6    0    0 -0.30923477647E+02  0.24463750102E+02  0.16448067304E+03  0.16914085356E+03  0.00000000000E+00 0. -1.
         -5    1    3    3    0  503  0.28228003739E+02  0.59854938913E+02  0.54520562765E+02  0.85872089014E+02  0.47000000000E+01 0.  1.
         11    1    4    4    0    0  0.16348531151E+02 -0.10427086853E+01 -0.45247276143E+02  0.48121489072E+02  0.00000000000E+00 0. -1.
        -12    1    4    4    0    0 -0.47919731056E+01 -0.54478190638E+02  0.14375239177E+02  0.56546297516E+02  0.00000000000E+00 0.  1.
</event>
<event>
12    1  0.1681255E-001  0.3246789E+03  0.7818608E-02  0.1073595E+00
         21   -1    0    0  501  502  0.00000000000E+00  0.00000000000E+00  0.44894297071E+03  0.44894297071E+03  0.00000000000E+00 0.  1.
         21   -1    0    0  502  503 -0.00000000000E+00 -0.00000000000E+00 -0.24397558325E+03  0.24397558325E+03  0.00000000000E+00 0. -1.
         -6    2    1    2    0  503 -0.72374104641E+02  0.26500626310E+03  0.33390945355E+02  0.32569260995E+03  0.17173930953E+03 0.  0.
        -24    2    3    3    0    0 -0.11182397387E+03  0.24050630043E+03  0.31195020950E+02  0.27896518292E+03  0.80626064447E+02 0.  0.
          6    2    1    2  501    0  0.72374104641E+02 -0.26500626310E+03  0.17157644210E+03  0.36722594402E+03  0.17306093716E+03 0.  0.
         24    2    5    5    0    0  0.59517353353E+02 -0.66548140859E+02  0.10986173033E+03  0.15894316032E+03  0.72265884196E+02 0.  0.
          5    1    5    5  501    0  0.12856751288E+02 -0.19845812224E+03  0.61714711771E+02  0.20828278370E+03  0.47000000000E+01 0. -1.
        -11    1    6    6    0    0  0.25414939845E+02  0.11305029818E+02  0.41043655771E+02  0.49581292294E+02  0.00000000000E+00 0.  1.
         12    1    6    6    0    0  0.34102413508E+02 -0.77853170677E+02  0.68818074561E+02  0.10936186802E+03  0.00000000000E+00 0. -1.
         -5    1    3    3    0  503  0.39449869229E+02  0.24499962666E+02  0.21959244052E+01  0.46727427030E+02  0.47000000000E+01 0.  1.
         13    1    4    4    0    0 -0.10189219108E+03  0.15007351551E+03 -0.39457849999E+01  0.18143772452E+03  0.00000000000E+00 0. -1.
        -14    1    4    4    0    0 -0.99317827912E+01  0.90432784925E+02  0.35140805950E+02  0.97527458397E+02  0.00000000000E+00 0.  1.
</event>
<event>
12    1  0.1681255E-001  0.1854570E+03  0.7818608E-02  0.1162628E+00
         21   -1    0    0  501  502  0.00000000000E+00  0.00000000000E+00  0.24340915754E+03  0.24340915754E+03  0.00000000000E+00 0. -1.
         21   -1    0    0  502  503 -0.00000000000E+00 -0.00000000000E+00 -0.14230028367E+03  0.14230028367E+03  0.00000000000E+00 0. -1.
         -6    2    1    2    0  503 -0.44456360379E+02  0.52410291654E+02  0.34294184871E+02  0.18858387395E+03  0.17223408417E+03 0.  0.
        -24    2    3    3    0    0 -0.60770380232E+01  0.75794655206E+02  0.51224872001E+02  0.14032893628E+03  0.10623776493E+03 0.  0.
          6    2    1    2  501    0  0.44456360379E+02 -0.52410291654E+02  0.66814688992E+02  0.19712556726E+03  0.17225295339E+03 0.  0.
         24    2    5    5    0    0 -0.28542288672E+02 -0.23126594472E+02  0.76142135577E+02  0.11778182810E+03  0.82008734935E+02 0.  0.
          5    1    5    5  501    0  0.72998649050E+02 -0.29283697182E+02 -0.93274465846E+01  0.79343739158E+02  0.47000000000E+01 0. -1.
        -13    1    6    6    0    0 -0.21492394644E+02  0.14262502776E+02 -0.66740421217E+01  0.26643664373E+02  0.00000000000E+00 0.  1.
         14    1    6    6    0    0 -0.70498940280E+01 -0.37389097248E+02  0.82816177698E+02  0.91138163726E+02  0.00000000000E+00 0. -1.
         -5    1    3    3    0  503 -0.38379322356E+02 -0.23384363552E+02 -0.16930687131E+02  0.48254937674E+02  0.47000000000E+01 0.  1.
         11    1    4    4    0    0 -0.54612581090E+02  0.33854802847E+02  0.38585118957E+02  0.74949937252E+02  0.00000000000E+00 0. -1.
        -12    1    4    4    0    0  0.48535543067E+02  0.41939852359E+02  0.12639753045E+02  0.65378999026E+02  0.00000000000E+00 0.  1.
</event>
<event>
12    1  0.1681255E-001  0.2664157E+03  0.7818608E-02  0.1103369E+00
         21   -1    0    0  501  502  0.00000000000E+00  0.00000000000E+00  0.12624934812E+04  0.12624934812E+04  0.00000000000E+00 0. -1.
         21   -1    0    0  502  503 -0.00000000000E+00 -0.00000000000E+00 -0.97349317753E+02  0.97349317753E+02  0.00000000000E+00 0.  1.
         -6    2    1    2    0  503 -0.30419869962E+02 -0.20146324226E+03  0.14055764836E+03  0.30122051464E+03  0.17165237969E+03 0.  0.
        -24    2    3    3    0    0 -0.35142639092E+02 -0.20454008461E+03  0.16428919892E+03  0.27638006377E+03  0.79519478567E+02 0.  0.
          6    2    1    2  501    0  0.30419869962E+02  0.20146324226E+03  0.10245865151E+04  0.10586222843E+04  0.17143747397E+03 0.  0.
         24    2    5    5    0    0 -0.29483937865E+02  0.48018539236E+02  0.29536162562E+03  0.31100956874E+03  0.79456776012E+02 0.  0.
          5    1    5    5  501    0  0.59903807827E+02  0.15344470302E+03  0.72922488944E+03  0.74761271556E+03  0.47000000000E+01 0. -1.
        -11    1    6    6    0    0 -0.39747417018E+02  0.40038384280E+02  0.96935672219E+02  0.11215816477E+03  0.00000000000E+00 0.  1.
         12    1    6    6    0    0  0.10263479153E+02  0.79801549559E+01  0.19842595340E+03  0.19885140397E+03  0.00000000000E+00 0. -1.
         -5    1    3    3    0  503  0.47227691296E+01  0.30768423485E+01 -0.23731550565E+02  0.24840450867E+02  0.47000000000E+01 0.  1.
         13    1    4    4    0    0 -0.40489332938E+02 -0.41390552234E+02  0.55560664154E+02  0.80246814873E+02  0.00000000000E+00 0. -1.
        -14    1    4    4    0    0  0.53466938463E+01 -0.16314953237E+03  0.10872853477E+03  0.19613324890E+03  0.00000000000E+00 0.  1.
</event>
<event>
12    1  0.1681255E-001  0.3800479E+03  0.7818608E-02  0.1050930E+00
         21   -1    0    0  503  502  0.00000000000E+00  0.00000000000E+00  0.19724452161E+04  0.19724452161E+04  0.00000000000E+00 0.  1.
         21   -1    0    0  501  503 -0.00000000000E+00 -0.00000000000E+00 -0.84583265035E+02  0.84583265035E+02  0.00000000000E+00 0. -1.
          6    2    1    2  501    0  0.14592183506E+03  0.30555865139E+03  0.13214523342E+04  0.13750173343E+04  0.17256050166E+03 0.  0.
         24    2    3    3    0    0  0.80753850029E+02  0.18942248629E+03  0.57359119565E+03  0.61537738825E+03  0.85325304756E+02 0.  0.
         -6    2    1    2    0  502 -0.14592183506E+03 -0.30555865139E+03  0.56640961689E+03  0.68201114684E+03  0.17222101765E+03 0.  0.
        -24    2    5    5    0    0 -0.12922117565E+03 -0.32050275823E+03  0.51148008773E+03  0.62249995858E+03  0.80462339174E+02 0.  0.
          5    1    3    3  501    0  0.65167985030E+02  0.11613616510E+03  0.74786113855E+03  0.75963994608E+03  0.47000000000E+01 0. -1.
        -11    1    4    4    0    0  0.65231592378E+02  0.64696233406E+02  0.31046057330E+03  0.32376925554E+03  0.00000000000E+00 0.  1.
         12    1    4    4    0    0  0.15522257651E+02  0.12472625288E+03  0.26313062235E+03  0.29160813271E+03  0.00000000000E+00 0. -1.
         -5    1    5    5    0  502 -0.16700659413E+02  0.14944106836E+02  0.54929529161E+02  0.59511188258E+02  0.47000000000E+01 0.  1.
         11    1    6    6    0    0 -0.16858221150E+02 -0.88322715734E+02  0.82982793117E+02  0.12235704184E+03  0.00000000000E+00 0. -1.
        -12    1    6    6    0    0 -0.11236295450E+03 -0.23218004249E+03  0.42849729461E+03  0.50014291674E+03  0.00000000000E+00 0.  1.
</event>
<event>
12    1  0.1681255E-001  0.2248002E+03  0.7818608E-02  0.1130366E+00
         21   -1    0    0  503  502  0.00000000000E+00  0.00000000000E+00  0.23707524457E+02  0.23707524457E+02  0.00000000000E+00 0. -1.
         21   -1    0    0  501  503 -0.00000000000E+00 -0.00000000000E+00 -0.21340094411E+04  0.21340094411E+04  0.00000000000E+00 0. -1.
          6    2    1    2  501    0  0.12169003252E+03 -0.78438819998E+02 -0.10961028519E+04  0.11189175919E+04  0.17197093636E+03 0.  0.
         24    2    3    3    0    0  0.70208477132E+02 -0.11617456123E+03 -0.68262009265E+03  0.70051059036E+03  0.79493002099E+02 0.  0.
         -6    2    1    2    0  502 -0.12169003252E+03  0.78438819998E+02 -0.10141990647E+04  0.10387993736E+04  0.17188159690E+03 0.  0.
        -24    2    5    5    0    0 -0.13650558605E+03  0.16714713635E+02 -0.65220830998E+03  0.67125514170E+03  0.79338697867E+02 0.  0.
          5    1    3    3  501    0  0.51481555384E+02  0.37735741235E+02 -0.41348275928E+03  0.41840700154E+03  0.47000000000E+01 0. -1.
        -13    1    4    4    0    0  0.26443705557E+01 -0.46551744770E+00  0.17119641045E+01  0.31843717159E+01  0.00000000000E+00 0.  1.
         14    1    4    4    0    0  0.67564106576E+02 -0.11570904379E+03 -0.68433205676E+03  0.69732621865E+03  0.00000000000E+00 0. -1.
         -5    1    5    5    0  502  0.14815553535E+02  0.61724106363E+02 -0.36199075472E+03  0.36754423194E+03  0.47000000000E+01 0.  1.
         11    1    6    6    0    0 -0.90300145562E+02  0.47867233266E+02 -0.45403903053E+03  0.46539964498E+03  0.00000000000E+00 0. -1.
        -12    1    6    6    0    0 -0.46205440489E+02 -0.31152519631E+02 -0.19816927945E+03  0.20585549672E+03  0.00000000000E+00 0.  1.
</event>
<event>
12    1  0.1681255E-001  0.2312577E+03  0.7818608E-02  0.1125793E+00
         21   -1    0    0  501  502  0.00000000000E+00  0.00000000000E+00  0.50054964898E+02  0.50054964898E+02  0.00000000000E+00 0. -1.
         21   -1    0    0  502  503 -0.00000000000E+00 -0.00000000000E+00 -0.14484215663E+04  0.14484215663E+04  0.00000000000E+00 0.  1.
         -6    2    1    2    0  503  0.83141323548E+02  0.12981473992E+03 -0.10831884341E+04  0.11075578478E+04  0.17211291653E+03 0.  0.
        -24    2    3    3    0    0  0.18864768416E+02  0.21144453839E+02 -0.21252351466E+03  0.22777367052E+03  0.76887146416E+02 0.  0.
          6    2    1    2  501    0 -0.83141323548E+02 -0.12981473992E+03 -0.31517816728E+03  0.39091868339E+03  0.17238269494E+03 0.  0.
         24    2    5    5    0    0 -0.81818591357E+02 -0.15469536054E+02 -0.13000380109E+03  0.17323034847E+03  0.78575930772E+02 0.  0.
          5    1    5    5  501    0 -0.13227321905E+01 -0.11434520386E+03 -0.18517436619E+03  0.21768833492E+03  0.47000000000E+01 0. -1.
        -13    1    6    6    0    0  0.70602026409E+01 -0.20816633603E+02 -0.45231420057E+02  0.50289760948E+02  0.00000000000E+00 0.  1.
         14    1    6    6    0    0 -0.88878793998E+02  0.53470975488E+01 -0.84772381035E+02  0.12294058753E+03  0.00000000000E+00 0. -1.
         -5    1    3    3    0  503  0.64276555132E+02  0.10867028608E+03 -0.87066491946E+03  0.87978417729E+03  0.47000000000E+01 0.  1.
         13    1    4    4    0    0  0.10881371803E+02  0.61991077649E+01 -0.21031368340E+03  0.21068620889E+03  0.00000000000E+00 0. -1.
        -14    1    4    4    0    0  0.79833966125E+01  0.14945346074E+02 -0.22098312521E+01  0.17087461628E+02  0.00000000000E+00 0.  1.
</event>
<event>
12    1  0.1681255E-001  0.1742404E+03  0.7818608E-02  0.1173574E+00
         21   -1    0    0  503  502  0.00000000000E+00  0.00000000000E+00  0.29905072039E+03  0.29905072039E+03  0.00000000000E+00 0.  1.
         21   -1    0    0  501  503 -0.00000000000E+00 -0.00000000000E+00 -0.31842241792E+03  0.31842241792E+03  0.00000000000E+00 0.  1.
          6    2    1    2  501    0  0.20000804158E+02 -0.16364750197E+02 -0.26460377677E+03  0.31681996196E+03  0.17231335525E+03 0.  0.
         24    2    3    3    0    0  0.12543886974E+02  0.46242045245E+02 -0.21918586609E+03  0.23897336242E+03  0.82280910319E+02 0.  0.
         -6    2    1    2    0  502 -0.20000804158E+02  0.16364750197E+02  0.24523207924E+03  0.30065317636E+03  0.17200500734E+03 0.  0.
        -24    2    5    5    0    0  0.31831744349E+02  0.34303538655E+02  0.22160518452E+03  0.24074713851E+03  0.81610870491E+02 0.  0.
          5    1    3    3  501    0  0.74569171838E+01 -0.62606795442E+02 -0.45417910675E+02  0.77846599537E+02  0.47000000000E+01 0. -1.
        -11    1    4    4    0    0  0.47798335679E+02  0.27199716872E+02 -0.12011228859E+03  0.13210400207E+03  0.00000000000E+00 0.  1.
         12    1    4    4    0    0 -0.35254448705E+02  0.19042328373E+02 -0.99073577505E+02  0.10686936036E+03  0.00000000000E+00 0. -1.
         -5    1    5    5    0  502 -0.51832548507E+02 -0.17938788458E+02  0.23626894719E+02  0.59906037844E+02  0.47000000000E+01 0.  1.
         11    1    6    6    0    0 -0.72738236256E+01 -0.26965958101E+01 -0.40554350902E+01  0.87536673955E+01  0.00000000000E+00 0. -1.
        -12    1    6    6    0    0  0.39105567975E+02  0.37000134466E+02  0.22566061961E+03  0.23199347112E+03  0.00000000000E+00 0.  1.
</event>
<event>
12    1  0.1681255E-001  0.2657666E+03  0.7818608E-02  0.1103755E+00
         21   -1    0    0  503  502  0.00000000000E+00  0.00000000000E+00  0.28360834423E+03  0.28360834423E+03  0.00000000000E+00 0. -1.
         21   -1    0    0  501  503 -0.00000000000E+00 -0.00000000000E+00 -0.44455453332E+03  0.44455453332E+03  0.00000000000E+00 0.  1.
          6    2    1    2  501    0  0.20027899499E+03  0.25154399526E+02 -0.32201273488E+03  0.41739875388E+03  0.17258359906E+03 0.  0.
         24    2    3    3    0    0  0.13849447865E+03 -0.24439500077E+02 -0.12285087969E+03  0.20300561989E+03  0.79629977322E+02 0.  0.
         -6    2    1    2    0  502 -0.20027899499E+03 -0.25154399526E+02  0.16106654578E+03  0.31076412367E+03  0.17287998363E+03 0.  0.
        -24    2    5    5    0    0 -0.45993472815E+02 -0.86021028721E+01  0.11497952503E+03  0.14882554161E+03  0.82093574320E+02 0.  0.
          5    1    3    3  501    0  0.61784516347E+02  0.49593899603E+02 -0.19916185519E+03  0.21439313398E+03  0.47000000000E+01 0. -1.
        -13    1    4    4    0    0  0.61567988771E+02  0.30332084615E+01 -0.10120704977E+03  0.11850183340E+03  0.00000000000E+00 0.  1.
         14    1    4    4    0    0  0.76926489875E+02 -0.27472708539E+02 -0.21643829920E+02  0.84503786498E+02  0.00000000000E+00 0. -1.
         -5    1    5    5    0  502 -0.15428552218E+03 -0.16552296654E+02  0.46087020756E+02  0.16193858206E+03  0.47000000000E+01 0.  1.
         13    1    6    6    0    0 -0.21777545929E+01 -0.37677839395E+02  0.27276005474E+02  0.46565466509E+02  0.00000000000E+00 0. -1.
        -14    1    6    6    0    0 -0.43815718222E+02  0.29075736523E+02  0.87703519553E+02  0.10226007510E+03  0.00000000000E+00 0.  1.
</event>
<event>
12    1  0.1681255E-001  0.2313560E+03  0.7818608E-02  0.1126008E+00
         21   -1    0    0  501  502  0.00000000000E+00  0.00000000000E+00  0.33754394971E+03  0.33754394971E+03  0.00000000000E+00 0. -1.
         21   -1    0    0  502  503 -0.00000000000E+00 -0.00000000000E+00 -0.15898935193E+03  0.15898935193E+03  0.00000000000E+00 0. -1.
         -6    2    1    2    0  503 -0.14483593307E+03  0.43935227896E+02  0.64268987368E+02  0.24011683933E+03  0.17497954747E+03 0.  0.
        -24    2    3    3    0    0 -0.62418000870E+02  0.12226355650E+01 -0.34384087213E+02  0.10457496308E+03  0.76525523712E+02 0.  0.
          6    2    1    2  501    0  0.14483593307E+03 -0.43935227896E+02  0.11428561042E+03  0.25641646231E+03  0.17257012962E+03 0.  0.
         24    2    5    5    0    0  0.67858234217E+02  0.17425623279E+02 -0.64297444223E-01  0.10545715784E+03  0.78821416560E+02 0.  0.
          5    1    5    5  501    0  0.76977698856E+02 -0.61360851174E+02  0.11434990786E+03  0.15095930447E+03  0.47000000000E+01 0. -1.
        -13    1    6    6    0    0  0.11927529429E+02  0.37962682275E+02  0.17308987382E+02  0.43393919481E+02  0.00000000000E+00 0.  1.
         14    1    6    6    0    0  0.55930704789E+02 -0.20537058996E+02 -0.17373284826E+02  0.62063238362E+02  0.00000000000E+00 0. -1.
         -5    1    3    3    0  503 -0.82417932203E+02  0.42712592331E+02  0.98653074581E+02  0.13554187625E+03  0.47000000000E+01 0.  1.
         11    1    4    4    0    0 -0.86775040033E+01  0.29605231599E+02 -0.30954806130E+02  0.43703190230E+02  0.00000000000E+00 0. -1.
        -12    1    4    4    0    0 -0.53740496867E+02 -0.28382596034E+02 -0.34292810828E+01  0.60871772850E+02  0.00000000000E+00 0.  1.
</event>
<event>
12    1  0.1681255E-001  0.1877991E+03  0.7818608E-02  0.1160978E+00
         21   -1    0    0  503  502  0.00000000000E+00  0.00000000000E+00  0.55041687825E+02  0.55041687825E+02  0.00000000000E+00 0. -1.
         21   -1    0    0  501  503 -0.00000000000E+00 -0.00000000000E+00 -0.72095373430E+03  0.72095373430E+03  0.00000000000E+00 0.  1.
          6    2    1    2  501    0 -0.70485574994E+02  0.10377629645E+02 -0.46661329499E+03  0.50215515037E+03  0.17133568369E+03 0.  0.
         24    2    3    3    0    0 -0.61302245085E+02 -0.58258042614E+02 -0.28756693038E+03  0.31012681982E+03  0.79573488935E+02 0.  0.
         -6    2    1    2    0  502  0.70485574994E+02 -0.10377629645E+02 -0.19929875149E+03  0.27384027175E+03  0.17376015254E+03 0.  0.
        -24    2    5    5    0    0  0.64443287346E+02 -0.39818282378E+02 -0.21335308437E+03  0.24033093654E+03  0.80628701801E+02 0.  0.
          5    1    3    3  501    0 -0.91833299097E+01  0.68635672260E+02 -0.17904636461E+03  0.19202833055E+03  0.47000000000E+01 0. -1.
        -13    1    4    4    0    0 -0.28696263366E+02  0.11961308280E+02 -0.39547057734E+02  0.50304256305E+02  0.00000000000E+00 0.  1.
         14    1    4    4    0    0 -0.32605981718E+02 -0.70219350895E+02 -0.24801987264E+03  0.25982256351E+03  0.00000000000E+00 0. -1.
         -5    1    5    5    0  502  0.60422876482E+01  0.29440652733E+02  0.14054332885E+02  0.33509335210E+02  0.47000000000E+01 0.  1.
         11    1    6    6    0    0  0.25175917568E+02  0.14583765763E+02 -0.19066126923E+02  0.34785489001E+02  0.00000000000E+00 0. -1.
        -12    1    6    6    0    0  0.39267369778E+02 -0.54402048142E+02 -0.19428695745E+03  0.20554544754E+03  0.00000000000E+00 0.  1.
</event>
<event>
12    1  0.1681255E-001  0.1757020E+03  0.7818608E-02  0.1172271E+00
         21   -1    0    0  503  502  0.00000000000E+00  0.00000000000E+00  0.94379326803E+03  0.94379326803E+03  0.00000000000E+00 0.  1.
         21   -1    0    0  501  503 -0.00000000000E+00 -0.00000000000E+00 -0.51083634448E+02  0.51083634448E+02  0.00000000000E+00 0.  1.
          6    2    1    2  501    0 -0.33875224449E+02  0.45358699814E+01  0.14578246269E+03  0.22756250849E+03  0.17135945815E+03 0.  0.
         24    2    3    3    0    0 -0.72440680765E+02 -0.11134726615E+02  0.41149177432E+02  0.11485458330E+03  0.78273150790E+02 0.  0.
         -6    2    1    2    0  502  0.33875224449E+02 -0.45358699814E+01  0.74692717090E+03  0.76731439399E+03  0.17234580252E+03 0.  0.
        -24    2    5    5    0    0  0.22140762607E+02  0.63048139679E+02  0.42115487955E+03  0.43436549135E+03  0.82684135252E+02 0.  0.
          5    1    3    3  501    0  0.38565456317E+02  0.15670596596E+02  0.10463328525E+03  0.11270792519E+03  0.47000000000E+01 0. -1.
        -11    1    4    4    0    0  0.84096195611E+01 -0.21413011908E+02 -0.11436026571E+01  0.23033597357E+02  0.00000000000E+00 0.  1.
         12    1    4    4    0    0 -0.80850300326E+02  0.10278285294E+02  0.42292780089E+02  0.91820985940E+02  0.00000000000E+00 0. -1.
         -5    1    5    5    0  502  0.11734461841E+02 -0.67584009660E+02  0.32577229135E+03  0.33294890263E+03  0.47000000000E+01 0.  1.
         13    1    6    6    0    0 -0.18555194139E+02  0.44201078409E+02  0.10995450904E+03  0.11995009221E+03  0.00000000000E+00 0. -1.
        -14    1    6    6    0    0  0.40695956747E+02  0.18847061269E+02  0.31120037051E+03  0.31441539915E+03  0.00000000000E+00 0.  1.
</event>
<event>
12    1  0.1681255E-001  0.1931129E+03  0.7818608E-02  0.1155765E+00
         21   -1    0    0  503  502  0.00000000000E+00  0.00000000000E+00  0.31496344199E+03  0.31496344199E+03  0.00000000000E+00 0. -1.
         21   -1    0    0  501  503 -0.00000000000E+00 -0.00000000000E+00 -0.12185784481E+03  0.12185784481E+03  0.00000000000E+00 0. -1.
          6    2    1    2  501    0 -0.86960048229E+02  0.62785126383E+00  0.13460226199E+03  0.23539408650E+03  0.17242436847E+03 0.  0.
         24    2    3    3    0    0 -0.31415383190E+02 -0.55951241284E+02  0.42798637067E+02  0.11400051551E+03  0.83945973698E+02 0.  0.
         -6    2    1    2    0  502  0.86960048229E+02 -0.62785126383E+00  0.58503335187E+02  0.20142720029E+03  0.17201114093E+03 0.  0.
        -24    2    5    5    0    0  0.81777561395E+02  0.61645190678E+02  0.41826202717E+02  0.13658117752E+03  0.80107975484E+02 0.  0.
          5    1    3    3  501    0 -0.55544665039E+02  0.56579092548E+02  0.91803624926E+02  0.12139357099E+03  0.47000000000E+01 0. -1.
        -13    1    4    4    0    0  0.67702027050E+01  0.10549676726E+02  0.34693811692E+02  0.36888912879E+02  0.00000000000E+00 0.  1.
         14    1    4    4    0    0 -0.38185585895E+02 -0.66500918010E+02  0.81048253748E+01  0.77111602633E+02  0.00000000000E+00 0. -1.
         -5    1    5    5    0  502  0.51824868343E+01 -0.62273041942E+02  0.16677132469E+02  0.64846022776E+02  0.47000000000E+01 0.  1.
         13    1    6    6    0    0  0.83773041346E+02  0.17257808878E+02  0.29401635694E+02  0.90444516723E+02  0.00000000000E+00 0. -1.
        -14    1    6    6    0    0 -0.19954799518E+01  0.44387381801E+02  0.12424567023E+02  0.46136660792E+02  0.00000000000E+00 0.  1.
</event>
<event>
12    1  0.1681255E-001  0.1805439E+03  0.7818608E-02  0.1167479E+00
         21   -1    0    0  503  502  0.00000000000E+00  0.00000000000E+00  0.18744922822E+03  0.18744922822E+03  0.00000000000E+00 0. -1.
         21   -1    0    0  501  503 -0.00000000000E+00 -0.00000000000E+00 -0.39494756425E+03  0.39494756425E+03  0.00000000000E+00 0.  1.
          6    2    1    2  501    0 -0.55271307641E+02 -0.30166504545E+01 -0.32189394584E+03  0.36866226913E+03  0.17097408776E+03 0.  0.
         24    2    3    3    0    0 -0.33192500401E+02  0.39277710884E+02 -0.30222604499E+03  0.31684332420E+03  0.80028927033E+02 0.  0.
         -6    2    1    2    0  502  0.55271307641E+02  0.30166504545E+01  0.11439560981E+03  0.21373452335E+03  0.17184898399E+03 0.  0.
        -24    2    5    5    0    0  0.41016740993E+02 -0.50721508324E+02  0.11902738192E+03  0.15774768836E+03  0.80385142199E+02 0.  0.
          5    1    3    3  501    0 -0.22078807239E+02 -0.42294361338E+02 -0.19667900846E+02  0.51818944932E+02  0.47000000000E+01 0. -1.
        -13    1    4    4    0    0 -0.28073530979E+02  0.10663879077E+02 -0.27619614420E+03  0.27782395780E+03  0.00000000000E+00 0.  1.
         14    1    4    4    0    0 -0.51189694220E+01  0.28613831807E+02 -0.26029900794E+02  0.39019366397E+02  0.00000000000E+00 0. -1.
         -5    1    5    5    0  502  0.14254566648E+02  0.53738158778E+02 -0.46317721101E+01  0.55986834989E+02  0.47000000000E+01 0.  1.
         13    1    6    6    0    0  0.50689854561E+02 -0.65810930807E+02  0.10951640783E+03  0.13745684251E+03  0.00000000000E+00 0. -1.
        -14    1    6    6    0    0 -0.96731135681E+01  0.15089422483E+02  0.95109740924E+01  0.20290845846E+02  0.00000000000E+00 0.  1.
</event>
<event>
12    1  0.1681255E-001  0.2311533E+03  0.7818608E-02  0.1126526E+00
         21   -1    0    0  501  502  0.00000000000E+00  0.00000000000E+00  0.62586757237E+03  0.62586757237E+03  0.00000000000E+00 0.  1.
         21   -1    0    0  502  503 -0.00000000000E+00 -0.00000000000E+00 -0.82299059616E+03  0.82299059616E+03  0.00000000000E+00 0.  1.
         -6    2    1    2    0  503  0.80593534433E+02 -0.12519938718E+03 -0.78514475812E+03  0.81846449842E+03  0.17680961406E+03 0.  0.
        -24    2    3    3    0    0  0.88864794331E+02 -0.15562149764E+03 -0.71687076498E+03  0.74311632867E+03  0.78760282171E+02 0.  0.
          6    2    1    2  501    0 -0.80593534433E+02  0.12519938718E+03  0.58802173433E+03  0.63039367011E+03  0.17162871243E+03 0.  0.
         24    2    5    5    0    0 -0.29199776865E+02  0.86571517724E+02  0.52978943885E+03  0.54352295668E+03  0.79956865066E+02 0.  0.
          5    1    5    5  501    0 -0.51393757568E+02  0.38627869451E+02  0.58232295481E+02  0.86870713432E+02  0.47000000000E+01 0. -1.
        -13    1    6    6    0    0 -0.44151649572E+02  0.29581024132E+02  0.14882731233E+03  0.15803156028E+03  0.00000000000E+00 0.  1.
         14    1    6    6    0    0  0.14951872706E+02  0.56990493592E+02  0.38096212652E+03  0.38549139640E+03  0.00000000000E+00 0. -1.
         -5    1    3    3    0  503 -0.82712598977E+01  0.30422110468E+02 -0.68273993143E+02  0.75348169755E+02  0.47000000000E+01 0.  1.
         11    1    4    4    0    0  0.54398135155E+02 -0.26052452354E+02 -0.18380641865E+03  0.19344944280E+03  0.00000000000E+00 0. -1.
        -12    1    4    4    0    0  0.34466659176E+02 -0.12956904529E+03 -0.53306434633E+03  0.54966688587E+03  0.00000000000E+00 0.  1.
</event>
<event>
12    1  0.1681255E-001  0.1937689E+03  0.7818608E-02  0.1156450E+00
         21   -1    0    0  503  502  0.00000000000E+00  0.00000000000E+00  0.24655256036E+03  0.24655256036E+03  0.00000000000E+00 0. -1.
         21   -1    0    0  501  503 -0.00000000000E+00 -0.00000000000E+00 -0.15120288182E+03  0.15120288182E+03  0.00000000000E+00 0. -1.
          6    2    1    2  501    0  0.31661641788E+02 -0.70339975562E+02  0.79125016373E+02  0.20930163268E+03  0.17775329394E+03 0.  0.
         24    2    3    3    0    0 -0.49006049925E+02 -0.33838679983E+02  0.16309675413E+02  0.10063941236E+03  0.79470979710E+02 0.  0.
         -6    2    1    2    0  502 -0.31661641788E+02  0.70339975562E+02  0.16224662168E+02  0.18845380951E+03  0.17117659575E+03 0.  0.
        -24    2    5    5    0    0  0.69374952072E+01  0.12689409591E+01 -0.35229179982E+02  0.93953602787E+02  0.86812702432E+02 0.  0.
          5    1    3    3  501    0  0.80667691713E+02 -0.36501295579E+02  0.62815340960E+02  0.10866222032E+03  0.47000000000E+01 0. -1.
        -13    1    4    4    0    0  0.29419491565E+01 -0.95213562030E+00  0.35960136931E+02  0.36092839667E+02  0.00000000000E+00 0.  1.
         14    1    4    4    0    0 -0.51947999082E+02 -0.32886544363E+02 -0.19650461519E+02  0.64546572695E+02  0.00000000000E+00 0. -1.
         -5    1    5    5    0  502 -0.38599136995E+02  0.69071034603E+02  0.51453842150E+02  0.94500206718E+02  0.47000000000E+01 0.  1.
         13    1    6    6    0    0  0.29102115129E+02  0.34350518617E+02 -0.29245854803E+02  0.53686229681E+02  0.00000000000E+00 0. -1.
        -14    1    6    6    0    0 -0.22164619922E+02 -0.33081577658E+02 -0.59833251792E+01  0.40267373105E+02  0.00000000000E+00 0.  1.
</event>
<event>
12    1  0.1681255E-001  0.1830761E+03  0.7818608E-02  0.1164907E+00
         21   -1    0    0  501  502  0.00000000000E+00  0.00000000000E+00  0.51017803203E+02  0.51017803203E+02  0.00000000000E+00 0. -1.
         21   -1    0    0  502  503 -0.00000000000E+00 -0.00000000000E+00 -0.10459926653E+04  0.10459926653E+04  0.00000000000E+00 0. -1.
         -6    2    1    2    0  503  0.12019874376E+02 -0.56119397141E+02 -0.83213635207E+03  0.85199363634E+03  0.17363289958E+03 0.  0.
        -24    2    3    3    0    0 -0.77382072292E+01  0.29619764673E+02 -0.34964871076E+03  0.36152651240E+03  0.86660186464E+02 0.  0.
          6    2    1    2  501    0 -0.12019874376E+02  0.56119397141E+02 -0.16283851007E+03  0.24501683220E+03  0.17384764475E+03 0.  0.
         24    2    5    5    0    0  0.13128104915E+02  0.50932666242E+02 -0.16586751381E+02  0.96453748096E+02  0.79131040504E+02 0.  0.
          5    1    5    5  501    0 -0.25147979291E+02  0.51867308995E+01 -0.14625175869E+03  0.14856308411E+03  0.47000000000E+01 0. -1.
        -13    1    6    6    0    0 -0.13941614860E+02  0.25371691557E+02 -0.42263113930E+02  0.51227552708E+02  0.00000000000E+00 0.  1.
         14    1    6    6    0    0  0.27069719775E+02  0.25560974684E+02  0.25676362549E+02  0.45226195388E+02  0.00000000000E+00 0. -1.
         -5    1    3    3    0  503  0.19758081605E+02 -0.85739161814E+02 -0.48248764131E+03  0.49046712394E+03  0.47000000000E+01 0.  1.
         13    1    4    4    0    0 -0.46566240175E+02  0.23883065369E+02 -0.18458134070E+03  0.19185694377E+03  0.00000000000E+00 0. -1.
        -14    1    4    4    0    0  0.38828032945E+02  0.57366993037E+01 -0.16506737006E+03  0.16966956863E+03  0.00000000000E+00 0.  1.
</event>
<event>
12    1  0.1681255E-001  0.1841160E+03  0.7818608E-02  0.1163961E+00
         21   -1    0    0  501  502  0.00000000000E+00  0.00000000000E+00  0.27248942251E+03  0.27248942251E+03  0.00000000000E+00 0. -1.
         21   -1    0    0  502  503 -0.00000000000E+00 -0.00000000000E+00 -0.15202665410E+03  0.15202665410E+03  0.00000000000E+00 0. -1.
         -6    2    1    2    0  503 -0.33126804140E+01  0.63991593192E+02 -0.30589538450E+02  0.18663979293E+03  0.17260589385E+03 0.  0.
        -24    2    3    3    0    0 -0.17826515584E+02  0.74360586814E+02 -0.78430517184E+02  0.13536585524E+03  0.79531674260E+02 0.  0.
          6    2    1    2  501    0  0.33126804140E+01 -0.63991593192E+02  0.15105230686E+03  0.23787628368E+03  0.17222784060E+03 0.  0.
         24    2    5    5    0    0 -0.28486785051E-01 -0.29994461488E+02  0.17650029492E+03  0.19502003025E+03  0.77335564658E+02 0.  0.
          5    1    5    5  501    0  0.33411671991E+01 -0.33997131704E+02 -0.25447988055E+02  0.42856253434E+02  0.47000000000E+01 0. -1.
        -13    1    6    6    0    0 -0.58529828435E+01 -0.63129983680E+01 -0.62572277651E+01  0.10642568105E+02  0.00000000000E+00 0.  1.
         14    1    6    6    0    0  0.58244960584E+01 -0.23681463120E+02  0.18275752268E+03  0.18437746214E+03  0.00000000000E+00 0. -1.
         -5    1    3    3    0  503  0.14513835170E+02 -0.10368993622E+02  0.47840978735E+02  0.51273937691E+02  0.47000000000E+01 0.  1.
         11    1    4    4    0    0 -0.46500073512E+02  0.63372253966E+02 -0.47808767816E+02  0.91999878747E+02  0.00000000000E+00 0. -1.
        -12    1    4    4    0    0  0.28673557928E+02  0.10988332847E+02 -0.30621749368E+02  0.43365976495E+02  0.00000000000E+00 0.  1.
</event>
<event>
12    1  0.1681255E-001  0.1858557E+03  0.7818608E-02  0.1162398E+00
         21   -1    0    0  501  502  0.00000000000E+00  0.00000000000E+00  0.73680327837E+02  0.73680327837E+02  0.00000000000E+00 0. -1.
         21   -1    0    0  502  503 -0.00000000000E+00 -0.00000000000E+00 -0.56827102824E+03  0.56827102824E+03  0.00000000000E+00 0. -1.
         -6    2    1    2    0  503  0.68520758995E+02  0.51986339430E+01 -0.11230209040E+03  0.21714991093E+03  0.17268527470E+03 0.  0.
        -24    2    3    3    0    0 -0.13205905803E+02  0.10257356215E+02 -0.20740606304E+02  0.94225406538E+02  0.90380557548E+02 0.  0.
          6    2    1    2  501    0 -0.68520758995E+02 -0.51986339430E+01 -0.38228861001E+03  0.42480144515E+03  0.17201618021E+03 0.  0.
         24    2    5    5    0    0 -0.35721190819E+02  0.11268115509E+02 -0.92573842324E+02  0.13273346998E+03  0.87437313936E+02 0.  0.
          5    1    5    5  501    0 -0.32799568177E+02 -0.16466749452E+02 -0.28971476768E+03  0.29206797517E+03  0.47000000000E+01 0. -1.
        -11    1    6    6    0    0  0.17063639459E+02  0.32807143910E+02 -0.46638223102E+02  0.59519747456E+02  0.00000000000E+00 0.  1.
         12    1    6    6    0    0 -0.52784830277E+02 -0.21539028401E+02 -0.45935619222E+02  0.73213722519E+02  0.00000000000E+00 0. -1.
         -5    1    3    3    0  503  0.81726664798E+02 -0.50587222723E+01 -0.91561484092E+02  0.12292450439E+03  0.47000000000E+01 0.  1.
         11    1    4    4    0    0  0.21628659572E+02  0.31812208721E+02 -0.33822838740E+02  0.51223041290E+02  0.00000000000E+00 0. -1.
        -12    1    4    4    0    0 -0.34834565374E+02 -0.21554852505E+02  0.13082232436E+02  0.43002365247E+02  0.00000000000E+00 0.  1.
</event>
<event>
12    1  0.1681255E-001  0.2011426E+03  0.7818608E-02  0.1148893E+00
         21   -1    0    0  501  502  0.00000000000E+00  0.00000000000E+00  0.26689564989E+02  0.26689564989E+02  0.00000000000E+00 0. -1.
         21   -1    0    0  502  503 -0.00000000000E+00 -0.00000000000E+00 -0.21350704986E+04  0.21350704986E+04  0.00000000000E+00 0. -1.
         -6    2    1    2    0  503  0.86451673720E+02  0.41501599200E+02 -0.16371825050E+04  0.16494258748E+04  0.17618991793E+03 0.  0.
        -24    2    3    3    0    0  0.12519461261E+03  0.19663515543E+02 -0.14056964287E+04  0.14136594423E+04  0.79938877030E+02 0.  0.
          6    2    1    2  501    0 -0.86451673720E+02 -0.41501599200E+02 -0.47119842864E+03  0.51233418881E+03  0.17681087988E+03 0.  0.
         24    2    5    5    0    0  0.17311013219E+02 -0.54523097696E+02 -0.20945968328E+03  0.23043790390E+03  0.77174019414E+02 0.  0.
          5    1    5    5  501    0 -0.10376268694E+03  0.13021498496E+02 -0.26173874536E+03  0.28189628491E+03  0.47000000000E+01 0. -1.
        -13    1    6    6    0    0  0.11356485190E+02 -0.27271396980E+02 -0.19814627349E+03  0.20033632857E+03  0.00000000000E+00 0.  1.
         14    1    6    6    0    0  0.59545280292E+01 -0.27251700716E+02 -0.11313409792E+02  0.30101575326E+02  0.00000000000E+00 0. -1.
         -5    1    3    3    0  503 -0.38742938891E+02  0.21838083657E+02 -0.23148607624E+03  0.23576643252E+03  0.47000000000E+01 0.  1.
         13    1    4    4    0    0  0.61053833392E+02 -0.30206615940E+02 -0.69721295724E+03  0.70053259593E+03  0.00000000000E+00 0. -1.
        -14    1    4    4    0    0  0.64140779219E+02  0.49870131483E+02 -0.70848347150E+03  0.71312684633E+03  0.00000000000E+00 0.  1.
</event>
<event>
12    1  0.1681255E-001  0.1995139E+03  0.7818608E-02  0.1150240E+00
         21   -1    0    0  501  502  0.00000000000E+00  0.00000000000E+00  0.12426582962E+03  0.12426582962E+03  0.00000000000E+00 0.  1.
         21   -1    0    0  502  503 -0.00000000000E+00 -0.00000000000E+00 -0.13356075270E+04  0.13356075270E+04  0.00000000000E+00 0.  1.
         -6    2    1    2    0  503 -0.64720011290E+02 -0.77946465348E+02 -0.12424515269E+04  0.12583686276E+04  0.17187633632E+03 0.  0.
        -24    2    3    3    0    0 -0.89376350006E+02 -0.77082975638E+01 -0.76052463223E+03  0.77070382773E+03  0.86828129448E+02 0.  0.
          6    2    1    2  501    0  0.64720011290E+02  0.77946465348E+02  0.31109829493E+02  0.20150472902E+03  0.17138262165E+03 0.  0.
         24    2    5    5    0    0 -0.86458511479E+01 -0.16266553295E+02  0.53138677086E+01  0.79250222770E+02  0.76896093014E+02 0.  0.
          5    1    5    5  501    0  0.73365862438E+02  0.94213018642E+02  0.25795961785E+02  0.12225450625E+03  0.47000000000E+01 0. -1.
        -13    1    6    6    0    0  0.18676228320E+02  0.12169930641E+01  0.32116749110E+02  0.37172142120E+02  0.00000000000E+00 0.  1.
         14    1    6    6    0    0 -0.27322079468E+02 -0.17483546359E+02 -0.26802881402E+02  0.42078080650E+02  0.00000000000E+00 0. -1.
         -5    1    3    3    0  503  0.24656338716E+02 -0.70238167784E+02 -0.48192689463E+03  0.48766479985E+03  0.47000000000E+01 0.  1.
         11    1    4    4    0    0 -0.72530864550E+02 -0.45486209787E+01 -0.26221330612E+03  0.27209783934E+03  0.00000000000E+00 0. -1.
        -12    1    4    4    0    0 -0.16845485456E+02 -0.31596765851E+01 -0.49831132610E+03  0.49860598839E+03  0.00000000000E+00 0.  1.
</event>
<event>
12    1  0.1681255E-001  0.1999936E+03  0.7818608E-02  0.1149779E+00
         21   -1    0    0  501  502  0.00000000000E+00  0.00000000000E+00  0.33140948434E+03  0.33140948434E+03  0.00000000000E+00 0.  1.
         21   -1    0    0  502  503 -0.00000000000E+00 -0.00000000000E+00 -0.13210227507E+03  0.13210227507E+03  0.00000000000E+00 0.  1.
         -6    2    1    2    0  503  0.94595120167E+02  0.36174335984E+02  0.31195843962E+02  0.20224777047E+03  0.17226189548E+03 0.  0.
        -24    2    3    3    0    0  0.82268384426E+02  0.41793419430E+01 -0.38457902796E+02  0.12447012268E+03  0.85019098898E+02 0.  0.
          6    2    1    2  501    0 -0.94595120167E+02 -0.36174335984E+02  0.16811136531E+03  0.26126398894E+03  0.17245469384E+03 0.  0.
         24    2    5    5    0    0 -0.43720003908E+02 -0.61767454826E+02  0.29369523705E+02  0.11121508426E+03  0.76023475492E+02 0.  0.
          5    1    5    5  501    0 -0.50875116259E+02  0.25593118842E+02  0.13874184160E+03  0.15004890468E+03  0.47000000000E+01 0. -1.
        -13    1    6    6    0    0 -0.24216742224E+02  0.14702182585E+02  0.68322161355E+01  0.29142476800E+02  0.00000000000E+00 0.  1.
         14    1    6    6    0    0 -0.19503261684E+02 -0.76469637411E+02  0.22537307570E+02  0.82072607455E+02  0.00000000000E+00 0. -1.
         -5    1    3    3    0  503  0.12326735741E+02  0.31994994041E+02  0.69653746758E+02  0.77777647787E+02  0.47000000000E+01 0.  1.
         13    1    4    4    0    0  0.57091932457E+01 -0.32449006135E+02 -0.53901435758E+01  0.33385423982E+02  0.00000000000E+00 0. -1.
        -14    1    4    4    0    0  0.76559191181E+02  0.36628348078E+02 -0.33067759221E+02  0.91084698699E+02  0.00000000000E+00 0.  1.
</event>
<event>
12    1  0.1681255E-001  0.1923662E+03  0.7818608E-02  0.1156555E+00
         21   -1    0    0  503  502  0.00000000000E+00  0.00000000000E+00  0.93341923718E+03  0.93341923718E+03  0.00000000000E+00 0.  1.
         21   -1    0    0  501  503 -0.00000000000E+00 -0.00000000000E+00 -0.25891159948E+03  0.25891159948E+03  0.00000000000E+00 0.  1.
          6    2    1    2  501    0  0.45678985727E+02  0.71230851022E+02 -0.21149080227E+03  0.28589003529E+03  0.17275517057E+03 0.  0.
         24    2    3    3    0    0  0.97005370514E+02  0.42693334473E+02 -0.15101298130E+03  0.20145991948E+03  0.80922283215E+02 0.  0.
         -6    2    1    2    0  502 -0.45678985727E+02 -0.71230851022E+02  0.88599843997E+03  0.90644080137E+03  0.17170115573E+03 0.  0.
        -24    2    5    5    0    0 -0.12545094033E+02 -0.52260299132E+01  0.19184559272E+03  0.20835430491E+03  0.80137969503E+02 0.  0.
          5    1    3    3  501    0 -0.51326384786E+02  0.28537516549E+02 -0.60477820969E+02  0.84430115807E+02  0.47000000000E+01 0. -1.
        -13    1    4    4    0    0  0.50853701722E+02  0.45043398518E+02 -0.13741358592E+03  0.15328894391E+03  0.00000000000E+00 0.  1.
         14    1    4    4    0    0  0.46151668792E+02 -0.23500640453E+01 -0.13599395380E+02  0.48170975577E+02  0.00000000000E+00 0. -1.
         -5    1    5    5    0  502 -0.33133891695E+02 -0.66004821109E+02  0.69415284725E+03  0.69808649646E+03  0.47000000000E+01 0.  1.
         11    1    6    6    0    0 -0.18913286299E+02 -0.26462637819E+02  0.27714690636E+02  0.42732747115E+02  0.00000000000E+00 0. -1.
        -12    1    6    6    0    0  0.63681922658E+01  0.21236607905E+02  0.16413090208E+03  0.16562155779E+03  0.00000000000E+00 0.  1.
</event>
<event>
12    1  0.1681255E-001  0.1865782E+03  0.7818608E-02  0.1161668E+00
         21   -1    0    0  503  502  0.00000000000E+00  0.00000000000E+00  0.49397490809E+03  0.49397490809E+03  0.00000000000E+00 0. -1.
         21   -1    0    0  501  503 -0.00000000000E+00 -0.00000000000E+00 -0.11157311150E+03  0.11157311150E+03  0.00000000000E+00 0. -1.
          6    2    1    2  501    0  0.58432961599E+02  0.39854121293E+02  0.70105305100E+01  0.18634637168E+03  0.17225870288E+03 0.  0.
         24    2    3    3    0    0  0.52871243473E+01 -0.37470727922E+02 -0.94018318033E+01  0.90978305960E+02  0.82198835631E+02 0.  0.
         -6    2    1    2    0  502 -0.58432961599E+02 -0.39854121293E+02  0.37539126608E+03  0.41920164791E+03  0.17265183745E+03 0.  0.
        -24    2    5    5    0    0  0.70105692379E+01  0.58039630104E+01  0.49326302514E+02  0.83481575740E+02  0.66732715371E+02 0.  0.
          5    1    3    3  501    0  0.53145837251E+02  0.77324849215E+02  0.16412362313E+02  0.95368065724E+02  0.47000000000E+01 0. -1.
        -11    1    4    4    0    0 -0.24517651128E+02  0.80946465906E+01  0.16543831046E+02  0.30664912619E+02  0.00000000000E+00 0.  1.
         12    1    4    4    0    0  0.29804775475E+02 -0.45565374513E+02 -0.25945662849E+02  0.60313393341E+02  0.00000000000E+00 0. -1.
         -5    1    5    5    0  502 -0.65443530836E+02 -0.45658084303E+02  0.32606496357E+03  0.33572007217E+03  0.47000000000E+01 0.  1.
         13    1    6    6    0    0 -0.23515994683E+01  0.31761433073E+02  0.45623388422E+02  0.55640023562E+02  0.00000000000E+00 0. -1.
        -14    1    6    6    0    0  0.93621687062E+01 -0.25957470062E+02  0.37029140915E+01  0.27841552178E+02  0.00000000000E+00 0.  1.
</event>
<event>
12    1  0.1681255E-001  0.2464404E+03  0.7818608E-02  0.1115608E+00
         21   -1    0    0  501  502  0.00000000000E+00  0.00000000000E+00  0.55877022997E+03  0.55877022997E+03  0.00000000000E+00 0. -1.
         21   -1    0    0  502  503 -0.00000000000E+00 -0.00000000000E+00 -0.21097615872E+03  0.21097615872E+03  0.00000000000E+00 0.  1.
         -6    2    1    2    0  503 -0.15739617843E+03 -0.77802600009E+02 -0.94168181537E+02  0.26381906798E+03  0.17293366550E+03 0.  0.
        -24    2    3    3    0    0 -0.68519094494E+02 -0.70239718730E+02 -0.11405856775E+03  0.17230922870E+03  0.83979932237E+02 0.  0.
          6    2    1    2  501    0  0.15739617843E+03  0.77802600009E+02  0.44196225279E+03  0.50592732072E+03  0.17264130273E+03 0.  0.
         24    2    5    5    0    0  0.16617275533E+03  0.86976564022E+02  0.44618780515E+03  0.49174510613E+03  0.86898703301E+02 0.  0.
          5    1    5    5  501    0 -0.87765768981E+01 -0.91739640131E+01 -0.42255523652E+01  0.14182214586E+02  0.47000000000E+01 0. -1.
        -11    1    6    6    0    0  0.40688585001E+01 -0.12429134758E+02  0.12027432044E+02  0.17767895820E+02  0.00000000000E+00 0.  1.
         12    1    6    6    0    0  0.16210389683E+03  0.99405698780E+02  0.43416037311E+03  0.47397721031E+03  0.00000000000E+00 0. -1.
         -5    1    3    3    0  503 -0.88877083933E+02 -0.75628812784E+01  0.19890386218E+02  0.91509839283E+02  0.47000000000E+01 0.  1.
         13    1    4    4    0    0  0.40878486862E+01  0.15161785783E+02 -0.66219213413E+01  0.17042303168E+02  0.00000000000E+00 0. -1.
        -14    1    4    4    0    0 -0.72606943180E+02 -0.85401504513E+02 -0.10743664641E+03  0.15526692553E+03  0.00000000000E+00 0.  1.
</event>
<event>
12    1  0.1681255E-001  0.2589030E+03  0.7818608E-02  0.1107869E+00
         21   -1    0    0  503  502  0.00000000000E+00  0.00000000000E+00  0.10310651401E+03  0.10310651401E+03  0.00000000000E+00 0.  1.
         21   -1    0    0  501  503 -0.00000000000E+00 -0.00000000000E+00 -0.65162418293E+03  0.65162418293E+03  0.00000000000E+00 0. -1.
          6    2    1    2  501    0 -0.11277864022E+03  0.15688226480E+03 -0.25024718494E+03  0.35976733256E+03  0.17169104027E+03 0.  0.
         24    2    3    3    0    0 -0.36016909378E+02  0.40343743151E+02 -0.34300336399E+02  0.10261227866E+03  0.80174380462E+02 0.  0.
         -6    2    1    2    0  502  0.11277864022E+03 -0.15688226480E+03 -0.29827048398E+03  0.39496336438E+03  0.17233604060E+03 0.  0.
        -24    2    5    5    0    0  0.57982252952E+02  0.32521203056E+01 -0.12304101092E+03  0.15129735612E+03  0.66176141154E+02 0.  0.
          5    1    3    3  501    0 -0.76761730846E+02  0.11653852165E+03 -0.21594684854E+03  0.25715505390E+03  0.47000000000E+01 0. -1.
        -11    1    4    4    0    0  0.19558932688E+02  0.35975628257E+02 -0.13671460410E+02  0.43170667196E+02  0.00000000000E+00 0.  1.
         12    1    4    4    0    0 -0.55575842066E+02  0.43681148941E+01 -0.20628875989E+02  0.59441611466E+02  0.00000000000E+00 0. -1.
         -5    1    5    5    0  502  0.54796387273E+02 -0.16013438511E+03 -0.17522947306E+03  0.24366600826E+03  0.47000000000E+01 0.  1.
         13    1    6    6    0    0  0.54310353270E+01 -0.23252639625E+02 -0.62295510656E+02  0.66715156016E+02  0.00000000000E+00 0. -1.
        -14    1    6    6    0    0  0.52551217625E+02  0.26504759931E+02 -0.60745500262E+02  0.84582200107E+02  0.00000000000E+00 0.  1.
</event>
<event>
12    1  0.1681255E-001  0.1782211E+03  0.7818608E-02  0.1169847E+00
         21   -1    0    0  501  502  0.00000000000E+00  0.00000000000E+00  0.54931113434E+03  0.54931113434E+03  0.00000000000E+00 0. -1.
         21   -1    0    0  502  503 -0.00000000000E+00 -0.00000000000E+00 -0.27809049520E+03  0.27809049520E+03  0.00000000000E+00 0. -1.
         -6    2    1    2    0  503 -0.29689312163E+02  0.29048702077E+02 -0.23281867172E+03  0.29320182442E+03  0.17331328164E+03 0.  0.
        -24    2    3    3    0    0 -0.32804033391E+01 -0.32821416815E+02 -0.53152968566E+02  0.10129768959E+03  0.79674195322E+02 0.  0.
          6    2    1    2  501    0  0.29689312163E+02 -0.29048702077E+02  0.50403931086E+03  0.53419980512E+03  0.17201314644E+03 0.  0.
         24    2    5    5    0    0  0.57889034132E+02  0.23437727485E+02  0.41445861451E+03  0.42651117635E+03  0.78964378482E+02 0.  0.
          5    1    5    5  501    0 -0.28199721969E+02 -0.52486429563E+02  0.89580696353E+02  0.10768862877E+03  0.47000000000E+01 0. -1.
        -13    1    6    6    0    0 -0.10370965232E+02  0.23789522108E+02  0.57511613985E+02  0.63095832074E+02  0.00000000000E+00 0.  1.
         14    1    6    6    0    0  0.68259999364E+02 -0.35179462267E+00  0.35694700052E+03  0.36341534428E+03  0.00000000000E+00 0. -1.
         -5    1    3    3    0  503 -0.26408908824E+02  0.61870118892E+02 -0.17966570315E+03  0.19190413483E+03  0.47000000000E+01 0.  1.
         13    1    4    4    0    0  0.13496887867E+02  0.65318830978E+01 -0.56433684033E+02  0.58391713217E+02  0.00000000000E+00 0. -1.
        -14    1    4    4    0    0 -0.16777291206E+02 -0.39353299912E+02  0.32807154664E+01  0.42905976369E+02  0.00000000000E+00 0.  1.
</event>
<event>
12    1  0.1681255E-001  0.2128598E+03  0.7818608E-02  0.1139827E+00
         21   -1    0    0  501  502  0.00000000000E+00  0.00000000000E+00  0.30982547062E+03  0.30982547062E+03  0.00000000000E+00 0. -1.
         21   -1    0    0  502  503 -0.00000000000E+00 -0.00000000000E+00 -0.16719080846E+03  0.16719080846E+03  0.00000000000E+00 0. -1.
         -6    2    1    2    0  503  0.20212528574E+02  0.12246022250E+03 -0.16222972893E+02  0.21347711974E+03  0.17292843432E+03 0.  0.
        -24    2    3    3    0    0 -0.49890452464E+01  0.13588544932E+03  0.17529398843E+02  0.16901737799E+03  0.98842543109E+02 0.  0.
          6    2    1    2  501    0 -0.20212528574E+02 -0.12246022250E+03  0.15885763506E+03  0.26353915934E+03  0.16974123802E+03 0.  0.
         24    2    5    5    0    0 -0.58952035806E+02 -0.35567742089E+02  0.12278152604E+03  0.16168324045E+03  0.79534648442E+02 0.  0.
          5    1    5    5  501    0  0.38739507232E+02 -0.86892480406E+02  0.36076109024E+02  0.10185591890E+03  0.47000000000E+01 0. -1.
        -11    1    6    6    0    0  0.19578811874E+02 -0.16365338522E+01  0.22658796135E+02  0.29990484487E+02  0.00000000000E+00 0.  1.
         12    1    6    6    0    0 -0.78530847679E+02 -0.33931208237E+02  0.10012272990E+03  0.13169275596E+03  0.00000000000E+00 0. -1.
         -5    1    3    3    0  503  0.25201573820E+02 -0.13425226829E+02 -0.33752371736E+02  0.44459741747E+02  0.47000000000E+01 0.  1.
         11    1    4    4    0    0 -0.51346213751E+02  0.61872065897E+02  0.14008846019E+02  0.81613932461E+02  0.00000000000E+00 0. -1.
        -12    1    4    4    0    0  0.46357168505E+02  0.74013383427E+02  0.35205528243E+01  0.87403445529E+02  0.00000000000E+00 0.  1.
</event>
<event>
12    1  0.1681255E-001  0.2294155E+03  0.7818608E-02  0.1127575E+00
         21   -1    0    0  503  502  0.00000000000E+00  0.00000000000E+00  0.91786234142E+03  0.91786234142E+03  0.00000000000E+00 0. -1.
         21   -1    0    0  501  503 -0.00000000000E+00 -0.00000000000E+00 -0.94181603358E+02  0.94181603358E+02  0.00000000000E+00 0. -1.
          6    2    1    2  501    0  0.69923300233E+02  0.13459117347E+03  0.90628637787E+02  0.24393141343E+03  0.16818124919E+03 0.  0.
         24    2    3    3    0    0  0.12568322117E+02  0.10165279803E+03 -0.21988798323E+01  0.12985438630E+03  0.79787671359E+02 0.  0.
         -6    2    1    2    0  502 -0.69923300233E+02 -0.13459117347E+03  0.73305210028E+03  0.76811253135E+03  0.17212619558E+03 0.  0.
        -24    2    5    5    0    0 -0.97335909606E+02 -0.48144465106E+02  0.36776355319E+03  0.39170544165E+03  0.79943437175E+02 0.  0.
          5    1    3    3  501    0  0.57354978117E+02  0.32938375439E+02  0.92827517619E+02  0.11407702713E+03  0.47000000000E+01 0. -1.
        -11    1    4    4    0    0  0.27981180433E+02  0.65008822429E+02 -0.34402985209E+02  0.78693448541E+02  0.00000000000E+00 0.  1.
         12    1    4    4    0    0 -0.15412858316E+02  0.36643975602E+02  0.32204105377E+02  0.51160937760E+02  0.00000000000E+00 0. -1.
         -5    1    5    5    0  502  0.27412609372E+02 -0.86446708364E+02  0.36528854709E+03  0.37640708970E+03  0.47000000000E+01 0.  1.
         11    1    6    6    0    0 -0.10864194299E+03 -0.41063204471E+02  0.28311380678E+03  0.30601092485E+03  0.00000000000E+00 0. -1.
        -12    1    6    6    0    0  0.11306033384E+02 -0.70812606346E+01  0.84649746410E+02  0.85694516804E+02  0.00000000000E+00 0.  1.
</event>
<event>
12    1  0.1681255E-001  0.1845431E+03  0.7818608E-02  0.1163600E+00
         21   -1    0    0  503  502  0.00000000000E+00  0.00000000000E+00  0.22176776985E+04  0.22176776985E+04  0.00000000000E+00 0.  1.
         21   -1    0    0  501  503 -0.00000000000E+00 -0.00000000000E+00 -0.27871243924E+02  0.27871243924E+02  0.00000000000E+00 0.  1.
          6    2    1    2  501    0  0.63035402612E+02  0.71221189459E+01  0.34209658393E+03  0.38869813008E+03  0.17329736591E+03 0.  0.
         24    2    3    3    0    0  0.27365957262E+01  0.52620481456E+02  0.26040644385E+03  0.27733648457E+03  0.79546248522E+02 0.  0.
         -6    2    1    2    0  502 -0.63035402612E+02 -0.71221189459E+01  0.18477098707E+04  0.18568508124E+04  0.17273964994E+03 0.  0.
        -24    2    5    5    0    0 -0.20380905558E+02 -0.31008895634E+02  0.46466071515E+03  0.47292991838E+03  0.79851077511E+02 0.  0.
          5    1    3    3  501    0  0.60298806885E+02 -0.45498362510E+02  0.81690140085E+02  0.11136164551E+03  0.47000000000E+01 0. -1.
        -13    1    4    4    0    0 -0.50162562015E+01 -0.46147182739E+01 -0.31619993478E+01  0.75137667585E+01  0.00000000000E+00 0.  1.
         14    1    4    4    0    0  0.77528519277E+01  0.57235199730E+02  0.26356844320E+03  0.26982271782E+03  0.00000000000E+00 0. -1.
         -5    1    5    5    0  502 -0.42654497053E+02  0.23886776688E+02  0.13830491555E+04  0.13839208940E+04  0.47000000000E+01 0.  1.
         13    1    6    6    0    0  0.32263944017E+01 -0.51456259218E+02  0.36110892441E+03  0.36477090279E+03  0.00000000000E+00 0. -1.
        -14    1    6    6    0    0 -0.23607299960E+02  0.20447363584E+02  0.10355179073E+03  0.10815901559E+03  0.00000000000E+00 0.  1.
</event>
<event>
12    1  0.1681255E-001  0.1748727E+03  0.7818608E-02  0.1172866E+00
         21   -1    0    0  503  502  0.00000000000E+00  0.00000000000E+00  0.32797399812E+04  0.32797399812E+04  0.00000000000E+00 0. -1.
         21   -1    0    0  501  503 -0.00000000000E+00 -0.00000000000E+00 -0.27967072260E+02  0.27967072260E+02  0.00000000000E+00 0.  1.
          6    2    1    2  501    0  0.22647808106E+00 -0.34650080396E+02  0.27557213148E+03  0.32637472840E+03  0.17140532175E+03 0.  0.
         24    2    3    3    0    0  0.44360728170E+02 -0.59500290182E+02  0.11428254788E+03  0.15725410655E+03  0.78486906812E+02 0.  0.
         -6    2    1    2    0  502 -0.22647808106E+00  0.34650080396E+02  0.29762007775E+04  0.29813323251E+04  0.17137877738E+03 0.  0.
        -24    2    5    5    0    0 -0.29153271905E+02  0.67435683265E+02  0.14684588127E+04  0.14729492247E+04  0.88377877929E+02 0.  0.
          5    1    3    3  501    0 -0.44134250089E+02  0.24850209786E+02  0.16128958360E+03  0.16912062185E+03  0.47000000000E+01 0. -1.
        -13    1    4    4    0    0 -0.90816566310E+01 -0.11160419079E+02  0.72587048880E+02  0.73999399365E+02  0.00000000000E+00 0.  1.
         14    1    4    4    0    0  0.53442384801E+02 -0.48339871102E+02  0.41695499000E+02  0.83254707184E+02  0.00000000000E+00 0. -1.
         -5    1    5    5    0  502  0.28926793824E+02 -0.32785602869E+02  0.15077419648E+04  0.15083831004E+04  0.47000000000E+01 0.  1.
         11    1    6    6    0    0  0.31227581290E+02  0.16933267601E+02  0.53441797112E+03  0.53559729764E+03  0.00000000000E+00 0. -1.
        -12    1    6    6    0    0 -0.60380853195E+02  0.50502415663E+02  0.93404084159E+03  0.93735192707E+03  0.00000000000E+00 0.  1.
</event>
<event>
12    1  0.1681255E-001  0.1766939E+03  0.7818608E-02  0.1171127E+00
         21   -1    0    0  503  502  0.00000000000E+00  0.00000000000E+00  0.61229827006E+03  0.61229827006E+03  0.00000000000E+00 0. -1.
         21   -1    0    0  501  503 -0.00000000000E+00 -0.00000000000E+00 -0.14799791901E+03  0.14799791901E+03  0.00000000000E+00 0. -1.
          6    2    1    2  501    0 -0.31937999777E+02 -0.23352550850E+02 -0.75701763796E+02  0.19222769972E+03  0.17220729961E+03 0.  0.
         24    2    3    3    0    0 -0.59215571417E+02  0.18077310124E+02  0.22700493813E+00  0.10141048100E+03  0.80316630198E+02 0.  0.
         -6    2    1    2    0  502  0.31937999777E+02  0.23352550850E+02  0.54000211485E+03  0.56806848935E+03  0.17185501765E+03 0.  0.
        -24    2    5    5    0    0 -0.42395793962E+02 -0.13005953113E+02  0.22921505469E+03  0.24641939412E+03  0.78844266363E+02 0.  0.
          5    1    3    3  501    0  0.27277571641E+02 -0.41429860974E+02 -0.75928768734E+02  0.90817218722E+02  0.47000000000E+01 0. -1.
        -11    1    4    4    0    0 -0.46778706970E+02 -0.62132039953E+01  0.33873577017E+02  0.58088471744E+02  0.00000000000E+00 0.  1.
         12    1    4    4    0    0 -0.12436864448E+02  0.24290514119E+02 -0.33646572079E+02  0.43322009258E+02  0.00000000000E+00 0. -1.
         -5    1    5    5    0  502  0.74333793739E+02  0.36358503962E+02  0.31078706016E+03  0.32164909523E+03  0.47000000000E+01 0.  1.
         11    1    6    6    0    0  0.76775419831E+01  0.23660137448E+02  0.10036634183E+03  0.10340284970E+03  0.00000000000E+00 0. -1.
        -12    1    6    6    0    0 -0.50073335945E+02 -0.36666090561E+02  0.12884871287E+03  0.14301654442E+03  0.00000000000E+00 0.  1.
</event>
<event>
12    1  0.1681255E-001  0.2163912E+03  0.7818608E-02  0.1136745E+00
         21   -1    0    0  503  502  0.00000000000E+00  0.00000000000E+00  0.57520892012E+03  0.57520892012E+03  0.00000000000E+00 0.  1.
         21   -1    0    0  501  503 -0.00000000000E+00 -0.00000000000E+00 -0.94577286001E+02  0.94577286001E+02  0.00000000000E+00 0. -1.
          6    2    1    2  501    0 -0.79521750677E+02  0.10398202446E+03  0.11365454445E+03  0.24376115410E+03  0.17136561654E+03 0.  0.
         24    2    3    3    0    0 -0.88700015964E+02  0.17781204262E+02  0.89177495495E+02  0.15356116584E+03  0.86281758761E+02 0.  0.
         -6    2    1    2    0  502  0.79521750677E+02 -0.10398202446E+03  0.36697708966E+03  0.42602505202E+03  0.17230551462E+03 0.  0.
        -24    2    5    5    0    0  0.71985051086E+02 -0.42968684158E+01  0.13269432256E+03  0.17126155947E+03  0.80761549349E+02 0.  0.
          5    1    3    3  501    0  0.91782652868E+01  0.86200820196E+02  0.24477048959E+02  0.90199988259E+02  0.47000000000E+01 0. -1.
        -13    1    4    4    0    0 -0.68090985953E+02 -0.27134248245E+02  0.38567500287E+02  0.82825731957E+02  0.00000000000E+00 0.  1.
         14    1    4    4    0    0 -0.20609030011E+02  0.44915452507E+02  0.50609995207E+02  0.70735433885E+02  0.00000000000E+00 0. -1.
         -5    1    5    5    0  502  0.75366995917E+01 -0.99685156043E+02  0.23428276710E+03  0.25476349255E+03  0.47000000000E+01 0.  1.
         13    1    6    6    0    0  0.40330316068E+02 -0.42522646247E+02  0.73991301139E+02  0.94389737166E+02  0.00000000000E+00 0. -1.
        -14    1    6    6    0    0  0.31654735018E+02  0.38225777831E+02  0.58703021423E+02  0.76871822302E+02  0.00000000000E+00 0.  1.
</event>
<event>
12    1  0.1681255E-001  0.1923045E+03  0.7818608E-02  0.1157095E+00
         21   -1    0    0  503  502  0.00000000000E+00  0.00000000000E+00  0.12121891912E+03  0.12121891912E+03  0.00000000000E+00 0.  1.
         21   -1    0    0  501  503 -0.00000000000E+00 -0.00000000000E+00 -0.17239812621E+04  0.17239812621E+04  0.00000000000E+00 0.  1.
          6    2    1    2  501    0  0.81961414919E+02  0.21179675634E+01 -0.16409568234E+04  0.16521865271E+04  0.17395075435E+03 0.  0.
         24    2    3    3    0    0  0.25735205193E+02 -0.63243358103E+02 -0.78416847881E+03  0.79105828643E+03  0.78682820498E+02 0.  0.
         -6    2    1    2    0  502 -0.81961414919E+02 -0.21179675634E+01  0.38194480373E+02  0.19301365411E+03  0.17050892358E+03 0.  0.
        -24    2    5    5    0    0  0.46176777523E+01  0.12008553359E+02  0.62304771601E+02  0.10191538835E+03  0.79619931654E+02 0.  0.
          5    1    3    3  501    0  0.56226209727E+02  0.65361325666E+02 -0.85678834454E+03  0.86112824068E+03  0.47000000000E+01 0. -1.
        -13    1    4    4    0    0  0.53375878364E+02 -0.37781605829E+02 -0.55330697326E+03  0.55715800343E+03  0.00000000000E+00 0.  1.
         14    1    4    4    0    0 -0.27640673171E+02 -0.25461752274E+02 -0.23086150555E+03  0.23390028300E+03  0.00000000000E+00 0. -1.
         -5    1    5    5    0  502 -0.86579092671E+02 -0.14126520922E+02 -0.24110291227E+02  0.91098265759E+02  0.47000000000E+01 0.  1.
         11    1    6    6    0    0 -0.27012749408E+02 -0.12538038526E+01 -0.39311091623E+01  0.27326073152E+02  0.00000000000E+00 0. -1.
        -12    1    6    6    0    0  0.31630427160E+02  0.13262357212E+02  0.66235880763E+02  0.74589315197E+02  0.00000000000E+00 0.  1.
</event>
<event>
12    1  0.1681255E-001  0.1910969E+03  0.7818608E-02  0.1159257E+00
         21   -1    0    0  503  502  0.00000000000E+00  0.00000000000E+00  0.15260086223E+03  0.15260086223E+03  0.00000000000E+00 0. -1.
         21   -1    0    0  501  503 -0.00000000000E+00 -0.00000000000E+00 -0.24793315713E+03  0.24793315713E+03  0.00000000000E+00 0.  1.
          6    2    1    2  501    0  0.84342687341E+02  0.38254823759E+01 -0.10294612591E+03  0.21706206192E+03  0.17143427505E+03 0.  0.
         24    2    3    3    0    0  0.61016758031E+02 -0.19342431329E+02 -0.13657597676E+03  0.16979782521E+03  0.77981597872E+02 0.  0.
         -6    2    1    2    0  502 -0.84342687341E+02 -0.38254823759E+01  0.76138310032E+01  0.18347195744E+03  0.16271344604E+03 0.  0.
        -24    2    5    5    0    0 -0.61787528485E+02 -0.52316080202E+02 -0.30450926169E+02  0.11766094767E+03  0.79763204410E+02 0.  0.
          5    1    3    3  501    0  0.23325929310E+02  0.23167913704E+02  0.33629850853E+02  0.47264236712E+02  0.47000000000E+01 0. -1.
        -11    1    4    4    0    0  0.50413306044E+02  0.55735592791E+01 -0.28081651679E+02  0.57975384003E+02  0.00000000000E+00 0.  1.
         12    1    4    4    0    0  0.10603451988E+02 -0.24915990608E+02 -0.10849432508E+03  0.11182244120E+03  0.00000000000E+00 0. -1.
         -5    1    5    5    0  502 -0.22555158857E+02  0.48490597826E+02  0.38064757172E+02  0.65811009771E+02  0.47000000000E+01 0.  1.
         11    1    6    6    0    0  0.60589264438E+01  0.14610524079E+02  0.40154217252E+01  0.16318750416E+02  0.00000000000E+00 0. -1.
        -12    1    6    6    0    0 -0.67846454928E+02 -0.66926604280E+02 -0.34466347894E+02  0.10134219725E+03  0.00000000000E+00 0.  1.
</event>
<event>
12    1  0.1681255E-001  0.1788749E+03  0.7818608E-02  0.1170415E+00
         21   -1    0    0  501  502  0.00000000000E+00  0.00000000000E+00  0.17865209826E+02  0.17865209826E+02  0.00000000000E+00 0.  1.
         21   -1    0    0  502  503 -0.00000000000E+00 -0.00000000000E+00 -0.17385052651E+04  0.17385052651E+04  0.00000000000E+00 0.  1.
         -6    2    1    2    0  503 -0.48375627992E+02  0.50051043537E+01 -0.78519919422E+03  0.80398093359E+03  0.16577790720E+03 0.  0.
        -24    2    3    3    0    0 -0.66043174354E+02  0.45688630876E+01 -0.77751898119E+03  0.78414641385E+03  0.77248021734E+02 0.  0.
          6    2    1    2  501    0  0.48375627992E+02 -0.50051043537E+01 -0.93544086105E+03  0.95238954134E+03  0.17213651986E+03 0.  0.
         24    2    5    5    0    0 -0.12054544908E+01  0.57944350242E+02 -0.52791670669E+03  0.53703554297E+03  0.79700215563E+02 0.  0.
          5    1    5    5  501    0  0.49581082483E+02 -0.62949454595E+02 -0.40752415436E+03  0.41535399837E+03  0.47000000000E+01 0. -1.
        -13    1    6    6    0    0 -0.48012711446E+01 -0.11542392660E+02 -0.25774308270E+03  0.25804607285E+03  0.00000000000E+00 0.  1.
         14    1    6    6    0    0  0.35958166538E+01  0.69486742902E+02 -0.27017362400E+03  0.27898947012E+03  0.00000000000E+00 0. -1.
         -5    1    3    3    0  503  0.17667546362E+02  0.43624126612E+00 -0.76802130321E+01  0.19834519735E+02  0.47000000000E+01 0.  1.
         11    1    4    4    0    0  0.81932416155E+01 -0.17021929370E+02 -0.28203994250E+03  0.28267190249E+03  0.00000000000E+00 0. -1.
        -12    1    4    4    0    0 -0.74236415970E+02  0.21590792457E+02 -0.49547903869E+03  0.50147451137E+03  0.00000000000E+00 0.  1.
</event>
<event>
12    1  0.1681255E-001  0.1775320E+03  0.7818608E-02  0.1170642E+00
         21   -1    0    0  501  502  0.00000000000E+00  0.00000000000E+00  0.69085773888E+02  0.69085773888E+02  0.00000000000E+00 0. -1.
         21   -1    0    0  502  503 -0.00000000000E+00 -0.00000000000E+00 -0.55632075086E+03  0.55632075086E+03  0.00000000000E+00 0. -1.
         -6    2    1    2    0  503 -0.23206251774E+02  0.35106580173E+02 -0.38014796077E+03  0.41955937052E+03  0.17247200128E+03 0.  0.
        -24    2    3    3    0    0 -0.30825682942E+02  0.40099549906E+02 -0.94907442376E+02  0.13413472406E+03  0.80165484767E+02 0.  0.
          6    2    1    2  501    0  0.23206251774E+02 -0.35106580173E+02 -0.10708701620E+03  0.20584715422E+03  0.17068807741E+03 0.  0.
         24    2    5    5    0    0  0.77467140153E+02 -0.49747253027E+01 -0.58766082955E+02  0.12704883397E+03  0.81621369817E+02 0.  0.
          5    1    5    5  501    0 -0.54260888378E+02 -0.30131854871E+02 -0.48320933248E+02  0.78798320258E+02  0.47000000000E+01 0. -1.
        -11    1    6    6    0    0  0.22879996606E+02  0.28230200281E+02  0.51183051915E+01  0.36696532543E+02  0.00000000000E+00 0.  1.
         12    1    6    6    0    0  0.54587143546E+02 -0.33204925584E+02 -0.63884388146E+02  0.90352301423E+02  0.00000000000E+00 0. -1.
         -5    1    3    3    0  503  0.76194311679E+01 -0.49929697324E+01 -0.28524051839E+03  0.28542464647E+03  0.47000000000E+01 0.  1.
         11    1    4    4    0    0  0.14738130855E+02  0.70929215683E+01  0.69499106619E+01  0.17771417942E+02  0.00000000000E+00 0. -1.
        -12    1    4    4    0    0 -0.45563813797E+02  0.33006628337E+02 -0.10185735304E+03  0.11636330611E+03  0.00000000000E+00 0.  1.
</event>
<event>
12    1  0.1681255E-001  0.1946156E+03  0.7818608E-02  0.1154789E+00
         21   -1    0    0  501  502  0.00000000000E+00  0.00000000000E+00  0.17810885649E+03  0.17810885649E+03  0.00000000000E+00 0. -1.
         21   -1    0    0  502  503 -0.00000000000E+00 -0.00000000000E+00 -0.21088713222E+03  0.21088713222E+03  0.00000000000E+00 0. -1.
         -6    2    1    2    0  503  0.48900507437E+02 -0.68547592260E+02 -0.24207006878E+02  0.19419169458E+03  0.17330436529E+03 0.  0.
        -24    2    3    3    0    0 -0.19000588411E+02  0.82885976120E+01 -0.39078611809E+02  0.90472778635E+02  0.78920609239E+02 0.  0.
          6    2    1    2  501    0 -0.48900507437E+02  0.68547592260E+02 -0.85712688581E+01  0.19480429413E+03  0.17545715811E+03 0.  0.
         24    2    5    5    0    0 -0.35337523540E+02  0.62379847220E+02 -0.74400390125E+02  0.12714663516E+03  0.74100356762E+02 0.  0.
          5    1    5    5  501    0 -0.13562983896E+02  0.61677450397E+01  0.65829121267E+02  0.67657658974E+02  0.47000000000E+01 0. -1.
        -13    1    6    6    0    0  0.20702375040E+02  0.16678992451E+02 -0.52623219487E+01  0.27101091376E+02  0.00000000000E+00 0.  1.
         14    1    6    6    0    0 -0.56039898581E+02  0.45700854769E+02 -0.69138068177E+02  0.10004554378E+03  0.00000000000E+00 0. -1.
         -5    1    3    3    0  503  0.67901095848E+02 -0.76836189872E+02  0.14871604931E+02  0.10371891594E+03  0.47000000000E+01 0.  1.
         13    1    4    4    0    0  0.16260306011E+02 -0.12595949965E+02  0.12902048479E+02  0.24279999218E+02  0.00000000000E+00 0. -1.
        -14    1    4    4    0    0 -0.35260894421E+02  0.20884547577E+02 -0.51980660289E+02  0.66192779417E+02  0.00000000000E+00 0.  1.
</event>
<event>
12    1  0.1681255E-001  0.2353716E+03  0.7818608E-02  0.1124138E+00
         21   -1    0    0  503  502  0.00000000000E+00  0.00000000000E+00  0.79771831440E+02  0.79771831440E+02  0.00000000000E+00 0. -1.
         21   -1    0    0  501  503 -0.00000000000E+00 -0.00000000000E+00 -0.12553350851E+04  0.12553350851E+04  0.00000000000E+00 0. -1.
          6    2    1    2  501    0 -0.10204431028E+03 -0.11138588383E+03 -0.10372949833E+04  0.10621272448E+04  0.17121198950E+03 0.  0.
         24    2    3    3    0    0 -0.10279265850E+01 -0.26790419097E+02 -0.24009112193E+03  0.25409457897E+03  0.78749762194E+02 0.  0.
         -6    2    1    2    0  502  0.10204431028E+03  0.11138588383E+03 -0.13826827040E+03  0.27297967180E+03  0.18049911423E+03 0.  0.
        -24    2    5    5    0    0 -0.16874402190E+02  0.54993674324E+02 -0.36379172311E+02  0.10647075379E+03  0.81875072940E+02 0.  0.
          5    1    3    3  501    0 -0.10101638369E+03 -0.84595464738E+02 -0.79720386137E+03  0.80803266580E+03  0.47000000000E+01 0. -1.
        -11    1    4    4    0    0  0.50182205470E+01 -0.46683313738E+02 -0.22078381640E+03  0.22572108431E+03  0.00000000000E+00 0.  1.
         12    1    4    4    0    0 -0.60461471321E+01  0.19892894642E+02 -0.19307305525E+02  0.28373494656E+02  0.00000000000E+00 0. -1.
         -5    1    5    5    0  502  0.11891871247E+03  0.56392209510E+02 -0.10188909809E+03  0.16650891802E+03  0.47000000000E+01 0.  1.
         11    1    6    6    0    0  0.28574686023E+02  0.44604944881E+02 -0.14201999623E+02  0.54843509939E+02  0.00000000000E+00 0. -1.
        -12    1    6    6    0    0 -0.45449088213E+02  0.10388729443E+02 -0.22177172689E+02  0.51627243847E+02  0.00000000000E+00 0.  1.
</event>
<event>
12    1  0.1681255E-001  0.1727690E+03  0.7818608E-02  0.1175022E+00
         21   -1    0    0  501  502  0.00000000000E+00  0.00000000000E+00  0.33168405249E+03  0.33168405249E+03  0.00000000000E+00 0.  1.
         21   -1    0    0  502  503 -0.00000000000E+00 -0.00000000000E+00 -0.14728897554E+03  0.14728897554E+03  0.00000000000E+00 0.  1.
         -6    2    1    2    0  503  0.15007222385E+00  0.10263382639E+02 -0.57273075406E+02  0.18189961230E+03  0.17234240408E+03 0.  0.
        -24    2    3    3    0    0  0.40755153048E+02  0.37926745508E+02 -0.78743786243E+02  0.12807475134E+03  0.84280113510E+02 0.  0.
          6    2    1    2  501    0 -0.15007222385E+00 -0.10263382639E+02  0.24166815235E+03  0.29707341573E+03  0.17246379019E+03 0.  0.
         24    2    5    5    0    0  0.15147194975E+02 -0.66720025257E+02  0.19718916661E+03  0.22344034536E+03  0.79756010553E+02 0.  0.
          5    1    5    5  501    0 -0.15297267199E+02  0.56456642618E+02  0.44478985744E+02  0.73633070371E+02  0.47000000000E+01 0. -1.
        -11    1    6    6    0    0 -0.60111651285E+01 -0.67929880700E+01  0.13230999656E+03  0.13262056395E+03  0.00000000000E+00 0.  1.
         12    1    6    6    0    0  0.21158360104E+02 -0.59927037186E+02  0.64879170049E+02  0.90819781405E+02  0.00000000000E+00 0. -1.
         -5    1    3    3    0  503 -0.40605080824E+02 -0.27663362869E+02  0.21470710837E+02  0.53824860964E+02  0.47000000000E+01 0.  1.
         13    1    4    4    0    0 -0.15111713529E+02  0.30493105554E+02 -0.37124884732E+01  0.34234134176E+02  0.00000000000E+00 0. -1.
        -14    1    4    4    0    0  0.55866866577E+02  0.74336399540E+01 -0.75031297770E+02  0.93840617161E+02  0.00000000000E+00 0.  1.
</event>
<event>
12    1  0.1681255E-001  0.2033351E+03  0.7818608E-02  0.1147010E+00
         21   -1    0    0  501  502  0.00000000000E+00  0.00000000000E+00  0.23149828005E+03  0.23149828005E+03  0.00000000000E+00 0. -1.
         21   -1    0    0  502  503 -0.00000000000E+00 -0.00000000000E+00 -0.20280004441E+03  0.20280004441E+03  0.00000000000E+00 0. -1.
         -6    2    1    2    0  503 -0.10590790554E+03  0.22342362830E+02 -0.61030305962E+02  0.21204538489E+03  0.17182223772E+03 0.  0.
        -24    2    3    3    0    0 -0.58300228711E+01  0.48068891216E+02 -0.54976549902E+02  0.10842987049E+03  0.79937527518E+02 0.  0.
          6    2    1    2  501    0  0.10590790554E+03 -0.22342362830E+02  0.89728541602E+02  0.22225293958E+03  0.17213219438E+03 0.  0.
         24    2    5    5    0    0  0.55269867420E+02 -0.77621813412E+02  0.36167916130E+02  0.12999862173E+03  0.80694605347E+02 0.  0.
          5    1    5    5  501    0  0.50638038118E+02  0.55279450583E+02  0.53560625472E+02  0.92254317851E+02  0.47000000000E+01 0. -1.
        -13    1    6    6    0    0  0.64754017005E+02 -0.56553562013E+02 -0.12961839276E+01  0.85982952889E+02  0.00000000000E+00 0.  1.
         14    1    6    6    0    0 -0.94841495845E+01 -0.21068251399E+02  0.37464100057E+02  0.44015668840E+02  0.00000000000E+00 0. -1.
         -5    1    3    3    0  503 -0.10007788267E+03 -0.25726528387E+02 -0.60537560601E+01  0.10361551440E+03  0.47000000000E+01 0.  1.
         11    1    4    4    0    0  0.32427113792E+01 -0.21777209091E+02 -0.20197655019E+02  0.29878207463E+02  0.00000000000E+00 0. -1.
        -12    1    4    4    0    0 -0.90727342503E+01  0.69846100308E+02 -0.34778894882E+02  0.78551663027E+02  0.00000000000E+00 0.  1.
</event>
<event>
12    1  0.1681255E-001  0.1756623E+03  0.7818608E-02  0.1172376E+00
         21   -1    0    0  501  502  0.00000000000E+00  0.00000000000E+00  0.32956121123E+03  0.32956121123E+03  0.00000000000E+00 0.  1.
         21   -1    0    0  502  503 -0.00000000000E+00 -0.00000000000E+00 -0.14672360564E+03  0.14672360564E+03  0.00000000000E+00 0.  1.
         -6    2    1    2    0  503  0.25641653483E+02  0.26034369593E+02 -0.52913263670E+02  0.18228528408E+03  0.17056619983E+03 0.  0.
        -24    2    3    3    0    0 -0.38513713902E+02  0.33853047672E+02  0.48164907767E+01  0.95499009586E+02  0.80420937904E+02 0.  0.
          6    2    1    2  501    0 -0.25641653483E+02 -0.26034369593E+02  0.23575086925E+03  0.29399953279E+03  0.17181958600E+03 0.  0.
         24    2    5    5    0    0 -0.37451058828E+02 -0.44233720320E+02  0.24905097359E+03  0.26812171997E+03  0.80645306442E+02 0.  0.
          5    1    5    5  501    0  0.11809405345E+02  0.18199350727E+02 -0.13300104334E+02  0.25877812828E+02  0.47000000000E+01 0. -1.
        -11    1    6    6    0    0 -0.40042170754E+02 -0.65508871795E+02  0.20968896545E+03  0.22330304511E+03  0.00000000000E+00 0.  1.
         12    1    6    6    0    0  0.25911119268E+01  0.21275151476E+02  0.39362008137E+02  0.44818674856E+02  0.00000000000E+00 0. -1.
         -5    1    3    3    0  503  0.64155367384E+02 -0.78186780792E+01 -0.57729754447E+02  0.86786274489E+02  0.47000000000E+01 0.  1.
         13    1    4    4    0    0 -0.24863720988E+02 -0.23933220746E+02  0.99066583809E+01  0.35904673191E+02  0.00000000000E+00 0. -1.
        -14    1    4    4    0    0 -0.13649992913E+02  0.57786268418E+02 -0.50901676042E+01  0.59594336396E+02  0.00000000000E+00 0.  1.
</event>
<event>
12    1  0.1681255E-001  0.2028333E+03  0.7818608E-02  0.1148842E+00
         21   -1    0    0  503  502  0.00000000000E+00  0.00000000000E+00  0.14233971440E+03  0.14233971440E+03  0.00000000000E+00 0.  1.
         21   -1    0    0  501  503 -0.00000000000E+00 -0.00000000000E+00 -0.28002640103E+03  0.28002640103E+03  0.00000000000E+00 0.  1.
          6    2    1    2  501    0 -0.87165754104E+02  0.37152970259E+02 -0.56051589688E+02  0.20372115384E+03  0.17141270644E+03 0.  0.
         24    2    3    3    0    0 -0.79405700419E+01  0.73841504946E+02 -0.15932611764E+02  0.10752187756E+03  0.76101810304E+02 0.  0.
         -6    2    1    2    0  502  0.87165754104E+02 -0.37152970259E+02 -0.81635096948E+02  0.21864496159E+03  0.17934078813E+03 0.  0.
        -24    2    5    5    0    0  0.12277428356E+03 -0.57346901735E+02 -0.82582125389E+02  0.17742907750E+03  0.79366732757E+02 0.  0.
          5    1    3    3  501    0 -0.79225184062E+02 -0.36688534686E+02 -0.40118977924E+02  0.96199276279E+02  0.47000000000E+01 0. -1.
        -13    1    4    4    0    0  0.13455383943E+02  0.13165624019E+01 -0.27864453350E+02  0.30971090619E+02  0.00000000000E+00 0.  1.
         14    1    4    4    0    0 -0.21395953985E+02  0.72524942544E+02  0.11931841586E+02  0.76550786943E+02  0.00000000000E+00 0. -1.
         -5    1    5    5    0  502 -0.35608529452E+02  0.20193931475E+02  0.94702844075E+00  0.41215884086E+02  0.47000000000E+01 0.  1.
         13    1    6    6    0    0  0.88913457965E+02 -0.56770220088E+02 -0.21608500854E+02  0.10768188429E+03  0.00000000000E+00 0. -1.
        -14    1    6    6    0    0  0.33860825591E+02 -0.57668164661E+00 -0.60973624535E+02  0.69747193208E+02  0.00000000000E+00 0.  1.
</event>
<event>
12    1  0.1681255E-001  0.3248364E+03  0.7818608E-02  0.1074059E+00
         21   -1    0    0  501  502  0.00000000000E+00  0.00000000000E+00  0.81338563696E+02  0.81338563696E+02  0.00000000000E+00 0.  1.
         21   -1    0    0  502  503 -0.00000000000E+00 -0.00000000000E+00 -0.13718422840E+04  0.13718422840E+04  0.00000000000E+00 0.  1.
         -6    2    1    2    0  503  0.27016363817E+03  0.28606453263E+02 -0.83243414908E+03  0.89162368440E+03  0.16804600999E+03 0.  0.
        -24    2    3    3    0    0  0.75294699965E+02 -0.31002491205E+02 -0.23110057630E+03  0.25668173029E+03  0.76469523306E+02 0.  0.
          6    2    1    2  501    0 -0.27016363817E+03 -0.28606453263E+02 -0.45806957121E+03  0.56155716328E+03  0.17807862030E+03 0.  0.
         24    2    5    5    0    0 -0.20437929685E+03 -0.54131708177E+02 -0.42958752970E+03  0.48531783688E+03  0.79289459035E+02 0.  0.
          5    1    5    5  501    0 -0.65784341316E+02  0.25525254913E+02 -0.28482041511E+02  0.76239326396E+02  0.47000000000E+01 0. -1.
        -11    1    6    6    0    0 -0.10369334066E+03 -0.17015729286E+02 -0.29519101191E+03  0.31333620515E+03  0.00000000000E+00 0.  1.
         12    1    6    6    0    0 -0.10068595619E+03 -0.37115978890E+02 -0.13439651778E+03  0.17198163174E+03  0.00000000000E+00 0. -1.
         -5    1    3    3    0  503  0.19486893820E+03  0.59608944468E+02 -0.60133357279E+03  0.63494195412E+03  0.47000000000E+01 0.  1.
         13    1    4    4    0    0  0.51934173004E+02 -0.10617962873E+02 -0.49742492995E+02  0.72692606712E+02  0.00000000000E+00 0. -1.
        -14    1    4    4    0    0  0.23360526961E+02 -0.20384528332E+02 -0.18135808330E+03  0.18398912357E+03  0.00000000000E+00 0.  1.
</event>
<event>
12    1  0.1681255E-001  0.1780302E+03  0.7818608E-02  0.1171306E+00
         21   -1    0    0  503  502  0.00000000000E+00  0.00000000000E+00  0.18720850598E+03  0.18720850598E+03  0.00000000000E+00 0.  1.
         21   -1    0    0  501  503 -0.00000000000E+00 -0.00000000000E+00 -0.22987822301E+03  0.22987822301E+03  0.00000000000E+00 0.  1.
          6    2    1    2  501    0  0.10220437281E+02 -0.50179444302E+02 -0.13379394901E+03  0.22270066173E+03  0.17050609952E+03 0.  0.
         24    2    3    3    0    0  0.50257087273E+02 -0.53365560201E+02 -0.14513225233E+03  0.18070385471E+03  0.78847032942E+02 0.  0.
         -6    2    1    2    0  502 -0.10220437281E+02  0.50179444302E+02  0.91124231974E+02  0.19438606726E+03  0.16388985181E+03 0.  0.
        -24    2    5    5    0    0  0.55445626288E+02  0.25933288140E+02  0.65850210107E+02  0.11981546867E+03  0.79200653112E+02 0.  0.
          5    1    3    3  501    0 -0.40036649993E+02  0.31861158985E+01  0.11338303326E+02  0.41996807015E+02  0.47000000000E+01 0. -1.
        -13    1    4    4    0    0  0.79947241260E+01 -0.61742944690E+02 -0.10355469361E+03  0.12082914136E+03  0.00000000000E+00 0.  1.
         14    1    4    4    0    0  0.42262363147E+02  0.83773844894E+01 -0.41577558719E+02  0.59874713350E+02  0.00000000000E+00 0. -1.
         -5    1    5    5    0  502 -0.65666063569E+02  0.24246156162E+02  0.25274021867E+02  0.74570598594E+02  0.47000000000E+01 0.  1.
         11    1    6    6    0    0  0.43998758799E+02 -0.19494722271E+02  0.14400903323E+02  0.50232668542E+02  0.00000000000E+00 0. -1.
        -12    1    6    6    0    0  0.11446867489E+02  0.45428010411E+02  0.51449306784E+02  0.69582800128E+02  0.00000000000E+00 0.  1.
</event>
<event>
12    1  0.1681255E-001  0.1736043E+03  0.7818608E-02  0.1174552E+00
         21   -1    0    0  503  502  0.00000000000E+00  0.00000000000E+00  0.22650677062E+03  0.22650677062E+03  0.00000000000E+00 0. -1.
         21   -1    0    0  501  503 -0.00000000000E+00 -0.00000000000E+00 -0.13304590426E+03  0.13304590426E+03  0.00000000000E+00 0. -1.
          6    2    1    2  501    0 -0.18166581093E+01 -0.57944730177E+01  0.29719874613E+02  0.17612987732E+03  0.17349808810E+03 0.  0.
         24    2    3    3    0    0  0.20380281560E+02  0.36994896975E+02 -0.44173584894E+02  0.87778489825E+02  0.63006185370E+02 0.  0.
         -6    2    1    2    0  502  0.18166581093E+01  0.57944730177E+01  0.63740991752E+02  0.18342279755E+03  0.17188406694E+03 0.  0.
        -24    2    5    5    0    0  0.38950011675E+02 -0.33202444722E+02  0.83047898107E+02  0.12602513059E+03  0.79786430016E+02 0.  0.
          5    1    3    3  501    0 -0.22196939669E+02 -0.42789369993E+02  0.73893459507E+02  0.88351387499E+02  0.47000000000E+01 0. -1.
        -13    1    4    4    0    0  0.17222805004E+02 -0.13269274126E+02 -0.26784079107E+02  0.34497616463E+02  0.00000000000E+00 0.  1.
         14    1    4    4    0    0  0.31574765557E+01  0.50264171101E+02 -0.17389505788E+02  0.53280873362E+02  0.00000000000E+00 0. -1.
         -5    1    5    5    0  502 -0.37133353565E+02  0.38996917740E+02 -0.19306906355E+02  0.57397666967E+02  0.47000000000E+01 0.  1.
         13    1    6    6    0    0  0.24922504455E+02 -0.11331718389E+02 -0.10206780350E+02  0.29218443406E+02  0.00000000000E+00 0. -1.
        -14    1    6    6    0    0  0.14027507220E+02 -0.21870726333E+02  0.93254678456E+02  0.96806687182E+02  0.00000000000E+00 0.  1.
</event>
<event>
12    1  0.1681255E-001  0.2395087E+03  0.7818608E-02  0.1120318E+00
         21   -1    0    0  501  502  0.00000000000E+00  0.00000000000E+00  0.10940517909E+03  0.10940517909E+03  0.00000000000E+00 0. -1.
         21   -1    0    0  502  503 -0.00000000000E+00 -0.00000000000E+00 -0.91735160813E+03  0.91735160813E+03  0.00000000000E+00 0. -1.
         -6    2    1    2    0  503 -0.63752180411E+02 -0.15165116204E+03 -0.74167127768E+03  0.77938481405E+03  0.17407466440E+03 0.  0.
        -24    2    3    3    0    0  0.16251376893E+02 -0.92836712873E+02 -0.54256016556E+03  0.55683811427E+03  0.82549317072E+02 0.  0.
          6    2    1    2  501    0  0.63752180411E+02  0.15165116204E+03 -0.66275151363E+02  0.24737197316E+03  0.17244733099E+03 0.  0.
         24    2    5    5    0    0 -0.91750875636E+01  0.22537497641E+02 -0.56430625745E+02  0.98685291069E+02  0.77215608005E+02 0.  0.
          5    1    5    5  501    0  0.72927267975E+02  0.12911366439E+03 -0.98445256181E+01  0.14868668209E+03  0.47000000000E+01 0. -1.
        -11    1    6    6    0    0 -0.19106101432E+02 -0.14169286313E+02 -0.55794574573E+02  0.60653494033E+02  0.00000000000E+00 0.  1.
         12    1    6    6    0    0  0.99310138688E+01  0.36706783954E+02 -0.63605117217E+00  0.38031797036E+02  0.00000000000E+00 0. -1.
         -5    1    3    3    0  503 -0.80003557304E+02 -0.58814449163E+02 -0.19911111212E+03  0.22254669978E+03  0.47000000000E+01 0.  1.
         13    1    4    4    0    0 -0.28675819689E+02 -0.60753655339E+02 -0.23731913124E+03  0.24664484451E+03  0.00000000000E+00 0. -1.
        -14    1    4    4    0    0  0.44927196582E+02 -0.32083057533E+02 -0.30524103432E+03  0.31019326977E+03  0.00000000000E+00 0.  1.
</event>
<event>
12    1  0.1681255E-001  0.1936986E+03  0.7818608E-02  0.1155287E+00
         21   -1    0    0  503  502  0.00000000000E+00  0.00000000000E+00  0.18539836072E+03  0.18539836072E+03  0.00000000000E+00 0. -1.
         21   -1    0    0  501  503 -0.00000000000E+00 -0.00000000000E+00 -0.20180163540E+03  0.20180163540E+03  0.00000000000E+00 0. -1.
          6    2    1    2  501    0 -0.40865707886E+02 -0.79164827781E+02 -0.81815760780E+01  0.19332699058E+03  0.17138060293E+03 0.  0.
         24    2    3    3    0    0 -0.39787533156E+02  0.13155567284E+02  0.15354108558E+02  0.97931832120E+02  0.87170971932E+02 0.  0.
         -6    2    1    2    0  502  0.40865707886E+02  0.79164827781E+02 -0.82216986019E+01  0.19387300555E+03  0.17199438919E+03 0.  0.
        -24    2    5    5    0    0  0.84017674549E+02  0.45077728042E+02 -0.39564284068E+02  0.13040277427E+03  0.79677975377E+02 0.  0.
          5    1    3    3  501    0 -0.10781747304E+01 -0.92320395064E+02 -0.23535684636E+02  0.95395158456E+02  0.47000000000E+01 0. -1.
        -13    1    4    4    0    0 -0.55315490860E+02 -0.20693507169E+02  0.49584342602E+01  0.59267283035E+02  0.00000000000E+00 0.  1.
         14    1    4    4    0    0  0.15527957704E+02  0.33849074453E+02  0.10395674298E+02  0.38664549084E+02  0.00000000000E+00 0. -1.
         -5    1    5    5    0  502 -0.43151966663E+02  0.34087099739E+02  0.31342585466E+02  0.63470231284E+02  0.47000000000E+01 0.  1.
         13    1    6    6    0    0  0.63975646321E+02 -0.33825717459E+01 -0.44084018147E+02  0.77767125251E+02  0.00000000000E+00 0. -1.
        -14    1    6    6    0    0  0.20042028228E+02  0.48460299788E+02  0.45197340786E+01  0.52635649014E+02  0.00000000000E+00 0.  1.
</event>
<event>
12    1  0.1681255E-001  0.1750961E+03  0.7818608E-02  0.1176217E+00
         21   -1    0    0  503  502  0.00000000000E+00  0.00000000000E+00  0.32822023876E+03  0.32822023876E+03  0.00000000000E+00 0. -1.
         21   -1    0    0  501  503 -0.00000000000E+00 -0.00000000000E+00 -0.30049106943E+03  0.30049106943E+03  0.00000000000E+00 0. -1.
          6    2    1    2  501    0  0.27738658412E+02 -0.46697733541E+02 -0.25134061989E+03  0.30631805320E+03  0.16645879676E+03 0.  0.
         24    2    3    3    0    0  0.64145735354E+02  0.95964749049E+01 -0.18495960429E+03  0.21185619641E+03  0.80412841277E+02 0.  0.
         -6    2    1    2    0  502 -0.27738658412E+02  0.46697733541E+02  0.27906978923E+03  0.32239325499E+03  0.15201102630E+03 0.  0.
        -24    2    5    5    0    0 -0.52440579279E+02  0.46959609817E+02  0.27745230624E+03  0.29719484780E+03  0.79936074540E+02 0.  0.
          5    1    3    3  501    0 -0.36407076942E+02 -0.56294208446E+02 -0.66381015598E+02  0.94461856788E+02  0.47000000000E+01 0. -1.
        -11    1    4    4    0    0 -0.64688455672E+01 -0.14977556952E+02 -0.87564437112E+02  0.89071341193E+02  0.00000000000E+00 0.  1.
         12    1    4    4    0    0  0.70614580921E+02  0.24574031857E+02 -0.97395167182E+02  0.12278485522E+03  0.00000000000E+00 0. -1.
         -5    1    5    5    0  502  0.24701920867E+02 -0.26187627596E+00  0.16174829848E+01  0.25198407190E+02  0.47000000000E+01 0.  1.
         13    1    6    6    0    0 -0.27773973184E+02 -0.17689233819E+02  0.13313475381E+03  0.13714651017E+03  0.00000000000E+00 0. -1.
        -14    1    6    6    0    0 -0.24666606094E+02  0.64648843636E+02  0.14431755244E+03  0.16004833764E+03  0.00000000000E+00 0.  1.
</event>
<event>
12    1  0.1681255E-001  0.2037991E+03  0.7818608E-02  0.1146774E+00
         21   -1    0    0  503  502  0.00000000000E+00  0.00000000000E+00  0.15247160080E+03  0.15247160080E+03  0.00000000000E+00 0.  1.
         21   -1    0    0  501  503 -0.00000000000E+00 -0.00000000000E+00 -0.27178067359E+03  0.27178067359E+03  0.00000000000E+00 0.  1.
          6    2    1    2  501    0 -0.26804890040E+02  0.10221196811E+03 -0.70367151637E+02  0.21560518950E+03  0.17426495102E+03 0.  0.
         24    2    3    3    0    0 -0.46911741208E+02  0.13575656815E+03 -0.59877658951E+02  0.17484190808E+03  0.79710736532E+02 0.  0.
         -6    2    1    2    0  502  0.26804890040E+02 -0.10221196811E+03 -0.48941921146E+02  0.20864708489E+03  0.17312569374E+03 0.  0.
        -24    2    5    5    0    0 -0.25534346984E+02 -0.51226089787E+01 -0.50902870943E+02  0.98231167949E+02  0.79875002897E+02 0.  0.
          5    1    3    3  501    0  0.20106851169E+02 -0.33544600039E+02 -0.10489492686E+02  0.40763281425E+02  0.47000000000E+01 0. -1.
        -11    1    4    4    0    0 -0.62405247650E+01  0.12072661615E+03 -0.42809695964E+02  0.12824402546E+03  0.00000000000E+00 0.  1.
         12    1    4    4    0    0 -0.40671216443E+02  0.15029952002E+02 -0.17067962987E+02  0.46597882620E+02  0.00000000000E+00 0. -1.
         -5    1    5    5    0  502  0.52339237024E+02 -0.97089359135E+02  0.19609497971E+01  0.11041591694E+03  0.47000000000E+01 0.  1.
         11    1    6    6    0    0  0.75119086818E+00  0.34635704112E+02 -0.31321505133E+02  0.46703671921E+02  0.00000000000E+00 0. -1.
        -12    1    6    6    0    0 -0.26285537852E+02 -0.39758313091E+02 -0.19581365810E+02  0.51527496029E+02  0.00000000000E+00 0.  1.
</event>
<event>
12    1  0.1681255E-001  0.1827435E+03  0.7818608E-02  0.1168180E+00
         21   -1    0    0  501  502  0.00000000000E+00  0.00000000000E+00  0.96488821906E+02  0.96488821906E+02  0.00000000000E+00 0.  1.
         21   -1    0    0  502  503 -0.00000000000E+00 -0.00000000000E+00 -0.43961787588E+03  0.43961787588E+03  0.00000000000E+00 0.  1.
         -6    2    1    2    0  503 -0.31564527711E+02  0.51703417650E+02 -0.30498626730E+03  0.34942497012E+03  0.15941023710E+03 0.  0.
        -24    2    3    3    0    0 -0.69771043265E+02 -0.94327841725E+00 -0.20929758096E+03  0.23362416213E+03  0.76849746137E+02 0.  0.
          6    2    1    2  501    0  0.31564527711E+02 -0.51703417650E+02 -0.38142786668E+02  0.18668172766E+03  0.17241123067E+03 0.  0.
         24    2    5    5    0    0 -0.21257372963E+02 -0.35107719276E+02  0.36220308979E+02  0.93851073300E+02  0.76234410334E+02 0.  0.
          5    1    5    5  501    0  0.52821900674E+02 -0.16595698375E+02 -0.74363095647E+02  0.92830654364E+02  0.47000000000E+01 0. -1.
        -13    1    6    6    0    0 -0.24525662030E+02 -0.11177886882E+01 -0.17533008425E+02  0.30168923315E+02  0.00000000000E+00 0.  1.
         14    1    6    6    0    0  0.32682890678E+01 -0.33989930587E+02  0.53753317404E+02  0.63682149985E+02  0.00000000000E+00 0. -1.
         -5    1    3    3    0  503  0.38206515554E+02  0.52646696068E+02 -0.95688686341E+02  0.11580080799E+03  0.47000000000E+01 0.  1.
         11    1    4    4    0    0 -0.40992558190E+02 -0.99784490297E+01 -0.29904879082E+02  0.51713258115E+02  0.00000000000E+00 0. -1.
        -12    1    4    4    0    0 -0.28778485075E+02  0.90351706125E+01 -0.17939270188E+03  0.18191090401E+03  0.00000000000E+00 0.  1.
</event>
<event>
12    1  0.1681255E-001  0.1865277E+03  0.7818608E-02  0.1161806E+00
         21   -1    0    0  503  502  0.00000000000E+00  0.00000000000E+00  0.12453310585E+04  0.12453310585E+04  0.00000000000E+00 0. -1.
         21   -1    0    0  501  503 -0.00000000000E+00 -0.00000000000E+00 -0.62708453301E+02  0.62708453301E+02  0.00000000000E+00 0. -1.
          6    2    1    2  501    0 -0.82648456075E+01 -0.68802675159E+02  0.10298448795E+03  0.21240679599E+03  0.17236219551E+03 0.  0.
         24    2    3    3    0    0 -0.17999644679E+01  0.29352930291E+02  0.61301162591E+02  0.10546799488E+03  0.80627731088E+02 0.  0.
         -6    2    1    2    0  502  0.82648456075E+01  0.68802675159E+02  0.10796381172E+04  0.10956327158E+04  0.17317756195E+03 0.  0.
        -24    2    5    5    0    0 -0.16721448710E+02  0.10931081370E+03  0.86906764051E+03  0.87969930046E+03  0.79773646085E+02 0.  0.
          5    1    3    3  501    0 -0.64648811396E+01 -0.98155605450E+02  0.41683325363E+02  0.10693880111E+03  0.47000000000E+01 0. -1.
        -11    1    4    4    0    0 -0.38913378047E+02  0.55878011893E+01  0.41467273412E+02  0.57140259690E+02  0.00000000000E+00 0.  1.
         12    1    4    4    0    0  0.37113413579E+02  0.23765129102E+02  0.19833889179E+02  0.48327735191E+02  0.00000000000E+00 0. -1.
         -5    1    5    5    0  502  0.24986294318E+02 -0.40508138543E+02  0.21057047669E+03  0.21593341530E+03  0.47000000000E+01 0.  1.
         13    1    6    6    0    0  0.32287914005E+02  0.47474801110E+02  0.37619634001E+03  0.38055229912E+03  0.00000000000E+00 0. -1.
        -14    1    6    6    0    0 -0.49009362715E+02  0.61836012591E+02  0.49287130051E+03  0.49914700135E+03  0.00000000000E+00 0.  1.
</event>
<event>
12    1  0.1681255E-001  0.2162224E+03  0.7818608E-02  0.1137179E+00
         21   -1    0    0  503  502  0.00000000000E+00  0.00000000000E+00  0.22844016855E+03  0.22844016855E+03  0.00000000000E+00 0. -1.
         21   -1    0    0  501  503 -0.00000000000E+00 -0.00000000000E+00 -0.21051539872E+03  0.21051539872E+03  0.00000000000E+00 0.  1.
          6    2    1    2  501    0 -0.59877478287E+02  0.11569579895E+03 -0.33940800849E+02  0.21887006448E+03  0.17257258433E+03 0.  0.
         24    2    3    3    0    0 -0.90438543766E+02  0.38316872709E+02  0.88814253837E+01  0.12518276540E+03  0.77100791851E+02 0.  0.
         -6    2    1    2    0  502  0.59877478287E+02 -0.11569579895E+03  0.51865570679E+02  0.22008550279E+03  0.16963714457E+03 0.  0.
        -24    2    5    5    0    0  0.69371816297E+02 -0.47424775863E+02  0.84919397195E+02  0.14349751095E+03  0.79490083452E+02 0.  0.
          5    1    3    3  501    0  0.30561065479E+02  0.77378926238E+02 -0.42822226233E+02  0.93687299078E+02  0.47000000000E+01 0. -1.
        -13    1    4    4    0    0  0.21076057353E+01  0.32019218885E+02  0.32281890180E+01  0.32250481923E+02  0.00000000000E+00 0.  1.
         14    1    4    4    0    0 -0.92546149501E+02  0.62976538246E+01  0.56532363657E+01  0.92932283479E+02  0.00000000000E+00 0. -1.
         -5    1    5    5    0  502 -0.94943380097E+01 -0.68271023085E+02 -0.33053826516E+02  0.76587991844E+02  0.47000000000E+01 0.  1.
         13    1    6    6    0    0  0.41421036943E+02 -0.51198979641E+00  0.78178154770E+02  0.88474789167E+02  0.00000000000E+00 0. -1.
        -14    1    6    6    0    0  0.27950779354E+02 -0.46912786066E+02  0.67412424247E+01  0.55022721783E+02  0.00000000000E+00 0.  1.
</event>
<event>
12    1  0.1681255E-001  0.2419618E+03  0.7818608E-02  0.1118601E+00
         21   -1    0    0  501  502  0.00000000000E+00  0.00000000000E+00  0.16422871424E+03  0.16422871424E+03  0.00000000000E+00 0. -1.
         21   -1    0    0  502  503 -0.00000000000E+00 -0.00000000000E+00 -0.42772647920E+03  0.42772647920E+03  0.00000000000E+00 0.  1.
         -6    2    1    2    0  503 -0.12262758563E+03  0.11842523751E+03 -0.25320575047E+03  0.34977458424E+03  0.17078362355E+03 0.  0.
        -24    2    3    3    0    0 -0.52448982393E+02  0.54448631861E+02 -0.68065999517E+02  0.14164755619E+03  0.98567239074E+02 0.  0.
          6    2    1    2  501    0  0.12262758563E+03 -0.11842523751E+03 -0.10292014487E+02  0.24218060920E+03  0.17170748462E+03 0.  0.
         24    2    5    5    0    0  0.47233774456E+02 -0.65953289884E+02 -0.69810828369E+02  0.13262646160E+03  0.78328543091E+02 0.  0.
          5    1    5    5  501    0  0.75393811171E+02 -0.52471947623E+02  0.59518813882E+02  0.10955414760E+03  0.47000000000E+01 0. -1.
        -11    1    6    6    0    0 -0.17162045135E+02 -0.14433610435E+02 -0.38222303475E+02  0.44314888992E+02  0.00000000000E+00 0.  1.
         12    1    6    6    0    0  0.64395819591E+02 -0.51519679449E+02 -0.31588524894E+02  0.88311572607E+02  0.00000000000E+00 0. -1.
         -5    1    3    3    0  503 -0.70178603235E+02  0.63976605646E+02 -0.18513975096E+03  0.20812702805E+03  0.47000000000E+01 0.  1.
         11    1    4    4    0    0 -0.41210301066E+02  0.71229052519E+02 -0.13406584412E+02  0.83376275656E+02  0.00000000000E+00 0. -1.
        -12    1    4    4    0    0 -0.11238681327E+02 -0.16780420658E+02 -0.54659415105E+02  0.58271280534E+02  0.00000000000E+00 0.  1.
</event>
<event>
12    1  0.1681255E-001  0.2099402E+03  0.7818608E-02  0.1141709E+00
         21   -1    0    0  503  502  0.00000000000E+00  0.00000000000E+00  0.15324574596E+03  0.15324574596E+03  0.00000000000E+00 0. -1.
         21   -1    0    0  501  503 -0.00000000000E+00 -0.00000000000E+00 -0.34729810685E+03  0.34729810685E+03  0.00000000000E+00 0. -1.
          6    2    1    2  501    0 -0.11931943773E+03 -0.89755061224E+01 -0.20126332782E+03  0.29047982873E+03  0.17191252381E+03 0.  0.
         24    2    3    3    0    0 -0.49334875963E+02  0.57730499521E+02 -0.69085781575E+02  0.12664905077E+03  0.74164656570E+02 0.  0.
         -6    2    1    2    0  502  0.11931943773E+03  0.89755061224E+01  0.72109669237E+01  0.21006402408E+03  0.17250277749E+03 0.  0.
        -24    2    5    5    0    0  0.13755913018E+03 -0.12607764402E+02 -0.31840686244E+02  0.16163215893E+03  0.77650856261E+02 0.  0.
          5    1    3    3  501    0 -0.69984561763E+02 -0.66706005644E+02 -0.13217754624E+03  0.16383077795E+03  0.47000000000E+01 0. -1.
        -11    1    4    4    0    0 -0.26405534124E+02 -0.88087188607E+01  0.27215675993E+00  0.27837381874E+02  0.00000000000E+00 0.  1.
         12    1    4    4    0    0 -0.22929341840E+02  0.66539218382E+02 -0.69357938335E+02  0.98811668897E+02  0.00000000000E+00 0. -1.
         -5    1    5    5    0  502 -0.18239692458E+02  0.21583270525E+02  0.39051653167E+02  0.48431865157E+02  0.47000000000E+01 0.  1.
         11    1    6    6    0    0  0.90080133979E+02  0.14572468084E+02  0.11316538916E+02  0.91950265996E+02  0.00000000000E+00 0. -1.
        -12    1    6    6    0    0  0.47478996206E+02 -0.27180232486E+02 -0.43157225160E+02  0.69681892929E+02  0.00000000000E+00 0.  1.
</event>
<event>
12    1  0.1681255E-001  0.1956506E+03  0.7818608E-02  0.1153785E+00
         21   -1    0    0  501  502  0.00000000000E+00  0.00000000000E+00  0.39215957929E+03  0.39215957929E+03  0.00000000000E+00 0.  1.
         21   -1    0    0  502  503 -0.00000000000E+00 -0.00000000000E+00 -0.28486002335E+03  0.28486002335E+03  0.00000000000E+00 0.  1.
         -6    2    1    2    0  503  0.14152418706E+02 -0.90065485780E+02 -0.22141080649E+03  0.29448898317E+03  0.17143200780E+03 0.  0.
        -24    2    3    3    0    0  0.57872634631E+02 -0.68917523208E+02 -0.21360468948E+03  0.24507522938E+03  0.79599232668E+02 0.  0.
          6    2    1    2  501    0 -0.14152418706E+02  0.90065485780E+02  0.32871036242E+03  0.38253061947E+03  0.17311005107E+03 0.  0.
         24    2    5    5    0    0 -0.38835588623E+02  0.12523177629E+03  0.24355040577E+03  0.28703069757E+03  0.76672162217E+02 0.  0.
          5    1    5    5  501    0  0.24683169917E+02 -0.35166290512E+02  0.85159956650E+02  0.95499921896E+02  0.47000000000E+01 0. -1.
        -11    1    6    6    0    0 -0.24642099526E+02  0.78551489810E+02  0.21564147897E+03  0.23082204633E+03  0.00000000000E+00 0.  1.
         12    1    6    6    0    0 -0.14193489097E+02  0.46680286482E+02  0.27908926802E+02  0.56208651238E+02  0.00000000000E+00 0. -1.
         -5    1    3    3    0  503 -0.43720215925E+02 -0.21147962572E+02 -0.78061170057E+01  0.49413753795E+02  0.47000000000E+01 0.  1.
         13    1    4    4    0    0  0.25614342375E+02 -0.61815625868E+02 -0.66608945421E+02  0.94414075999E+02  0.00000000000E+00 0. -1.
        -14    1    4    4    0    0  0.32258292256E+02 -0.71018973407E+01 -0.14699574406E+03  0.15066115338E+03  0.00000000000E+00 0.  1.
</event>
<event>
12    1  0.1681255E-001  0.1867544E+03  0.7818608E-02  0.1163452E+00
         21   -1    0    0  501  502  0.00000000000E+00  0.00000000000E+00  0.46184940211E+03  0.46184940211E+03  0.00000000000E+00 0.  1.
         21   -1    0    0  502  503 -0.00000000000E+00 -0.00000000000E+00 -0.95306495563E+02  0.95306495563E+02  0.00000000000E+00 0.  1.
         -6    2    1    2    0  503 -0.15795767392E+02 -0.61818508354E+02  0.49053050568E+02  0.19308914803E+03  0.17551690253E+03 0.  0.
        -24    2    3    3    0    0 -0.24953787564E+02  0.33912557620E+02  0.22900237027E+02  0.93317579024E+02  0.80068699383E+02 0.  0.
          6    2    1    2  501    0  0.15795767392E+02  0.61818508354E+02  0.31748985598E+03  0.36406674964E+03  0.16635430654E+03 0.  0.
         24    2    5    5    0    0  0.39022553531E+01  0.17004525404E+02  0.30288069016E+03  0.31522756023E+03  0.85599770888E+02 0.  0.
          5    1    5    5  501    0  0.11893512039E+02  0.44813982950E+02  0.14609165818E+02  0.48839189412E+02  0.47000000000E+01 0. -1.
        -11    1    6    6    0    0 -0.20484176006E+02  0.21197743299E+02  0.33135517236E+02  0.44349839798E+02  0.00000000000E+00 0.  1.
         12    1    6    6    0    0  0.24386431359E+02 -0.41932178953E+01  0.26974517293E+03  0.27087772043E+03  0.00000000000E+00 0. -1.
         -5    1    3    3    0  503  0.91580201728E+01 -0.95731065974E+02  0.26152813541E+02  0.99771569007E+02  0.47000000000E+01 0.  1.
         11    1    4    4    0    0  0.24445477084E+02 -0.13892260346E+01  0.21500274315E+02  0.32584859896E+02  0.00000000000E+00 0. -1.
        -12    1    4    4    0    0 -0.49399264649E+02  0.35301783655E+02  0.13999627119E+01  0.60732719128E+02  0.00000000000E+00 0.  1.
</event>
<event>
12    1  0.1681255E-001  0.2718577E+03  0.7818608E-02  0.1100519E+00
         21   -1    0    0  501  502  0.00000000000E+00  0.00000000000E+00  0.32257434597E+03  0.32257434597E+03  0.00000000000E+00 0. -1.
         21   -1    0    0  502  503 -0.00000000000E+00 -0.00000000000E+00 -0.22886167916E+03  0.22886167916E+03  0.00000000000E+00 0.  1.
         -6    2    1    2    0  503  0.20762477001E+03  0.17186185999E+02  0.24321368141E+02  0.27086208464E+03  0.17138065770E+03 0.  0.
        -24    2    3    3    0    0  0.32721260407E+02  0.33179362614E+02  0.23659616062E+02  0.95164767396E+02  0.79529897116E+02 0.  0.
          6    2    1    2  501    0 -0.20762477001E+03 -0.17186185999E+02  0.69391298671E+02  0.28057394049E+03  0.17465157784E+03 0.  0.
         24    2    5    5    0    0 -0.17170950904E+03 -0.16806564645E+02 -0.11788608976E+02  0.19167896039E+03  0.82675488770E+02 0.  0.
          5    1    5    5  501    0 -0.35915260971E+02 -0.37962135409E+00  0.81179907647E+02  0.88894980109E+02  0.47000000000E+01 0. -1.
        -11    1    6    6    0    0 -0.34562317093E+02  0.28179079628E+02  0.10015400850E+02  0.45704732203E+02  0.00000000000E+00 0.  1.
         12    1    6    6    0    0 -0.13714719194E+03 -0.44985644273E+02 -0.21804009826E+02  0.14597422818E+03  0.00000000000E+00 0. -1.
         -5    1    3    3    0  503  0.17490350960E+03 -0.15993176615E+02  0.66175207899E+00  0.17569731724E+03  0.47000000000E+01 0.  1.
         11    1    4    4    0    0  0.39450405493E+02 -0.13866480218E+02  0.22808794665E+02  0.47632498163E+02  0.00000000000E+00 0. -1.
        -12    1    4    4    0    0 -0.67291450852E+01  0.47045842832E+02  0.85082139680E+00  0.47532269233E+02  0.00000000000E+00 0.  1.
</event>
<event>
12    1  0.1681255E-001  0.2200228E+03  0.7818608E-02  0.1134001E+00
         21   -1    0    0  501  502  0.00000000000E+00  0.00000000000E+00  0.12488955147E+03  0.12488955147E+03  0.00000000000E+00 0. -1.
         21   -1    0    0  502  503 -0.00000000000E+00 -0.00000000000E+00 -0.38966471688E+03  0.38966471688E+03  0.00000000000E+00 0.  1.
         -6    2    1    2    0  503 -0.98798940884E+01  0.13557470693E+03 -0.15589891998E+03  0.26906684726E+03  0.17208829587E+03 0.  0.
        -24    2    3    3    0    0 -0.28057814562E+02  0.89924536717E+02 -0.14395298127E+02  0.11920110791E+03  0.71610168666E+02 0.  0.
          6    2    1    2  501    0  0.98798940884E+01 -0.13557470693E+03 -0.10887624543E+03  0.24548742109E+03  0.17300844959E+03 0.  0.
         24    2    5    5    0    0 -0.22912802225E+02 -0.15615256317E+03 -0.73823767897E+02  0.19305102839E+03  0.83127199897E+02 0.  0.
          5    1    5    5  501    0  0.32792696313E+02  0.20577856242E+02 -0.35052477529E+02  0.52436392705E+02  0.47000000000E+01 0. -1.
        -11    1    6    6    0    0 -0.28279071880E+02 -0.12916811187E+02 -0.29903984008E+02  0.43136969959E+02  0.00000000000E+00 0.  1.
         12    1    6    6    0    0  0.53662696555E+01 -0.14323575199E+03 -0.43919783889E+02  0.14991405843E+03  0.00000000000E+00 0. -1.
         -5    1    3    3    0  503  0.18177920473E+02  0.45650170214E+02 -0.14150362185E+03  0.14986573935E+03  0.47000000000E+01 0.  1.
         13    1    4    4    0    0 -0.28113713371E+02  0.70454565459E+02 -0.41004121708E+02  0.86229720344E+02  0.00000000000E+00 0. -1.
        -14    1    4    4    0    0  0.55898809864E-01  0.19469971259E+02  0.26608823581E+02  0.32971387564E+02  0.00000000000E+00 0.  1.
</event>
<event>
12    1  0.1681255E-001  0.2309347E+03  0.7818608E-02  0.1126226E+00
         21   -1    0    0  503  502  0.00000000000E+00  0.00000000000E+00  0.23014609889E+04  0.23014609889E+04  0.00000000000E+00 0.  1.
         21   -1    0    0  501  503 -0.00000000000E+00 -0.00000000000E+00 -0.78987364478E+02  0.78987364478E+02  0.00000000000E+00 0.  1.
          6    2    1    2  501    0 -0.66159197099E+02  0.13677713990E+03  0.10850957771E+03  0.25390777202E+03  0.17207499202E+03 0.  0.
         24    2    3    3    0    0  0.20961425491E+02  0.11089242960E+03  0.63164632926E+02  0.15223046322E+03  0.80298385907E+02 0.  0.
         -6    2    1    2    0  502  0.66159197099E+02 -0.13677713990E+03  0.21139640467E+04  0.21265405813E+04  0.17391327724E+03 0.  0.
        -24    2    5    5    0    0  0.35396643627E+02  0.30492384667E+00  0.10104619861E+04  0.10141212743E+04  0.78457111280E+02 0.  0.
          5    1    3    3  501    0 -0.87120622590E+02  0.25884710298E+02  0.45344944784E+02  0.10167730880E+03  0.47000000000E+01 0. -1.
        -13    1    4    4    0    0 -0.30435625401E+02  0.30862934452E+02  0.21668744117E+02  0.48460112342E+02  0.00000000000E+00 0.  1.
         14    1    4    4    0    0  0.51397050892E+02  0.80029495146E+02  0.41495888809E+02  0.10377035088E+03  0.00000000000E+00 0. -1.
         -5    1    5    5    0  502  0.30762553472E+02 -0.13708206374E+03  0.11035020606E+04  0.11124193070E+04  0.47000000000E+01 0.  1.
         13    1    6    6    0    0  0.35099685980E+01 -0.13202865944E+02  0.84326696519E+03  0.84337762012E+03  0.00000000000E+00 0. -1.
        -14    1    6    6    0    0  0.31886675029E+02  0.13507789790E+02  0.16719502092E+03  0.17074365420E+03  0.00000000000E+00 0.  1.
</event>
<event>
12    1  0.1681255E-001  0.3332650E+03  0.7818608E-02  0.1071231E+00
         21   -1    0    0  501  502  0.00000000000E+00  0.00000000000E+00  0.34497299507E+03  0.34497299507E+03  0.00000000000E+00 0. -1.
         21   -1    0    0  502  503 -0.00000000000E+00 -0.00000000000E+00 -0.32910155436E+03  0.32910155436E+03  0.00000000000E+00 0. -1.
         -6    2    1    2    0  503  0.67486763030E+02  0.26867623360E+03 -0.75480399851E+02  0.34170582207E+03  0.18526790437E+03 0.  0.
        -24    2    3    3    0    0  0.80174778618E+01  0.20252059416E+03  0.10144015708E+02  0.21814694927E+03  0.80039486578E+02 0.  0.
          6    2    1    2  501    0 -0.67486763030E+02 -0.26867623360E+03  0.91351840565E+02  0.33236872736E+03  0.15931864443E+03 0.  0.
         24    2    5    5    0    0 -0.43673531530E+02 -0.12433039335E+03  0.10169010699E+03  0.18563167905E+03  0.82175533711E+02 0.  0.
          5    1    5    5  501    0 -0.23813231499E+02 -0.14434584025E+03 -0.10338266427E+02  0.14673704830E+03  0.47000000000E+01 0. -1.
        -11    1    6    6    0    0 -0.38998278106E+02 -0.16625444956E+02  0.87367390979E+01  0.43285121292E+02  0.00000000000E+00 0.  1.
         12    1    6    6    0    0 -0.46752534243E+01 -0.10770494840E+03  0.92953367894E+02  0.14234655776E+03  0.00000000000E+00 0. -1.
         -5    1    3    3    0  503  0.59469285168E+02  0.66155639443E+02 -0.85624415558E+02  0.12355887280E+03  0.47000000000E+01 0.  1.
         11    1    4    4    0    0  0.35817145532E+02  0.85022738838E+02  0.27250562198E+02  0.96199413583E+02  0.00000000000E+00 0. -1.
        -12    1    4    4    0    0 -0.27799667670E+02  0.11749785532E+03 -0.17106546490E+02  0.12194753569E+03  0.00000000000E+00 0.  1.
</event>
<event>
12    1  0.1681255E-001  0.1851915E+03  0.7818608E-02  0.1162929E+00
         21   -1    0    0  503  502  0.00000000000E+00  0.00000000000E+00  0.16653824916E+03  0.16653824916E+03  0.00000000000E+00 0.  1.
         21   -1    0    0  501  503 -0.00000000000E+00 -0.00000000000E+00 -0.44985288804E+03  0.44985288804E+03  0.00000000000E+00 0.  1.
          6    2    1    2  501    0  0.60573677456E+02 -0.32769978145E+02 -0.36868340350E+03  0.41247025603E+03  0.17164270512E+03 0.  0.
         24    2    3    3    0    0  0.43286495013E+02 -0.73797274971E+02 -0.34044944729E+03  0.35954264466E+03  0.77751712045E+02 0.  0.
         -6    2    1    2    0  502 -0.60573677456E+02  0.32769978145E+02  0.85368764629E+02  0.20392088117E+03  0.17190944690E+03 0.  0.
        -24    2    5    5    0    0 -0.31277342407E+02 -0.45347871558E+02  0.90600923991E+02  0.12019430724E+03  0.56598961676E+02 0.  0.
          5    1    3    3  501    0  0.17287182442E+02  0.41027296826E+02 -0.28233956213E+02  0.52927611368E+02  0.47000000000E+01 0. -1.
        -11    1    4    4    0    0  0.39100540903E+02 -0.55182586249E+01 -0.19299153257E+03  0.19698993660E+03  0.00000000000E+00 0.  1.
         12    1    4    4    0    0  0.41859541107E+01 -0.68279016346E+02 -0.14745791472E+03  0.16255270806E+03  0.00000000000E+00 0. -1.
         -5    1    5    5    0  502 -0.29296335049E+02  0.78117849703E+02 -0.52321593618E+01  0.83726573924E+02  0.47000000000E+01 0.  1.
         11    1    6    6    0    0 -0.28203246398E+02 -0.38382343230E+02  0.24324243642E+02  0.53481737144E+02  0.00000000000E+00 0. -1.
        -12    1    6    6    0    0 -0.30740960098E+01 -0.69655283284E+01  0.66276680349E+02  0.66712570100E+02  0.00000000000E+00 0.  1.
</event>
<event>
12    1  0.1681255E-001  0.3142530E+03  0.7818608E-02  0.1078469E+00
         21   -1    0    0  503  502  0.00000000000E+00  0.00000000000E+00  0.16986932516E+03  0.16986932516E+03  0.00000000000E+00 0. -1.
         21   -1    0    0  501  503 -0.00000000000E+00 -0.00000000000E+00 -0.67449798039E+03  0.67449798039E+03  0.00000000000E+00 0. -1.
          6    2    1    2  501    0 -0.23371383025E+03  0.11807925487E+03 -0.41149919287E+03  0.51777075632E+03  0.17375300139E+03 0.  0.
         24    2    3    3    0    0 -0.20975916341E+03  0.43262198280E+02 -0.28483348628E+03  0.36864762181E+03  0.94342088845E+02 0.  0.
         -6    2    1    2    0  502  0.23371383025E+03 -0.11807925487E+03 -0.93129462362E+02  0.32659654923E+03  0.17154400114E+03 0.  0.
        -24    2    5    5    0    0  0.25844098205E+02 -0.26334226092E+02 -0.40099028551E+02  0.93227115249E+02  0.75643598877E+02 0.  0.
          5    1    3    3  501    0 -0.23954666837E+02  0.74817056589E+02 -0.12666570659E+03  0.14912313451E+03  0.47000000000E+01 0. -1.
        -11    1    4    4    0    0 -0.16073025611E+03 -0.10744963041E+02 -0.19639086817E+03  0.25400598922E+03  0.00000000000E+00 0.  1.
         12    1    4    4    0    0 -0.49028907297E+02  0.54007161321E+02 -0.88442618112E+02  0.11464163259E+03  0.00000000000E+00 0. -1.
         -5    1    5    5    0  502  0.20786973204E+03 -0.91745028778E+02 -0.53030433811E+02  0.23336943398E+03  0.47000000000E+01 0.  1.
         13    1    6    6    0    0 -0.97508921887E+01 -0.36798031586E+02  0.70907761525E+00  0.38074634839E+02  0.00000000000E+00 0. -1.
        -14    1    6    6    0    0  0.35594990394E+02  0.10463805494E+02 -0.40808106166E+02  0.55152480410E+02  0.00000000000E+00 0.  1.
</event>
<event>
12    1  0.1681255E-001  0.2496138E+03  0.7818608E-02  0.1114295E+00
         21   -1    0    0  503  502  0.00000000000E+00  0.00000000000E+00  0.11013485381E+04  0.11013485381E+04  0.00000000000E+00 0. -1.
         21   -1    0    0  501  503 -0.00000000000E+00 -0.00000000000E+00 -0.64752674556E+02  0.64752674556E+02  0.00000000000E+00 0.  1.
          6    2    1    2  501    0  0.11032840392E+03 -0.13668727683E+03  0.30234708887E+03  0.39207248834E+03  0.17734515951E+03 0.  0.
         24    2    3    3    0    0 -0.52713325543E+01 -0.41996297652E+02  0.39102514855E+02  0.89335843116E+02  0.68267197349E+02 0.  0.
         -6    2    1    2    0  502 -0.11032840392E+03  0.13668727683E+03  0.73424877471E+03  0.77402872436E+03  0.17071448270E+03 0.  0.
        -24    2    5    5    0    0 -0.27935884367E+02  0.10227480176E+01  0.29347929704E+03  0.30552769543E+03  0.80222286400E+02 0.  0.
          5    1    3    3  501    0  0.11559973647E+03 -0.94690979183E+02  0.26324457401E+03  0.30273664522E+03  0.47000000000E+01 0. -1.
        -11    1    4    4    0    0  0.14682803472E+02 -0.47986735888E+02  0.45294674328E+02  0.67601176480E+02  0.00000000000E+00 0.  1.
         12    1    4    4    0    0 -0.19954136026E+02  0.59904382368E+01 -0.61921594734E+01  0.21734666636E+02  0.00000000000E+00 0. -1.
         -5    1    5    5    0  502 -0.82392519552E+02  0.13566452882E+03  0.44076947768E+03  0.46850102893E+03  0.47000000000E+01 0.  1.
         13    1    6    6    0    0  0.20841835511E+02  0.21400821631E+02  0.14144508907E+03  0.14456517733E+03  0.00000000000E+00 0. -1.
        -14    1    6    6    0    0 -0.48777719879E+02 -0.20378073613E+02  0.15203420797E+03  0.16096251810E+03  0.00000000000E+00 0.  1.
</event>
<event>
12    1  0.1681255E-001  0.2090448E+03  0.7818608E-02  0.1142616E+00
         21   -1    0    0  503  502  0.00000000000E+00  0.00000000000E+00  0.55536867585E+03  0.55536867585E+03  0.00000000000E+00 0.  1.
         21   -1    0    0  501  503 -0.00000000000E+00 -0.00000000000E+00 -0.87134294293E+02  0.87134294293E+02  0.00000000000E+00 0.  1.
          6    2    1    2  501    0  0.11479232916E+03  0.17878204202E+02  0.13163281197E+03  0.24703628523E+03  0.17378958546E+03 0.  0.
         24    2    3    3    0    0  0.22741821307E+02  0.31618687261E+02  0.12512627348E+03  0.15362043051E+03  0.80160592150E+02 0.  0.
         -6    2    1    2    0  502 -0.11479232916E+03 -0.17878204202E+02  0.33660156958E+03  0.39546668491E+03  0.17203596487E+03 0.  0.
        -24    2    5    5    0    0 -0.23343332625E+02 -0.31608925761E+02  0.27258034059E+03  0.28289555432E+03  0.64697891855E+02 0.  0.
          5    1    3    3  501    0  0.92050507850E+02 -0.13740483060E+02  0.65065384890E+01  0.93415854721E+02  0.47000000000E+01 0. -1.
        -13    1    4    4    0    0  0.49376816850E+02  0.22354854422E+02  0.10742727862E+03  0.12032634687E+03  0.00000000000E+00 0.  1.
         14    1    4    4    0    0 -0.26634995542E+02  0.92638328397E+01  0.17698994859E+02  0.33294083640E+02  0.00000000000E+00 0. -1.
         -5    1    5    5    0  502 -0.91448996532E+02  0.13730721559E+02  0.64021228992E+02  0.11257113059E+03  0.47000000000E+01 0.  1.
         11    1    6    6    0    0 -0.26888249231E+02  0.18250960159E+01  0.21117985513E+03  0.21289255538E+03  0.00000000000E+00 0. -1.
        -12    1    6    6    0    0  0.35449166062E+01 -0.33434021777E+02  0.61400485460E+02  0.70002998940E+02  0.00000000000E+00 0.  1.
</event>
<event>
12    1  0.1681255E-001  0.1798615E+03  0.7818608E-02  0.1168063E+00
         21   -1    0    0  501  502  0.00000000000E+00  0.00000000000E+00  0.18168268178E+03  0.18168268178E+03  0.00000000000E+00 0.  1.
         21   -1    0    0  502  503 -0.00000000000E+00 -0.00000000000E+00 -0.20155383054E+03  0.20155383054E+03  0.00000000000E+00 0.  1.
         -6    2    1    2    0  503  0.48035364957E+02  0.23675861697E+02 -0.76053994368E+02  0.19480441520E+03  0.17116251754E+03 0.  0.
        -24    2    3    3    0    0  0.53311980244E+02 -0.47717954746E+02 -0.49915794030E+02  0.11844856924E+03  0.80120575504E+02 0.  0.
          6    2    1    2  501    0 -0.48035364957E+02 -0.23675861697E+02  0.56182845604E+02  0.18843209712E+03  0.17170381583E+03 0.  0.
         24    2    5    5    0    0 -0.82110868874E+02 -0.45071837384E+02  0.48040319755E+01  0.12300427251E+03  0.79582077257E+02 0.  0.
          5    1    5    5  501    0  0.34075503917E+02  0.21395975687E+02  0.51378813628E+02  0.65427824606E+02  0.47000000000E+01 0. -1.
        -11    1    6    6    0    0 -0.76080339555E+02 -0.27870870922E+01  0.18131467460E+02  0.78260692774E+02  0.00000000000E+00 0.  1.
         12    1    6    6    0    0 -0.60305293191E+01 -0.42284750292E+02 -0.13327435485E+02  0.44743579737E+02  0.00000000000E+00 0. -1.
         -5    1    3    3    0  503 -0.52766152869E+01  0.71393816443E+02 -0.26138200337E+02  0.76355845959E+02  0.47000000000E+01 0.  1.
         11    1    4    4    0    0  0.24688374657E+01  0.17247058957E+02  0.64030306864E+01  0.18562192841E+02  0.00000000000E+00 0. -1.
        -12    1    4    4    0    0  0.50843142778E+02 -0.64965013704E+02 -0.56318824717E+02  0.99886376401E+02  0.00000000000E+00 0.  1.
</event>
<event>
12    1  0.1681255E-001  0.1738535E+03  0.7818608E-02  0.1173906E+00
         21   -1    0    0  501  502  0.00000000000E+00  0.00000000000E+00  0.61481823574E+03  0.61481823574E+03  0.00000000000E+00 0.  1.
         21   -1    0    0  502  503 -0.00000000000E+00 -0.00000000000E+00 -0.70641221622E+02  0.70641221622E+02  0.00000000000E+00 0.  1.
         -6    2    1    2    0  503  0.18431222711E+02  0.17010974424E+02  0.83047158793E+02  0.19267036222E+03  0.17203474845E+03 0.  0.
        -24    2    3    3    0    0 -0.33694426622E+02  0.56150195601E+02  0.70523254805E+02  0.12612789365E+03  0.81526420480E+02 0.  0.
          6    2    1    2  501    0 -0.18431222711E+02 -0.17010974424E+02  0.46112985533E+03  0.49278909514E+03  0.17196297740E+03 0.  0.
         24    2    5    5    0    0 -0.33215235819E+02  0.47498360820E+02  0.34478900489E+03  0.35885887130E+03  0.80875740804E+02 0.  0.
          5    1    5    5  501    0  0.14784013108E+02 -0.64509335244E+02  0.11634085044E+03  0.13393022384E+03  0.47000000000E+01 0. -1.
        -13    1    6    6    0    0 -0.15524074051E+02 -0.15767189755E+02  0.18160945440E+03  0.18295243938E+03  0.00000000000E+00 0.  1.
         14    1    6    6    0    0 -0.17691161768E+02  0.63265550575E+02  0.16317955048E+03  0.17590643192E+03  0.00000000000E+00 0. -1.
         -5    1    3    3    0  503  0.52125649333E+02 -0.39139221176E+02  0.12523903988E+02  0.66542468573E+02  0.47000000000E+01 0.  1.
         11    1    4    4    0    0  0.15560184682E+02  0.42856766820E+02  0.57670677997E+02  0.73516861401E+02  0.00000000000E+00 0. -1.
        -12    1    4    4    0    0 -0.49254611303E+02  0.13293428781E+02  0.12852576808E+02  0.52611032246E+02  0.00000000000E+00 0.  1.
</event>
<event>
12    1  0.1681255E-001  0.2596060E+03  0.7818608E-02  0.1107421E+00
         21   -1    0    0  501  502  0.00000000000E+00  0.00000000000E+00  0.15466780105E+04  0.15466780105E+04  0.00000000000E+00 0. -1.
         21   -1    0    0  502  503 -0.00000000000E+00 -0.00000000000E+00 -0.73884496902E+02  0.73884496902E+02  0.00000000000E+00 0.  1.
         -6    2    1    2    0  503  0.13645517766E+02  0.19363131337E+03  0.21724862514E+03  0.33851472803E+03  0.17238320768E+03 0.  0.
        -24    2    3    3    0    0 -0.44239340149E+02  0.16389106012E+03  0.19102848686E+03  0.26819598877E+03  0.81362195117E+02 0.  0.
          6    2    1    2  501    0 -0.13645517766E+02 -0.19363131337E+03  0.12555448885E+04  0.12820477794E+04  0.17197167209E+03 0.  0.
         24    2    5    5    0    0 -0.57075224704E+02 -0.12808443770E+03  0.58609261347E+03  0.60797732991E+03  0.80428090043E+02 0.  0.
          5    1    5    5  501    0  0.43429706939E+02 -0.65546875678E+02  0.66945227500E+03  0.67407044948E+03  0.47000000000E+01 0. -1.
        -11    1    6    6    0    0 -0.42578292221E+02 -0.72695896134E+02  0.48079760213E+03  0.48812287234E+03  0.00000000000E+00 0.  1.
         12    1    6    6    0    0 -0.14496932483E+02 -0.55388541563E+02  0.10529501134E+03  0.11985445758E+03  0.00000000000E+00 0. -1.
         -5    1    3    3    0  503  0.57884857914E+02  0.29740253257E+02  0.26220138278E+02  0.70318739258E+02  0.47000000000E+01 0.  1.
         13    1    4    4    0    0 -0.47442632509E+01  0.13873085790E+03  0.12213336720E+03  0.18489272119E+03  0.00000000000E+00 0. -1.
        -14    1    4    4    0    0 -0.39495076898E+02  0.25160202219E+02  0.68895119664E+02  0.83303267573E+02  0.00000000000E+00 0.  1.
</event>
<event>
12    1  0.1681255E-001  0.2152339E+03  0.7818608E-02  0.1137671E+00
         21   -1    0    0  501  502  0.00000000000E+00  0.00000000000E+00  0.51182193568E+03  0.51182193568E+03  0.00000000000E+00 0.  1.
         21   -1    0    0  502  503 -0.00000000000E+00 -0.00000000000E+00 -0.29210369004E+03  0.29210369004E+03  0.00000000000E+00 0. -1.
         -6    2    1    2    0  503 -0.36921203642E+02 -0.12148725646E+03 -0.22432724663E+03  0.31088314266E+03  0.17379092626E+03 0.  0.
        -24    2    3    3    0    0  0.29158963965E+02 -0.12306874073E+03 -0.16942709635E+03  0.22482963521E+03  0.76463479958E+02 0.  0.
          6    2    1    2  501    0  0.36921203642E+02  0.12148725646E+03  0.44404549227E+03  0.49304248306E+03  0.17260406177E+03 0.  0.
         24    2    5    5    0    0  0.78691166609E+02  0.12375632125E+03  0.39214577553E+03  0.42621771925E+03  0.79845527012E+02 0.  0.
          5    1    5    5  501    0 -0.41769962968E+02 -0.22690647921E+01  0.51899716740E+02  0.66824763816E+02  0.47000000000E+01 0. -1.
        -11    1    6    6    0    0  0.50592571953E+02  0.10265740023E+03  0.19614819114E+03  0.22709527306E+03  0.00000000000E+00 0.  1.
         12    1    6    6    0    0  0.28098594657E+02  0.21098921022E+02  0.19599758439E+03  0.19912244619E+03  0.00000000000E+00 0. -1.
         -5    1    3    3    0  503 -0.66080167606E+02  0.15814842782E+01 -0.54900150277E+02  0.86053507447E+02  0.47000000000E+01 0.  1.
         11    1    4    4    0    0  0.36291193374E+02 -0.75593106126E+02 -0.15229908598E+03  0.17385735532E+03  0.00000000000E+00 0. -1.
        -12    1    4    4    0    0 -0.71322294089E+01 -0.47475634609E+02 -0.17128010371E+02  0.50972279890E+02  0.00000000000E+00 0.  1.
</event>
<event>
12    1  0.1681255E-001  0.2845324E+03  0.7818608E-02  0.1095319E+00
         21   -1    0    0  503  502  0.00000000000E+00  0.00000000000E+00  0.25037173458E+03  0.25037173458E+03  0.00000000000E+00 0. -1.
         21   -1    0    0  501  503 -0.00000000000E+00 -0.00000000000E+00 -0.71462657682E+03  0.71462657682E+03  0.00000000000E+00 0. -1.
          6    2    1    2  501    0 -0.20715895459E+03  0.14938260488E+02 -0.59402423178E+03  0.65227035944E+03  0.17162123928E+03 0.  0.
         24    2    3    3    0    0 -0.32587448912E+02  0.33399332311E+02 -0.17697831525E+03  0.19976023993E+03  0.80033568975E+02 0.  0.
         -6    2    1    2    0  502  0.20715895459E+03 -0.14938260488E+02  0.12976938954E+03  0.31272795196E+03  0.19447543130E+03 0.  0.
        -24    2    5    5    0    0  0.76331837853E+02 -0.82213634034E+02  0.47286516737E+02  0.14400562189E+03  0.76915365035E+02 0.  0.
          5    1    3    3  501    0 -0.17457150568E+03 -0.18461071823E+02 -0.41704591653E+03  0.45251011951E+03  0.47000000000E+01 0. -1.
        -13    1    4    4    0    0 -0.13071142432E+02  0.45622861293E+02 -0.16876528947E+03  0.17531121803E+03  0.00000000000E+00 0.  1.
         14    1    4    4    0    0 -0.19516306481E+02 -0.12223528982E+02 -0.82130257788E+01  0.24449021900E+02  0.00000000000E+00 0. -1.
         -5    1    5    5    0  502  0.13082711674E+03  0.67275373545E+02  0.82482872799E+02  0.16872233007E+03  0.47000000000E+01 0.  1.
         13    1    6    6    0    0  0.49387871589E+02 -0.30315886699E+02  0.60795830366E+02  0.83990165117E+02  0.00000000000E+00 0. -1.
        -14    1    6    6    0    0  0.26943966264E+02 -0.51897747335E+02 -0.13509313629E+02  0.60015456769E+02  0.00000000000E+00 0.  1.
</event>
<event>
12    1  0.1681255E-001  0.1945007E+03  0.7818608E-02  0.1155294E+00
         21   -1    0    0  501  502  0.00000000000E+00  0.00000000000E+00  0.16986617795E+03  0.16986617795E+03  0.00000000000E+00 0.  1.
         21   -1    0    0  502  503 -0.00000000000E+00 -0.00000000000E+00 -0.30059344239E+03  0.30059344239E+03  0.00000000000E+00 0. -1.
         -6    2    1    2    0  503  0.13207602064E+02  0.81549167570E+02 -0.18788197028E+03  0.26773524568E+03  0.17192387717E+03 0.  0.
        -24    2    3    3    0    0  0.61527396632E+02  0.68843107763E+02 -0.17955346200E+03  0.21686579952E+03  0.79160187359E+02 0.  0.
          6    2    1    2  501    0 -0.13207602064E+02 -0.81549167570E+02  0.57154705840E+02  0.20272437466E+03  0.17608465066E+03 0.  0.
         24    2    5    5    0    0  0.43965367814E+02 -0.92848018420E+02  0.20019778239E+02  0.13346034819E+03  0.82808000372E+02 0.  0.
          5    1    5    5  501    0 -0.57172969878E+02  0.11298850851E+02  0.37134927601E+02  0.69264026472E+02  0.47000000000E+01 0. -1.
        -13    1    6    6    0    0  0.11594004682E+02 -0.91689793212E+02  0.33597988827E+02  0.98337500360E+02  0.00000000000E+00 0.  1.
         14    1    6    6    0    0  0.32371363132E+02 -0.11582252085E+01 -0.13578210588E+02  0.35122847826E+02  0.00000000000E+00 0. -1.
         -5    1    3    3    0  503 -0.48319794569E+02  0.12706059807E+02 -0.83285082849E+01  0.50869446166E+02  0.47000000000E+01 0.  1.
         13    1    4    4    0    0 -0.12994147566E+01  0.27231127524E+02 -0.11327180866E+03  0.11650633212E+03  0.00000000000E+00 0. -1.
        -14    1    4    4    0    0  0.62826811389E+02  0.41611980239E+02 -0.66281653331E+02  0.10035946740E+03  0.00000000000E+00 0.  1.
</event>
<event>
12    1  0.1681255E-001  0.1875165E+03  0.7818608E-02  0.1161567E+00
         21   -1    0    0  501  502  0.00000000000E+00  0.00000000000E+00  0.77924380426E+02  0.77924380426E+02  0.00000000000E+00 0. -1.
         21   -1    0    0  502  503 -0.00000000000E+00 -0.00000000000E+00 -0.59663092370E+03  0.59663092370E+03  0.00000000000E+00 0. -1.
         -6    2    1    2    0  503  0.24203518404E+02  0.70927289502E+02 -0.43267172884E+03  0.47155831470E+03  0.17188929149E+03 0.  0.
        -24    2    3    3    0    0  0.44375181927E+02  0.86058128982E+02 -0.42743061562E+03  0.44537821576E+03  0.79307411846E+02 0.  0.
          6    2    1    2  501    0 -0.24203518404E+02 -0.70927289502E+02 -0.86034814436E+02  0.20299698942E+03  0.16789668764E+03 0.  0.
         24    2    5    5    0    0 -0.41053976604E+02  0.11487603757E+02 -0.12124651540E+02  0.90921324128E+02  0.79386938290E+02 0.  0.
          5    1    5    5  501    0  0.16850458199E+02 -0.82414893259E+02 -0.73910162896E+02  0.11207566530E+03  0.47000000000E+01 0. -1.
        -11    1    6    6    0    0  0.19001598042E+02  0.69536430474E+01 -0.22000616256E+02  0.29890483359E+02  0.00000000000E+00 0.  1.
         12    1    6    6    0    0 -0.60055574646E+02  0.45339607096E+01  0.98759647166E+01  0.61030840768E+02  0.00000000000E+00 0. -1.
         -5    1    3    3    0  503 -0.20171663522E+02 -0.15130839481E+02 -0.52411132196E+01  0.26180098938E+02  0.47000000000E+01 0.  1.
         11    1    4    4    0    0  0.27857048161E+02  0.31988066382E+02 -0.33013488125E+03  0.33284875145E+03  0.00000000000E+00 0. -1.
        -12    1    4    4    0    0  0.16518133766E+02  0.54070062601E+02 -0.97295734372E+02  0.11252946432E+03  0.00000000000E+00 0.  1.
</event>
<event>
12    1  0.1681255E-001  0.1990810E+03  0.7818608E-02  0.1152538E+00
         21   -1    0    0  501  502  0.00000000000E+00  0.00000000000E+00  0.11942147807E+03  0.11942147807E+03  0.00000000000E+00 0. -1.
         21   -1    0    0  502  503 -0.00000000000E+00 -0.00000000000E+00 -0.39994959993E+03  0.39994959993E+03  0.00000000000E+00 0. -1.
         -6    2    1    2    0  503  0.74924900277E+02  0.64872716092E+02 -0.25615090405E+03  0.31880311000E+03  0.16186391607E+03 0.  0.
        -24    2    3    3    0    0  0.10472033469E+03  0.75273612419E+02 -0.24156664178E+03  0.28372124485E+03  0.74235012860E+02 0.  0.
          6    2    1    2  501    0 -0.74924900277E+02 -0.64872716092E+02 -0.24377217816E+02  0.20056796800E+03  0.17265877059E+03 0.  0.
         24    2    5    5    0    0 -0.99574289553E+02 -0.61937469365E+02 -0.62088568947E+02  0.15517585338E+03  0.80456608351E+02 0.  0.
          5    1    5    5  501    0  0.24649389276E+02 -0.29352467265E+01  0.37711351131E+02  0.45392114615E+02  0.47000000000E+01 0. -1.
        -13    1    6    6    0    0  0.12329531977E+02 -0.17973025577E+02 -0.12456639523E+02  0.25104080851E+02  0.00000000000E+00 0.  1.
         14    1    6    6    0    0 -0.11190382153E+03 -0.43964443788E+02 -0.49631929424E+02  0.13007177253E+03  0.00000000000E+00 0. -1.
         -5    1    3    3    0  503 -0.29795434414E+02 -0.10400896327E+02 -0.14584262264E+02  0.35081865146E+02  0.47000000000E+01 0.  1.
         13    1    4    4    0    0  0.28386467250E+02  0.63034305366E+02 -0.89091402399E+02  0.11276698611E+03  0.00000000000E+00 0. -1.
        -14    1    4    4    0    0  0.76333867441E+02  0.12239307052E+02 -0.15247523938E+03  0.17095425874E+03  0.00000000000E+00 0.  1.
</event>
<event>
12    1  0.1681255E-001  0.1797312E+03  0.7818608E-02  0.1168288E+00
         21   -1    0    0  501  502  0.00000000000E+00  0.00000000000E+00  0.16807080017E+04  0.16807080017E+04  0.00000000000E+00 0. -1.
         21   -1    0    0  502  503 -0.00000000000E+00 -0.00000000000E+00 -0.41255161061E+02  0.41255161061E+02  0.00000000000E+00 0. -1.
         -6    2    1    2    0  503 -0.27205699392E+02 -0.41918938766E+02  0.18810889221E+03  0.25953280656E+03  0.17168277388E+03 0.  0.
        -24    2    3    3    0    0  0.30814459089E+02  0.24720041876E+02  0.81488281298E+02  0.12097907257E+03  0.80218356084E+02 0.  0.
          6    2    1    2  501    0  0.27205699392E+02  0.41918938766E+02  0.14513439484E+04  0.14624303562E+04  0.17264397637E+03 0.  0.
         24    2    5    5    0    0  0.21889390008E+02  0.35269735430E+02  0.36233555726E+03  0.37337854793E+03  0.80008651830E+02 0.  0.
          5    1    5    5  501    0  0.53163093841E+01  0.66492033356E+01  0.10890083912E+04  0.10890518083E+04  0.47000000000E+01 0. -1.
        -11    1    6    6    0    0 -0.62534874601E+01 -0.22414865749E+02  0.61108300276E+02  0.65389270332E+02  0.00000000000E+00 0.  1.
         12    1    6    6    0    0  0.28142877468E+02  0.57684601180E+02  0.30122725698E+03  0.30798927760E+03  0.00000000000E+00 0. -1.
         -5    1    3    3    0  503 -0.58020158481E+02 -0.66638980642E+02  0.10662061091E+03  0.13855373399E+03  0.47000000000E+01 0.  1.
         11    1    4    4    0    0  0.41613298836E+02  0.77193307826E+01  0.58745286708E+01  0.42728969035E+02  0.00000000000E+00 0. -1.
        -12    1    4    4    0    0 -0.10798839747E+02  0.17000711093E+02  0.75613752627E+02  0.78250103539E+02  0.00000000000E+00 0.  1.
</event>
<event>
12    1  0.1681255E-001  0.2621582E+03  0.7818608E-02  0.1105856E+00
         21   -1    0    0  503  502  0.00000000000E+00  0.00000000000E+00  0.52996904041E+03  0.52996904041E+03  0.00000000000E+00 0. -1.
         21   -1    0    0  501  503 -0.00000000000E+00 -0.00000000000E+00 -0.14955196445E+03  0.14955196445E+03  0.00000000000E+00 0. -1.
          6    2    1    2  501    0  0.15853039897E+03 -0.11866353028E+03  0.66325067303E+02  0.27039910989E+03  0.17176653708E+03 0.  0.
         24    2    3    3    0    0  0.53663185911E+02 -0.26884179754E+02 -0.26032562503E+02  0.10314898779E+03  0.79746615785E+02 0.  0.
         -6    2    1    2    0  502 -0.15853039897E+03  0.11866353028E+03  0.31409200866E+03  0.40912189498E+03  0.17179643254E+03 0.  0.
        -24    2    5    5    0    0 -0.87530878060E+02  0.68706324156E+02  0.79444490334E+02  0.15888560211E+03  0.80938210513E+02 0.  0.
          5    1    3    3  501    0  0.10486721306E+03 -0.91779350522E+02  0.92357629807E+02  0.16725012209E+03  0.47000000000E+01 0. -1.
        -11    1    4    4    0    0  0.29433978259E+02  0.81373727612E+01  0.22980959363E+02  0.38219110466E+02  0.00000000000E+00 0.  1.
         12    1    4    4    0    0  0.24229207653E+02 -0.35021552515E+02 -0.49013521866E+02  0.64929877328E+02  0.00000000000E+00 0. -1.
         -5    1    5    5    0  502 -0.70999520909E+02  0.49957206120E+02  0.23464751832E+03  0.25023629287E+03  0.47000000000E+01 0.  1.
         11    1    6    6    0    0 -0.32183788773E+02 -0.12616338005E+02  0.40089439554E+02  0.52935162304E+02  0.00000000000E+00 0. -1.
        -12    1    6    6    0    0 -0.55347089288E+02  0.81322662161E+02  0.39355050780E+02  0.10595043981E+03  0.00000000000E+00 0.  1.
</event>
<event>
12    1  0.1681255E-001  0.1723357E+03  0.7818608E-02  0.1175686E+00
         21   -1    0    0  501  502  0.00000000000E+00  0.00000000000E+00  0.15592649087E+04  0.15592649087E+04  0.00000000000E+00 0. -1.
         21   -1    0    0  502  503 -0.00000000000E+00 -0.00000000000E+00 -0.45543972839E+02  0.45543972839E+02  0.00000000000E+00 0. -1.
         -6    2    1    2    0  503  0.74514274520E+01 -0.98050641464E+01  0.14447759588E+03  0.22488522985E+03  0.17189510708E+03 0.  0.
        -24    2    3    3    0    0 -0.14285894563E+02 -0.38662387428E+02  0.18636640141E+02  0.93876480457E+02  0.82259359603E+02 0.  0.
          6    2    1    2  501    0 -0.74514274520E+01  0.98050641464E+01  0.13692433400E+04  0.13799236517E+04  0.17091020264E+03 0.  0.
         24    2    5    5    0    0  0.53805281246E+02 -0.18031031454E+02  0.98930377392E+03  0.99404362314E+03  0.78617054284E+02 0.  0.
          5    1    5    5  501    0 -0.61256708698E+02  0.27836095600E+02  0.37993956608E+03  0.38588002857E+03  0.47000000000E+01 0. -1.
        -11    1    6    6    0    0  0.22081045079E+02  0.10431565331E+02  0.77774880505E+02  0.81518845334E+02  0.00000000000E+00 0.  1.
         12    1    6    6    0    0  0.31724236167E+02 -0.28462596785E+02  0.91152889342E+03  0.91252477781E+03  0.00000000000E+00 0. -1.
         -5    1    3    3    0  503  0.21737322015E+02  0.28857323282E+02  0.12584095574E+03  0.13100874939E+03  0.47000000000E+01 0.  1.
         13    1    4    4    0    0  0.42295703575E+01 -0.62040069591E+02  0.12296925561E+02  0.63388278715E+02  0.00000000000E+00 0. -1.
        -14    1    4    4    0    0 -0.18515464920E+02  0.23377682163E+02  0.63397145798E+01  0.30488201742E+02  0.00000000000E+00 0.  1.
</event>
<event>
12    1  0.1681255E-001  0.1964922E+03  0.7818608E-02  0.1153044E+00
         21   -1    0    0  503  502  0.00000000000E+00  0.00000000000E+00  0.32235922899E+02  0.32235922899E+02  0.00000000000E+00 0.  1.
         21   -1    0    0  501  503 -0.00000000000E+00 -0.00000000000E+00 -0.16000782712E+04  0.16000782712E+04  0.00000000000E+00 0.  1.
          6    2    1    2  501    0  0.77037038812E+02  0.51292895226E+02 -0.11997443942E+04  0.12157285029E+04  0.17333065239E+03 0.  0.
         24    2    3    3    0    0  0.43136802173E+02  0.59051303239E+02 -0.11490301393E+04  0.11540564299E+04  0.78918580769E+02 0.  0.
         -6    2    1    2    0  502 -0.77037038812E+02 -0.51292895226E+02 -0.36809795411E+03  0.41658569114E+03  0.17170284737E+03 0.  0.
        -24    2    5    5    0    0 -0.50136544990E+00  0.28031694353E+02 -0.15216549910E+03  0.17410060926E+03  0.79816387870E+02 0.  0.
          5    1    3    3  501    0  0.33900236639E+02 -0.77584080130E+01 -0.50714254902E+02  0.61672073010E+02  0.47000000000E+01 0. -1.
        -11    1    4    4    0    0 -0.13162132746E+02  0.39520327501E+02 -0.67691073260E+03  0.67819115147E+03  0.00000000000E+00 0.  1.
         12    1    4    4    0    0  0.56298934920E+02  0.19530975738E+02 -0.47211940666E+03  0.47586527845E+03  0.00000000000E+00 0. -1.
         -5    1    5    5    0  502 -0.76535673362E+02 -0.79324589579E+02 -0.21593245501E+03  0.24248508188E+03  0.47000000000E+01 0.  1.
         11    1    6    6    0    0  0.29859063351E+02  0.66394854610E+01 -0.12336937753E+03  0.12710487695E+03  0.00000000000E+00 0. -1.
        -12    1    6    6    0    0 -0.30360428800E+02  0.21392208892E+02 -0.28796121570E+02  0.46995732314E+02  0.00000000000E+00 0.  1.
</event>
<event>
12    1  0.1681255E-001  0.2052939E+03  0.7818608E-02  0.1145572E+00
         21   -1    0    0  503  502  0.00000000000E+00  0.00000000000E+00  0.18170107464E+03  0.18170107464E+03  0.00000000000E+00 0.  1.
         21   -1    0    0  501  503 -0.00000000000E+00 -0.00000000000E+00 -0.23076355027E+03  0.23076355027E+03  0.00000000000E+00 0.  1.
          6    2    1    2  501    0  0.58918919211E+02  0.93724407556E+02 -0.27544888414E+02  0.20604612206E+03  0.17158257465E+03 0.  0.
         24    2    3    3    0    0  0.10345756281E+03  0.45394329636E+02 -0.13687909827E+02  0.13871416040E+03  0.79310446698E+02 0.  0.
         -6    2    1    2    0  502 -0.58918919211E+02 -0.93724407556E+02 -0.21517587218E+02  0.20641850285E+03  0.17288692301E+03 0.  0.
        -24    2    5    5    0    0 -0.81242980149E+02 -0.29763433002E+02  0.29822458825E+02  0.12128766067E+03  0.79592925648E+02 0.  0.
          5    1    3    3  501    0 -0.44538643594E+02  0.48330077920E+02 -0.13856978588E+02  0.67331961657E+02  0.47000000000E+01 0. -1.
        -11    1    4    4    0    0  0.80815282612E+02  0.41560068353E+02 -0.43771043828E+02  0.10086750449E+03  0.00000000000E+00 0.  1.
         12    1    4    4    0    0  0.22642280194E+02  0.38342612830E+01  0.30083134001E+02  0.37846655906E+02  0.00000000000E+00 0. -1.
         -5    1    5    5    0  502  0.22324060938E+02 -0.63960974554E+02 -0.51340046042E+02  0.85130842180E+02  0.47000000000E+01 0.  1.
         11    1    6    6    0    0  0.11083849805E+02  0.11749873879E+02  0.18159177860E+01  0.16254501533E+02  0.00000000000E+00 0. -1.
        -12    1    6    6    0    0 -0.92326829955E+02 -0.41513306881E+02  0.28006541039E+02  0.10503315914E+03  0.00000000000E+00 0.  1.
</event>
<event>
12    1  0.1681255E-001  0.2776447E+03  0.7818608E-02  0.1096997E+00
         21   -1    0    0  501  502  0.00000000000E+00  0.00000000000E+00  0.14178873842E+04  0.14178873842E+04  0.00000000000E+00 0.  1.
         21   -1    0    0  502  503 -0.00000000000E+00 -0.00000000000E+00 -0.81846303331E+02  0.81846303331E+02  0.00000000000E+00 0. -1.
         -6    2    1    2    0  503 -0.60501732977E+02  0.20894548036E+03  0.11027742828E+04  0.11371885151E+04  0.17253384169E+03 0.  0.
        -24    2    3    3    0    0 -0.28763843375E+02  0.43099753403E+02  0.23575278603E+03  0.25386498167E+03  0.78632724532E+02 0.  0.
          6    2    1    2  501    0  0.60501732977E+02 -0.20894548036E+03  0.23326679810E+03  0.36254517250E+03  0.17235698289E+03 0.  0.
         24    2    5    5    0    0  0.35353983242E+02 -0.30982601107E+02  0.11066077213E+03  0.14492733474E+03  0.80921567968E+02 0.  0.
          5    1    5    5  501    0  0.25147749735E+02 -0.17796287925E+03  0.12260602596E+03  0.21761783776E+03  0.47000000000E+01 0. -1.
        -11    1    6    6    0    0  0.27150990909E+01 -0.21294261928E+02  0.10872713304E+03  0.11082602047E+03  0.00000000000E+00 0.  1.
         12    1    6    6    0    0  0.32638884151E+02 -0.96883391787E+01  0.19336390948E+01  0.34101314268E+02  0.00000000000E+00 0. -1.
         -5    1    3    3    0  503 -0.31737889602E+02  0.16584572696E+03  0.86702149677E+03  0.88332353340E+03  0.47000000000E+01 0.  1.
         13    1    4    4    0    0  0.10169782878E+02  0.43350369736E+02  0.65397186167E+02  0.79116818683E+02  0.00000000000E+00 0. -1.
        -14    1    4    4    0    0 -0.38933626253E+02 -0.25061633304E+00  0.17035559987E+03  0.17474816299E+03  0.00000000000E+00 0.  1.
</event>
<event>
12    1  0.1681255E-001  0.1841340E+03  0.7818608E-02  0.1164730E+00
         21   -1    0    0  503  502  0.00000000000E+00  0.00000000000E+00  0.98204298678E+03  0.98204298678E+03  0.00000000000E+00 0.  1.
         21   -1    0    0  501  503 -0.00000000000E+00 -0.00000000000E+00 -0.62371377671E+02  0.62371377671E+02  0.00000000000E+00 0. -1.
          6    2    1    2  501    0  0.21576128787E+02  0.59005884110E+02  0.10917299545E+03  0.21406557053E+03  0.17308408898E+03 0.  0.
         24    2    3    3    0    0  0.19955446060E+01 -0.22226403138E+02  0.10296619775E+03  0.13014478582E+03  0.76404399106E+02 0.  0.
         -6    2    1    2    0  502 -0.21576128787E+02 -0.59005884110E+02  0.81049861366E+03  0.83034879392E+03  0.16918597203E+03 0.  0.
        -24    2    5    5    0    0 -0.32527921710E-01 -0.87137390578E+02  0.37282684965E+03  0.39121991602E+03  0.80375599391E+02 0.  0.
          5    1    3    3  501    0  0.19580584181E+02  0.81232287248E+02  0.62067977009E+01  0.83920784708E+02  0.47000000000E+01 0. -1.
        -11    1    4    4    0    0 -0.20192601984E+02 -0.41205027790E+02  0.40547605827E+02  0.61234825291E+02  0.00000000000E+00 0.  1.
         12    1    4    4    0    0  0.22188146590E+02  0.18978624652E+02  0.62418591921E+02  0.68909960529E+02  0.00000000000E+00 0. -1.
         -5    1    5    5    0  502 -0.21543600865E+02  0.28131506468E+02  0.43767176401E+03  0.43912887790E+03  0.47000000000E+01 0.  1.
         11    1    6    6    0    0  0.37058601012E+01  0.12501545066E+02  0.98016485483E+02  0.98879995219E+02  0.00000000000E+00 0. -1.
        -12    1    6    6    0    0 -0.37383880229E+01 -0.99638935645E+02  0.27481036417E+03  0.29233992080E+03  0.00000000000E+00 0.  1.
</event>
<event>
12    1  0.1681255E-001  0.1996577E+03  0.7818608E-02  0.1150349E+00
         21   -1    0    0  503  502  0.00000000000E+00  0.00000000000E+00  0.25986971197E+03  0.25986971197E+03  0.00000000000E+00 0.  1.
         21   -1    0    0  501  503 -0.00000000000E+00 -0.00000000000E+00 -0.15237919454E+03  0.15237919454E+03  0.00000000000E+00 0.  1.
          6    2    1    2  501    0 -0.60751292690E+02  0.80081017574E+02  0.47283232949E+02  0.20371088818E+03  0.17075928352E+03 0.  0.
         24    2    3    3    0    0 -0.27021503458E+02  0.11617974342E+03  0.54746496765E+02  0.15352516316E+03  0.79654895552E+02 0.  0.
         -6    2    1    2    0  502  0.60751292690E+02 -0.80081017574E+02  0.60207284482E+02  0.20853801832E+03  0.17250941726E+03 0.  0.
        -24    2    5    5    0    0 -0.72476635423E+01 -0.21762572661E+02  0.81565808979E+02  0.11632535306E+03  0.79702373714E+02 0.  0.
          5    1    3    3  501    0 -0.33729789232E+02 -0.36098725846E+02 -0.74632638155E+01  0.50185725023E+02  0.47000000000E+01 0. -1.
        -13    1    4    4    0    0 -0.29225115891E+02  0.31838830406E+02 -0.13208642219E+02  0.45191666817E+02  0.00000000000E+00 0.  1.
         14    1    4    4    0    0  0.22036124327E+01  0.84340913013E+02  0.67955138984E+02  0.10833349634E+03  0.00000000000E+00 0. -1.
         -5    1    5    5    0  502  0.67998956232E+02 -0.58318444912E+02 -0.21358524496E+02  0.92212665260E+02  0.47000000000E+01 0.  1.
         11    1    6    6    0    0  0.10188620514E+02 -0.16506230649E+02 -0.10786304048E+02  0.22194774008E+02  0.00000000000E+00 0. -1.
        -12    1    6    6    0    0 -0.17436284056E+02 -0.52563420123E+01  0.92352113027E+02  0.94130579057E+02  0.00000000000E+00 0.  1.
</event>
<event>
12    1  0.1681255E-001  0.1842267E+03  0.7818608E-02  0.1164531E+00
         21   -1    0    0  503  502  0.00000000000E+00  0.00000000000E+00  0.14495097906E+04  0.14495097906E+04  0.00000000000E+00 0.  1.
         21   -1    0    0  501  503 -0.00000000000E+00 -0.00000000000E+00 -0.30442963128E+02  0.30442963128E+02  0.00000000000E+00 0.  1.
          6    2    1    2  501    0 -0.34708103460E+02 -0.59710453192E+02  0.33921731158E+03  0.38450104466E+03  0.16734000779E+03 0.  0.
         24    2    3    3    0    0  0.22868133034E+02 -0.62725245230E+02  0.12655009523E+03  0.16410697285E+03  0.80366436019E+02 0.  0.
         -6    2    1    2    0  502  0.34708103460E+02  0.59710453192E+02  0.10798495158E+04  0.10954517090E+04  0.17079074696E+03 0.  0.
        -24    2    5    5    0    0  0.69816231608E+02  0.40314166945E+02  0.45873435413E+03  0.47302506218E+03  0.82558848925E+02 0.  0.
          5    1    3    3  501    0 -0.57576236494E+02  0.30147920379E+01  0.21266721635E+03  0.22039407182E+03  0.47000000000E+01 0. -1.
        -13    1    4    4    0    0  0.48186737139E+01 -0.33615811911E+02  0.12531358627E+03  0.12983349849E+03  0.00000000000E+00 0.  1.
         14    1    4    4    0    0  0.18049459320E+02 -0.29109433319E+02  0.12365089527E+01  0.34273474354E+02  0.00000000000E+00 0. -1.
         -5    1    5    5    0  502 -0.35108128148E+02  0.19396286248E+02  0.62111516171E+03  0.62242664684E+03  0.47000000000E+01 0.  1.
         13    1    6    6    0    0  0.81714756011E+02  0.94020613689E+01  0.32345469492E+03  0.33374936670E+03  0.00000000000E+00 0. -1.
        -14    1    6    6    0    0 -0.11898524403E+02  0.30912105576E+02  0.13527965921E+03  0.13927569547E+03  0.00000000000E+00 0.  1.
</event>
<event>
12    1  0.1681255E-001  0.1754109E+03  0.7818608E-02  0.1172651E+00
         21   -1    0    0  503  502  0.00000000000E+00  0.00000000000E+00  0.81751239910E+02  0.81751239910E+02  0.00000000000E+00 0.  1.
         21   -1    0    0  501  503 -0.00000000000E+00 -0.00000000000E+00 -0.78181308562E+03  0.78181308562E+03  0.00000000000E+00 0.  1.
          6    2    1    2  501    0 -0.30021885919E+02  0.90158371865E+01 -0.66268201390E+03  0.68550452382E+03  0.17258737404E+03 0.  0.
         24    2    3    3    0    0 -0.83756986042E+02 -0.93717743920E+01 -0.49518754238E+03  0.50858066100E+03  0.79627405780E+02 0.  0.
         -6    2    1    2    0  502  0.30021885919E+02 -0.90158371865E+01 -0.37379831813E+02  0.17805980171E+03  0.17124672904E+03 0.  0.
        -24    2    5    5    0    0  0.25892590486E+02 -0.14777726205E+02  0.44000540222E+02  0.96236177995E+02  0.80228093467E+02 0.  0.
          5    1    3    3  501    0  0.53735100123E+02  0.18387611578E+02 -0.16749447152E+03  0.17692386282E+03  0.47000000000E+01 0. -1.
        -11    1    4    4    0    0 -0.29426787033E+02 -0.16900248148E+02 -0.37426155408E+03  0.37579684012E+03  0.00000000000E+00 0.  1.
         12    1    4    4    0    0 -0.54330199009E+02  0.75284737559E+01 -0.12092598830E+03  0.13278382088E+03  0.00000000000E+00 0. -1.
         -5    1    5    5    0  502  0.41292954329E+01  0.57618890184E+01 -0.81380372035E+02  0.81823623719E+02  0.47000000000E+01 0.  1.
         13    1    6    6    0    0  0.20823173055E+02  0.31859433281E+02  0.14011732949E+02  0.40558065601E+02  0.00000000000E+00 0. -1.
        -14    1    6    6    0    0  0.50694174309E+01 -0.46637159486E+02  0.29988807273E+02  0.55678112394E+02  0.00000000000E+00 0.  1.
</event>
<event>
12    1  0.1681255E-001  0.2014749E+03  0.7818608E-02  0.1149106E+00
         21   -1    0    0  503  502  0.00000000000E+00  0.00000000000E+00  0.33809641320E+03  0.33809641320E+03  0.00000000000E+00 0. -1.
         21   -1    0    0  501  503 -0.00000000000E+00 -0.00000000000E+00 -0.96375721241E+03  0.96375721241E+03  0.00000000000E+00 0.  1.
          6    2    1    2  501    0 -0.76295059891E+02  0.69928261540E+02 -0.92275487307E+03  0.94449387745E+03  0.17286188367E+03 0.  0.
         24    2    3    3    0    0 -0.19373704275E+02  0.53803924573E+02 -0.24932914762E+03  0.26845812938E+03  0.81452689690E+02 0.  0.
         -6    2    1    2    0  502  0.76295059891E+02 -0.69928261540E+02  0.29709407385E+03  0.35735974816E+03  0.16949986125E+03 0.  0.
        -24    2    5    5    0    0 -0.18862358569E+02 -0.19808197317E+02  0.99259668529E+02  0.13213209210E+03  0.82814580325E+02 0.  0.
          5    1    3    3  501    0 -0.56921355617E+02  0.16124336967E+02 -0.67342572545E+03  0.67603574807E+03  0.47000000000E+01 0. -1.
        -13    1    4    4    0    0 -0.37861497870E+02  0.31578402249E+02 -0.22598383703E+03  0.23129933659E+03  0.00000000000E+00 0.  1.
         14    1    4    4    0    0  0.18487793595E+02  0.22225522324E+02 -0.23345310596E+02  0.37158792787E+02  0.00000000000E+00 0. -1.
         -5    1    5    5    0  502  0.95157418460E+02 -0.50120064223E+02  0.19783440533E+03  0.22522765606E+03  0.47000000000E+01 0.  1.
         13    1    6    6    0    0 -0.18191925119E+02 -0.45970401858E+02  0.92843578756E+02  0.10518628286E+03  0.00000000000E+00 0. -1.
        -14    1    6    6    0    0 -0.67043345007E+00  0.26162204540E+02  0.64160897737E+01  0.26945809236E+02  0.00000000000E+00 0.  1.
</event>
<event>
12    1  0.1681255E-001  0.2971945E+03  0.7818608E-02  0.1087691E+00
         21   -1    0    0  501  502  0.00000000000E+00  0.00000000000E+00  0.40362325928E+03  0.40362325928E+03  0.00000000000E+00 0.  1.
         21   -1    0    0  502  503 -0.00000000000E+00 -0.00000000000E+00 -0.21916139460E+03  0.21916139460E+03  0.00000000000E+00 0.  1.
         -6    2    1    2    0  503  0.14211027164E+02  0.24221634265E+03  0.40878833694E+02  0.29999270274E+03  0.17162118958E+03 0.  0.
        -24    2    3    3    0    0  0.63345275157E+02  0.12217515138E+03  0.52259566823E+02  0.16970197777E+03  0.84429304356E+02 0.  0.
          6    2    1    2  501    0 -0.14211027164E+02 -0.24221634265E+03  0.14358303098E+03  0.32279195115E+03  0.15718729911E+03 0.  0.
         24    2    5    5    0    0  0.32956514409E+02 -0.88993498596E+02  0.92239321042E+02  0.15438683404E+03  0.79506147847E+02 0.  0.
          5    1    5    5  501    0 -0.47167541572E+02 -0.15322284405E+03  0.51343709942E+02  0.16840511710E+03  0.47000000000E+01 0. -1.
        -13    1    6    6    0    0  0.45262994844E+02 -0.81766761805E+02  0.42550791056E+02  0.10268939506E+03  0.00000000000E+00 0.  1.
         14    1    6    6    0    0 -0.12306480436E+02 -0.72267367919E+01  0.49688529986E+02  0.51697438984E+02  0.00000000000E+00 0. -1.
         -5    1    3    3    0  503 -0.49134247993E+02  0.12004119126E+03 -0.11380733129E+02  0.13029072497E+03  0.47000000000E+01 0.  1.
         11    1    4    4    0    0  0.65772869940E+02  0.65660413313E+02  0.36659447684E+00  0.92938122899E+02  0.00000000000E+00 0. -1.
        -12    1    4    4    0    0 -0.24275947830E+01  0.56514738069E+02  0.51892972346E+02  0.76763854869E+02  0.00000000000E+00 0.  1.
</event>
<event>
12    1  0.1681255E-001  0.1840254E+03  0.7818608E-02  0.1164240E+00
         21   -1    0    0  501  502  0.00000000000E+00  0.00000000000E+00  0.12718392904E+03  0.12718392904E+03  0.00000000000E+00 0. -1.
         21   -1    0    0  502  503 -0.00000000000E+00 -0.00000000000E+00 -0.29445637240E+03  0.29445637240E+03  0.00000000000E+00 0. -1.
         -6    2    1    2    0  503 -0.37510397489E+02  0.53225092455E+02 -0.16233843560E+02  0.18356884267E+03  0.17086264055E+03 0.  0.
        -24    2    3    3    0    0 -0.40794388938E+02  0.95320627376E+02  0.13614239052E+02  0.13164758791E+03  0.79972093425E+02 0.  0.
          6    2    1    2  501    0  0.37510397489E+02 -0.53225092455E+02 -0.15103859981E+03  0.23807145876E+03  0.17212036620E+03 0.  0.
         24    2    5    5    0    0 -0.32735561551E+02 -0.28883214180E+02 -0.28669891119E+02  0.94812208921E+02  0.79129863214E+02 0.  0.
          5    1    5    5  501    0  0.70245959040E+02 -0.24341878275E+02 -0.12236870869E+03  0.14325924984E+03  0.47000000000E+01 0. -1.
        -11    1    6    6    0    0 -0.85322719100E+01 -0.53980151943E+02 -0.23798646113E+02  0.59607315193E+02  0.00000000000E+00 0.  1.
         12    1    6    6    0    0 -0.24203289641E+02  0.25096937762E+02 -0.48712450055E+01  0.35204893728E+02  0.00000000000E+00 0. -1.
         -5    1    3    3    0  503  0.32839914484E+01 -0.42095534921E+02 -0.29848082613E+02  0.51921254759E+02  0.47000000000E+01 0.  1.
         13    1    4    4    0    0 -0.60258205582E+02  0.42429788582E+02  0.15277830561E+02  0.75264536176E+02  0.00000000000E+00 0. -1.
        -14    1    4    4    0    0  0.19463816645E+02  0.52890838794E+02 -0.16635915088E+01  0.56383051739E+02  0.00000000000E+00 0.  1.
</event>
<event>
12    1  0.1681255E-001  0.2147551E+03  0.7818608E-02  0.1137902E+00
         21   -1    0    0  503  502  0.00000000000E+00  0.00000000000E+00  0.68272647587E+03  0.68272647587E+03  0.00000000000E+00 0. -1.
         21   -1    0    0  501  503 -0.00000000000E+00 -0.00000000000E+00 -0.67542022940E+02  0.67542022940E+02  0.00000000000E+00 0.  1.
          6    2    1    2  501    0 -0.12271660342E+03  0.36847508889E+02  0.31916760590E+03  0.38455589193E+03  0.17204118603E+03 0.  0.
         24    2    3    3    0    0 -0.99423341511E+02 -0.69406826248E+01  0.30731505662E+03  0.33334500743E+03  0.82116843852E+02 0.  0.
         -6    2    1    2    0  502  0.12271660342E+03 -0.36847508889E+02  0.29601684702E+03  0.36571260688E+03  0.17234451962E+03 0.  0.
        -24    2    5    5    0    0  0.71320148284E+01 -0.49857977149E+02  0.10010568769E+03  0.13782592067E+03  0.80238096802E+02 0.  0.
          5    1    3    3  501    0 -0.23293261904E+02  0.43788191513E+02  0.11852549288E+02  0.51210884495E+02  0.47000000000E+01 0. -1.
        -13    1    4    4    0    0  0.12662243062E+02  0.38664887360E+01  0.62321631346E+02  0.63712383947E+02  0.00000000000E+00 0.  1.
         14    1    4    4    0    0 -0.11208558457E+03 -0.10807171361E+02  0.24499342527E+03  0.26963262348E+03  0.00000000000E+00 0. -1.
         -5    1    5    5    0  502  0.11558458859E+03  0.13010468260E+02  0.19591115933E+03  0.22788668621E+03  0.47000000000E+01 0.  1.
         13    1    6    6    0    0  0.20136052875E+02 -0.23712977169E+02  0.10382882986E+03  0.10838907612E+03  0.00000000000E+00 0. -1.
        -14    1    6    6    0    0 -0.13004038046E+02 -0.26144999979E+02 -0.37231421666E+01  0.29436844549E+02  0.00000000000E+00 0.  1.
</event>
<event>
12    1  0.1681255E-001  0.2494009E+03  0.7818608E-02  0.1113829E+00
         21   -1    0    0  503  502  0.00000000000E+00  0.00000000000E+00  0.13686191827E+03  0.13686191827E+03  0.00000000000E+00 0. -1.
         21   -1    0    0  501  503 -0.00000000000E+00 -0.00000000000E+00 -0.49023874301E+03  0.49023874301E+03  0.00000000000E+00 0. -1.
          6    2    1    2  501    0 -0.17579722072E+03  0.31690453368E+02 -0.26361532355E+03  0.36289650396E+03  0.17404564380E+03 0.  0.
         24    2    3    3    0    0 -0.91967612133E+02 -0.19196310775E+02 -0.22564207044E+03  0.25763053609E+03  0.81440832148E+02 0.  0.
         -6    2    1    2    0  502  0.17579722072E+03 -0.31690453368E+02 -0.89761501178E+02  0.26420415732E+03  0.17273610510E+03 0.  0.
        -24    2    5    5    0    0  0.15074739031E+03  0.60720902390E+01 -0.12120990550E+03  0.20884536545E+03  0.78504136917E+02 0.  0.
          5    1    3    3  501    0 -0.83829608585E+02  0.50886764143E+02 -0.37973253108E+02  0.10526596787E+03  0.47000000000E+01 0. -1.
        -11    1    4    4    0    0 -0.66235841718E+02  0.82662560732E+01 -0.20304094962E+03  0.21373147859E+03  0.00000000000E+00 0.  1.
         12    1    4    4    0    0 -0.25731770415E+02 -0.27462566849E+02 -0.22601120824E+02  0.43899057497E+02  0.00000000000E+00 0. -1.
         -5    1    5    5    0  502  0.25049830412E+02 -0.37762543607E+02  0.31448404324E+02  0.55358791875E+02  0.47000000000E+01 0.  1.
         13    1    6    6    0    0  0.10611182622E+03 -0.29187368653E+02 -0.60238840420E+02  0.12546051191E+03  0.00000000000E+00 0. -1.
        -14    1    6    6    0    0  0.44635564081E+02  0.35259458892E+02 -0.60971065081E+02  0.83384853537E+02  0.00000000000E+00 0.  1.
</event>
<event>
12    1  0.1681255E-001  0.1929838E+03  0.7818608E-02  0.1156247E+00
         21   -1    0    0  503  502  0.00000000000E+00  0.00000000000E+00  0.18620842201E+03  0.18620842201E+03  0.00000000000E+00 0.  1.
         21   -1    0    0  501  503 -0.00000000000E+00 -0.00000000000E+00 -0.21613191907E+03  0.21613191907E+03  0.00000000000E+00 0.  1.
          6    2    1    2  501    0  0.80061347357E+02  0.18944817760E+02 -0.73291634873E+02  0.20454362147E+03  0.17233021755E+03 0.  0.
         24    2    3    3    0    0 -0.26449400845E+02 -0.85974470606E+01 -0.33337062946E+02  0.87404500538E+02  0.75859739305E+02 0.  0.
         -6    2    1    2    0  502 -0.80061347357E+02 -0.18944817760E+02  0.43368137816E+02  0.19779671961E+03  0.17456809975E+03 0.  0.
        -24    2    5    5    0    0 -0.41452480264E+02  0.58771522228E+02  0.19436452507E+02  0.10765633088E+03  0.77715570812E+02 0.  0.
          5    1    3    3  501    0  0.10651074820E+03  0.27542264821E+02 -0.39954571927E+02  0.11713912093E+03  0.47000000000E+01 0. -1.
        -13    1    4    4    0    0  0.13464166786E+02 -0.28753300622E+02 -0.28074524961E+02  0.42381777165E+02  0.00000000000E+00 0.  1.
         14    1    4    4    0    0 -0.39913567632E+02  0.20155853562E+02 -0.52625379856E+01  0.45022723373E+02  0.00000000000E+00 0. -1.
         -5    1    5    5    0  502 -0.38608867093E+02 -0.77716339988E+02  0.23931685308E+02  0.90140388734E+02  0.47000000000E+01 0.  1.
         13    1    6    6    0    0 -0.16336729228E+01  0.60888604184E+02 -0.46220329749E+01  0.61085630024E+02  0.00000000000E+00 0. -1.
        -14    1    6    6    0    0 -0.39818807341E+02 -0.21170819557E+01  0.24058485482E+02  0.46570700852E+02  0.00000000000E+00 0.  1.
</event>
<event>
12    1  0.1681255E-001  0.1885968E+03  0.7818608E-02  0.1160107E+00
         21   -1    0    0  501  502  0.00000000000E+00  0.00000000000E+00  0.17885215762E+04  0.17885215762E+04  0.00000000000E+00 0.  1.
         21   -1    0    0  502  503 -0.00000000000E+00 -0.00000000000E+00 -0.19725629552E+02  0.19725629552E+02  0.00000000000E+00 0.  1.
         -6    2    1    2    0  503 -0.12451390580E+02  0.72849126415E+02  0.90110610259E+03  0.92029764578E+03  0.17173676469E+03 0.  0.
        -24    2    3    3    0    0 -0.54472891750E+02  0.87919625572E+02  0.76150887730E+03  0.77366067290E+03  0.89207119037E+02 0.  0.
          6    2    1    2  501    0  0.12451390580E+02 -0.72849126415E+02  0.86768984404E+03  0.88794955996E+03  0.17351289069E+03 0.  0.
         24    2    5    5    0    0  0.45531032238E+02 -0.16237316584E+01  0.65482937692E+03  0.66101567529E+03  0.77874891304E+02 0.  0.
          5    1    5    5  501    0 -0.33079641658E+02 -0.71225394757E+02  0.21286046712E+03  0.22693388467E+03  0.47000000000E+01 0. -1.
        -11    1    6    6    0    0  0.50421231416E+02 -0.43975292326E+01  0.20514864412E+03  0.21129979892E+03  0.00000000000E+00 0.  1.
         12    1    6    6    0    0 -0.48901991780E+01  0.27737975741E+01  0.44968073281E+03  0.44971587637E+03  0.00000000000E+00 0. -1.
         -5    1    3    3    0  503  0.42021501170E+02 -0.15070499157E+02  0.13959722529E+03  0.14663697288E+03  0.47000000000E+01 0.  1.
         11    1    4    4    0    0 -0.31523832169E+02  0.24004206539E+02  0.55200205185E+03  0.55342227925E+03  0.00000000000E+00 0. -1.
        -12    1    4    4    0    0 -0.22949059581E+02  0.63915419033E+02  0.20950682545E+03  0.22023839365E+03  0.00000000000E+00 0.  1.
</event>
<event>
12    1  0.1681255E-001  0.2168648E+03  0.7818608E-02  0.1136463E+00
         21   -1    0    0  503  502  0.00000000000E+00  0.00000000000E+00  0.93420902804E+03  0.93420902804E+03  0.00000000000E+00 0.  1.
         21   -1    0    0  501  503 -0.00000000000E+00 -0.00000000000E+00 -0.51056418200E+02  0.51056418200E+02  0.00000000000E+00 0. -1.
          6    2    1    2  501    0 -0.12081669514E+03 -0.53660947399E+02  0.37438636830E+03  0.43266096223E+03  0.17191330480E+03 0.  0.
         24    2    3    3    0    0 -0.15324477907E+03 -0.27399680968E+02  0.29457520953E+03  0.34247700686E+03  0.79254282724E+02 0.  0.
         -6    2    1    2    0  502  0.12081669514E+03  0.53660947399E+02  0.50876624154E+03  0.55260448401E+03  0.17044781054E+03 0.  0.
        -24    2    5    5    0    0 -0.89002587249E+01  0.18583992619E+02  0.19627729216E+03  0.21241583876E+03  0.78556564011E+02 0.  0.
          5    1    3    3  501    0  0.32428083925E+02 -0.26261266430E+02  0.79811158771E+02  0.90183955368E+02  0.47000000000E+01 0. -1.
        -13    1    4    4    0    0 -0.24281468930E+02  0.25298829909E+02  0.67690154258E+02  0.76233703252E+02  0.00000000000E+00 0.  1.
         14    1    4    4    0    0 -0.12896331014E+03 -0.52698510877E+02  0.22688505527E+03  0.26624330361E+03  0.00000000000E+00 0. -1.
         -5    1    5    5    0  502  0.12971695387E+03  0.35076954780E+02  0.31248894938E+03  0.34018864525E+03  0.47000000000E+01 0.  1.
         11    1    6    6    0    0 -0.10740441003E+02  0.36247410279E+02  0.18977486588E+03  0.19350382824E+03  0.00000000000E+00 0. -1.
        -12    1    6    6    0    0  0.18401822779E+01 -0.17663417661E+02  0.65024262885E+01  0.18912010520E+02  0.00000000000E+00 0.  1.
</event>
<event>
12    1  0.1681255E-001  0.1990913E+03  0.7818608E-02  0.1152699E+00
         21   -1    0    0  503  502  0.00000000000E+00  0.00000000000E+00  0.34604616478E+03  0.34604616478E+03  0.00000000000E+00 0.  1.
         21   -1    0    0  501  503 -0.00000000000E+00 -0.00000000000E+00 -0.22449050127E+03  0.22449050127E+03  0.00000000000E+00 0.  1.
          6    2    1    2  501    0  0.63189600043E+02 -0.45929800276E+02 -0.14470481103E+03  0.23807313508E+03  0.17215360352E+03 0.  0.
         24    2    3    3    0    0  0.16084088583E+02 -0.35965987735E+02 -0.47050210651E+01  0.89950760134E+02  0.80726401172E+02 0.  0.
         -6    2    1    2    0  502 -0.63189600043E+02  0.45929800276E+02  0.26626047453E+03  0.33246353096E+03  0.18312533144E+03 0.  0.
        -24    2    5    5    0    0 -0.70233641146E+01 -0.36612631338E+02  0.73737970480E+02  0.11554210823E+03  0.80764336596E+02 0.  0.
          5    1    3    3  501    0  0.47105511460E+02 -0.99638125410E+01 -0.13999978997E+03  0.14812237495E+03  0.47000000000E+01 0. -1.
        -13    1    4    4    0    0  0.44675728442E+02 -0.61076251767E+01 -0.14686460343E+02  0.47422736261E+02  0.00000000000E+00 0.  1.
         14    1    4    4    0    0 -0.28591639858E+02 -0.29858362558E+02  0.99814392776E+01  0.42528023873E+02  0.00000000000E+00 0. -1.
         -5    1    5    5    0  502 -0.56166235928E+02  0.82542431614E+02  0.19252250405E+03  0.21692142274E+03  0.47000000000E+01 0.  1.
         11    1    6    6    0    0 -0.13129974841E+02 -0.59162808954E+02  0.68761161403E+02  0.91655504582E+02  0.00000000000E+00 0. -1.
        -12    1    6    6    0    0  0.61066107261E+01  0.22550177616E+02  0.49768090777E+01  0.23886603645E+02  0.00000000000E+00 0.  1.
</event>
<event>
12    1  0.1681255E-001  0.2230390E+03  0.7818608E-02  0.1134765E+00
         21   -1    0    0  501  502  0.00000000000E+00  0.00000000000E+00  0.35664925240E+03  0.35664925240E+03  0.00000000000E+00 0.  1.
         21   -1    0    0  502  503 -0.00000000000E+00 -0.00000000000E+00 -0.16953425213E+03  0.16953425213E+03  0.00000000000E+00 0.  1.
         -6    2    1    2    0  503  0.23010261272E+02  0.13921270611E+03 -0.31626650384E+02  0.22527015341E+03  0.17273316802E+03 0.  0.
        -24    2    3    3    0    0 -0.60688826662E+01  0.16310557470E+03 -0.13524922919E+02  0.18324363418E+03  0.82189087422E+02 0.  0.
          6    2    1    2  501    0 -0.23010261272E+02 -0.13921270611E+03  0.21874165065E+03  0.30091335112E+03  0.15096782932E+03 0.  0.
         24    2    5    5    0    0  0.61481440796E+01 -0.20966148925E+02  0.65658229313E+02  0.10523738229E+03  0.79287606088E+02 0.  0.
          5    1    5    5  501    0 -0.29158405352E+02 -0.11824655719E+03  0.15308342133E+03  0.19567596883E+03  0.47000000000E+01 0. -1.
        -11    1    6    6    0    0 -0.18076737184E+02  0.38634485538E+01  0.68001311651E+02  0.70468950952E+02  0.00000000000E+00 0.  1.
         12    1    6    6    0    0  0.24224881263E+02 -0.24829597479E+02 -0.23430823380E+01  0.34768431343E+02  0.00000000000E+00 0. -1.
         -5    1    3    3    0  503  0.29079143938E+02 -0.23892868586E+02 -0.18101727464E+02  0.42026519230E+02  0.47000000000E+01 0.  1.
         11    1    4    4    0    0 -0.36750801072E+01 -0.88164395245E+01  0.41190404488E+01  0.10402034123E+02  0.00000000000E+00 0. -1.
        -12    1    4    4    0    0 -0.23938025590E+01  0.17192201422E+03 -0.17643963368E+02  0.17284160005E+03  0.00000000000E+00 0.  1.
</event>
<event>
12    1  0.1681255E-001  0.2166459E+03  0.7818608E-02  0.1136429E+00
         21   -1    0    0  503  502  0.00000000000E+00  0.00000000000E+00  0.21719274675E+03  0.21719274675E+03  0.00000000000E+00 0. -1.
         21   -1    0    0  501  503 -0.00000000000E+00 -0.00000000000E+00 -0.22649563474E+03  0.22649563474E+03  0.00000000000E+00 0. -1.
          6    2    1    2  501    0  0.10739014418E+02 -0.13092515042E+03 -0.52422087114E+02  0.22289805386E+03  0.17227520354E+03 0.  0.
         24    2    3    3    0    0 -0.54874102367E+02 -0.12141062896E+03 -0.14695397636E+02  0.14647161660E+03  0.59044659572E+02 0.  0.
         -6    2    1    2    0  502 -0.10739014418E+02  0.13092515042E+03  0.43119199124E+02  0.22079032763E+03  0.17214058788E+03 0.  0.
        -24    2    5    5    0    0 -0.63802527807E+02  0.81507720646E+02  0.64948280672E+02  0.14491926845E+03  0.77904070032E+02 0.  0.
          5    1    3    3  501    0  0.65613116785E+02 -0.95145214669E+01 -0.37726689478E+02  0.76426437258E+02  0.47000000000E+01 0. -1.
        -13    1    4    4    0    0 -0.25091504547E+02 -0.85479953425E+02  0.16138399851E+02  0.90536478768E+02  0.00000000000E+00 0.  1.
         14    1    4    4    0    0 -0.29782597820E+02 -0.35930675533E+02 -0.30833797486E+02  0.55935137834E+02  0.00000000000E+00 0. -1.
         -5    1    5    5    0  502  0.53063513390E+02  0.49417429778E+02 -0.21829081548E+02  0.75871059175E+02  0.47000000000E+01 0.  1.
         13    1    6    6    0    0 -0.58786233071E+02  0.95628881245E+02  0.47419223093E+02  0.12185764993E+03  0.00000000000E+00 0. -1.
        -14    1    6    6    0    0 -0.50162947367E+01 -0.14121160598E+02  0.17529057579E+02  0.23061618528E+02  0.00000000000E+00 0.  1.
</event>
<event>
12    1  0.1681255E-001  0.1912386E+03  0.7818608E-02  0.1157481E+00
         21   -1    0    0  503  502  0.00000000000E+00  0.00000000000E+00  0.51173062499E+02  0.51173062499E+02  0.00000000000E+00 0.  1.
         21   -1    0    0  501  503 -0.00000000000E+00 -0.00000000000E+00 -0.80570621841E+03  0.80570621841E+03  0.00000000000E+00 0. -1.
          6    2    1    2  501    0  0.18747068244E+02 -0.81594206816E+02 -0.52249135906E+03  0.55618743486E+03  0.17128390248E+03 0.  0.
         24    2    3    3    0    0  0.58199548219E+02 -0.55220859317E+02 -0.19729860322E+03  0.22751667241E+03  0.80003541657E+02 0.  0.
         -6    2    1    2    0  502 -0.18747068244E+02  0.81594206816E+02 -0.23204179684E+03  0.30069184604E+03  0.17193930220E+03 0.  0.
        -24    2    5    5    0    0  0.58410212543E+01  0.66642401802E+02 -0.24873083339E+03  0.26709505216E+03  0.70692376977E+02 0.  0.
          5    1    3    3  501    0 -0.39452479975E+02 -0.26373347499E+02 -0.32519275585E+03  0.32867076245E+03  0.47000000000E+01 0. -1.
        -13    1    4    4    0    0  0.27829663107E+02 -0.65653504386E+02 -0.86207884266E+02  0.11187793391E+03  0.00000000000E+00 0.  1.
         14    1    4    4    0    0  0.30369885112E+02  0.10432645069E+02 -0.11109071895E+03  0.11563873850E+03  0.00000000000E+00 0. -1.
         -5    1    5    5    0  502 -0.24588089499E+02  0.14951805014E+02  0.16689036545E+02  0.33596793882E+02  0.47000000000E+01 0.  1.
         11    1    6    6    0    0 -0.19853674169E+02  0.31515089201E+02 -0.19207163389E+03  0.19564989591E+03  0.00000000000E+00 0. -1.
        -12    1    6    6    0    0  0.25694695423E+02  0.35127312602E+02 -0.56659199503E+02  0.71445156252E+02  0.00000000000E+00 0.  1.
</event>
<event>
12    1  0.1681255E-001  0.1991094E+03  0.7818608E-02  0.1152793E+00
         21   -1    0    0  503  502  0.00000000000E+00  0.00000000000E+00  0.16659628813E+03  0.16659628813E+03  0.00000000000E+00 0.  1.
         21   -1    0    0  501  503 -0.00000000000E+00 -0.00000000000E+00 -0.52422025674E+03  0.52422025674E+03  0.00000000000E+00 0. -1.
          6    2    1    2  501    0  0.63285501407E+02  0.46083566923E+02 -0.44157970884E+03  0.48439365409E+03  0.18307327229E+03 0.  0.
         24    2    3    3    0    0  0.11940693614E+02  0.12225568740E+02 -0.69475568396E+02  0.10721168916E+03  0.79846396246E+02 0.  0.
         -6    2    1    2    0  502 -0.63285501407E+02 -0.46083566923E+02  0.83955740240E+02  0.20642289079E+03  0.17156075802E+03 0.  0.
        -24    2    5    5    0    0 -0.64390490473E+02  0.15454505912E+02  0.97423219944E+02  0.14324363455E+03  0.81501398995E+02 0.  0.
          5    1    3    3  501    0  0.51344807793E+02  0.33857998184E+02 -0.37210414045E+03  0.37718196493E+03  0.47000000000E+01 0. -1.
        -11    1    4    4    0    0  0.46253205921E+02  0.67795050823E+01 -0.43206701077E+02  0.63656419669E+02  0.00000000000E+00 0.  1.
         12    1    4    4    0    0 -0.34312512307E+02  0.54460636576E+01 -0.26268867319E+02  0.43555269490E+02  0.00000000000E+00 0. -1.
         -5    1    5    5    0  502  0.11049890654E+01 -0.61538072835E+02 -0.13467479704E+02  0.63179256237E+02  0.47000000000E+01 0.  1.
         11    1    6    6    0    0 -0.33007932011E+02 -0.33721514152E+01 -0.58377452380E+01  0.33689378894E+02  0.00000000000E+00 0. -1.
        -12    1    6    6    0    0 -0.31382558461E+02  0.18826657327E+02  0.10326096518E+03  0.10955425565E+03  0.00000000000E+00 0.  1.
</event>
<event>
12    1  0.1681255E-001  0.1930821E+03  0.7818608E-02  0.1156212E+00
         21   -1    0    0  503  502  0.00000000000E+00  0.00000000000E+00  0.44470879918E+03  0.44470879918E+03  0.00000000000E+00 0. -1.
         21   -1    0    0  501  503 -0.00000000000E+00 -0.00000000000E+00 -0.94516368560E+02  0.94516368560E+02  0.00000000000E+00 0. -1.
          6    2    1    2  501    0  0.60867804969E+01 -0.83643346947E+02  0.79489089212E+02  0.20671802716E+03  0.17140761087E+03 0.  0.
         24    2    3    3    0    0 -0.41240505888E+02 -0.81816238432E+01  0.52437030343E+01  0.90662820212E+02  0.80153179929E+02 0.  0.
         -6    2    1    2    0  502 -0.60867804969E+01  0.83643346947E+02  0.27070334141E+03  0.33250714058E+03  0.17391791485E+03 0.  0.
        -24    2    5    5    0    0 -0.15247497758E+02  0.78602699512E+02  0.28969082601E+03  0.31032738768E+03  0.77275107985E+02 0.  0.
          5    1    3    3  501    0  0.47327286385E+02 -0.75461723104E+02  0.74245386178E+02  0.11605520695E+03  0.47000000000E+01 0. -1.
        -11    1    4    4    0    0 -0.61519640048E+02  0.11099156194E+02  0.44148086331E+01  0.62668556032E+02  0.00000000000E+00 0.  1.
         12    1    4    4    0    0  0.20279134159E+02 -0.19280780037E+02  0.82889440120E+00  0.27994264181E+02  0.00000000000E+00 0. -1.
         -5    1    5    5    0  502  0.91607172613E+01  0.50406474353E+01 -0.18987484600E+02  0.22179752901E+02  0.47000000000E+01 0.  1.
         11    1    6    6    0    0  0.26626631026E+02  0.28394379577E+02  0.16507905461E+03  0.16960634582E+03  0.00000000000E+00 0. -1.
        -12    1    6    6    0    0 -0.41874128784E+02  0.50208319935E+02  0.12461177140E+03  0.14072104187E+03  0.00000000000E+00 0.  1.
</event>
<event>
12    1  0.1681255E-001  0.2227407E+03  0.7818608E-02  0.1132148E+00
         21   -1    0    0  503  502  0.00000000000E+00  0.00000000000E+00  0.89279434526E+02  0.89279434526E+02  0.00000000000E+00 0.  1.
         21   -1    0    0  501  503 -0.00000000000E+00 -0.00000000000E+00 -0.62377892286E+03  0.62377892286E+03  0.00000000000E+00 0. -1.
          6    2    1    2  501    0 -0.34009697529E+02  0.13725048593E+03 -0.38923161519E+03  0.44845812491E+03  0.17210195850E+03 0.  0.
         24    2    3    3    0    0 -0.10701466968E+02  0.50863140506E+02 -0.75961055508E+02  0.12262598926E+03  0.81027593016E+02 0.  0.
         -6    2    1    2    0  502  0.34009697529E+02 -0.13725048593E+03 -0.14526787315E+03  0.26460023248E+03  0.17004755995E+03 0.  0.
        -24    2    5    5    0    0 -0.16653646317E+02 -0.26011866776E+02 -0.32849057628E+02  0.98465092051E+02  0.87534865150E+02 0.  0.
          5    1    3    3  501    0 -0.23308230561E+02  0.86387345428E+02 -0.31327055968E+03  0.32583213565E+03  0.47000000000E+01 0. -1.
        -13    1    4    4    0    0  0.18848026465E+02  0.13878298870E+02  0.92339873560E+01  0.25161911764E+02  0.00000000000E+00 0.  1.
         14    1    4    4    0    0 -0.29549493433E+02  0.36984841636E+02 -0.85195042864E+02  0.97464077493E+02  0.00000000000E+00 0. -1.
         -5    1    5    5    0  502  0.50663343846E+02 -0.11123861916E+03 -0.11241881552E+03  0.16613514043E+03  0.47000000000E+01 0.  1.
         11    1    6    6    0    0  0.28309389815E+02 -0.10067428830E+02 -0.40208272130E+02  0.50194420234E+02  0.00000000000E+00 0. -1.
        -12    1    6    6    0    0 -0.44963036132E+02 -0.15944437946E+02  0.73592145022E+01  0.48270671818E+02  0.00000000000E+00 0.  1.
</event>
<event>
12    1  0.1681255E-001  0.2818202E+03  0.7818608E-02  0.1094752E+00
         21   -1    0    0  503  502  0.00000000000E+00  0.00000000000E+00  0.11049877933E+03  0.11049877933E+03  0.00000000000E+00 0. -1.
         21   -1    0    0  501  503 -0.00000000000E+00 -0.00000000000E+00 -0.76666523993E+03  0.76666523993E+03  0.00000000000E+00 0. -1.
          6    2    1    2  501    0 -0.22229971366E+03  0.14592605427E+02 -0.43863684011E+03  0.52115593445E+03  0.17196256478E+03 0.  0.
         24    2    3    3    0    0 -0.69273225257E+02 -0.33995115364E+02 -0.11073689476E+03  0.15602809803E+03  0.78279370907E+02 0.  0.
         -6    2    1    2    0  502  0.22229971366E+03 -0.14592605427E+02 -0.21752962049E+03  0.35600808481E+03  0.17260508056E+03 0.  0.
        -24    2    5    5    0    0  0.95216832437E+02 -0.37143180609E+02 -0.39113583599E+02  0.13575150861E+03  0.80328940127E+02 0.  0.
          5    1    3    3  501    0 -0.15302648840E+03  0.48587720791E+02 -0.32789994535E+03  0.36512783642E+03  0.47000000000E+01 0. -1.
        -13    1    4    4    0    0  0.36931346758E+01 -0.15066876836E+02 -0.67221207540E+02  0.68987975507E+02  0.00000000000E+00 0.  1.
         14    1    4    4    0    0 -0.72966359933E+02 -0.18928238529E+02 -0.43515687215E+02  0.87040122526E+02  0.00000000000E+00 0. -1.
         -5    1    5    5    0  502  0.12708288122E+03  0.22550575182E+02 -0.17841603689E+03  0.22025657621E+03  0.47000000000E+01 0.  1.
         11    1    6    6    0    0  0.82144630358E+02 -0.25779787803E+02 -0.62687060354E+02  0.10649885113E+03  0.00000000000E+00 0. -1.
        -12    1    6    6    0    0  0.13072202080E+02 -0.11363392806E+02  0.23573476755E+02  0.29252657479E+02  0.00000000000E+00 0.  1.
</event>
<event>
12    1  0.1681255E-001  0.2115865E+03  0.7818608E-02  0.1141434E+00
         21   -1    0    0  501  502  0.00000000000E+00  0.00000000000E+00  0.69929725779E+02  0.69929725779E+02  0.00000000000E+00 0.  1.
         21   -1    0    0  502  503 -0.00000000000E+00 -0.00000000000E+00 -0.67514971968E+03  0.67514971968E+03  0.00000000000E+00 0.  1.
         -6    2    1    2    0  503 -0.71690050622E+02  0.86420709082E+02 -0.20314435239E+03  0.29331974860E+03  0.17933444926E+03 0.  0.
        -24    2    3    3    0    0  0.19639197019E+02  0.53084118750E+02 -0.14032802083E+03  0.17747355211E+03  0.92743121277E+02 0.  0.
          6    2    1    2  501    0  0.71690050622E+02 -0.86420709082E+02 -0.40207564151E+03  0.45175969686E+03  0.17266730987E+03 0.  0.
         24    2    5    5    0    0  0.76413918966E+02 -0.11884276055E+03 -0.37623756356E+03  0.40976921430E+03  0.79958839497E+02 0.  0.
          5    1    5    5  501    0 -0.47238683437E+01  0.32422051465E+02 -0.25838077950E+02  0.41990482558E+02  0.47000000000E+01 0. -1.
        -13    1    6    6    0    0  0.41524362199E+02 -0.32060487873E+02 -0.23201599010E+03  0.23787300646E+03  0.00000000000E+00 0.  1.
         14    1    6    6    0    0  0.34889556767E+02 -0.86782272674E+02 -0.14422157346E+03  0.17189620785E+03  0.00000000000E+00 0. -1.
         -5    1    3    3    0  503 -0.91329247641E+02  0.33336590332E+02 -0.62816331558E+02  0.11584619649E+03  0.47000000000E+01 0.  1.
         11    1    4    4    0    0 -0.34258652910E+02  0.99049034527E+01 -0.26876806657E+02  0.44655628399E+02  0.00000000000E+00 0. -1.
        -12    1    4    4    0    0  0.53897849929E+02  0.43179215298E+02 -0.11345121418E+03  0.13281792371E+03  0.00000000000E+00 0.  1.
</event>
<event>
12    1  0.1681255E-001  0.2047587E+03  0.7818608E-02  0.1145974E+00
         21   -1    0    0  501  502  0.00000000000E+00  0.00000000000E+00  0.45654826349E+03  0.45654826349E+03  0.00000000000E+00 0. -1.
         21   -1    0    0  502  503 -0.00000000000E+00 -0.00000000000E+00 -0.91421079092E+02  0.91421079092E+02  0.00000000000E+00 0. -1.
         -6    2    1    2    0  503  0.89514171504E+01 -0.10839376205E+03  0.18205931801E+03  0.27330596483E+03  0.17239843275E+03 0.  0.
        -24    2    3    3    0    0 -0.19858455016E+02 -0.22996058894E+02  0.23427127043E+02  0.90798325399E+02  0.82294159292E+02 0.  0.
          6    2    1    2  501    0 -0.89514171504E+01  0.10839376205E+03  0.18306786639E+03  0.27466337775E+03  0.17348426976E+03 0.  0.
         24    2    5    5    0    0 -0.52511162867E+02  0.83301780116E+01  0.75881079607E+02  0.12162328641E+03  0.78787508294E+02 0.  0.
          5    1    5    5  501    0  0.43559745717E+02  0.10006358404E+03  0.10718678678E+03  0.15304009134E+03  0.47000000000E+01 0. -1.
        -13    1    6    6    0    0  0.19849432141E+02 -0.67176744988E+01  0.19992005208E+02  0.28962171521E+02  0.00000000000E+00 0.  1.
         14    1    6    6    0    0 -0.72360595008E+02  0.15047852510E+02  0.55889074398E+02  0.92661114888E+02  0.00000000000E+00 0. -1.
         -5    1    3    3    0  503  0.28809872167E+02 -0.85397703159E+02  0.15863219097E+03  0.18250763943E+03  0.47000000000E+01 0.  1.
         11    1    4    4    0    0 -0.18706690405E+02 -0.48816760437E+02  0.34546486132E+02  0.62661599641E+02  0.00000000000E+00 0. -1.
        -12    1    4    4    0    0 -0.11517646119E+01  0.25820701542E+02 -0.11119359089E+02  0.28136725759E+02  0.00000000000E+00 0.  1.
</event>
<event>
12    1  0.1681255E-001  0.1937087E+03  0.7818608E-02  0.1155985E+00
         21   -1    0    0  503  502  0.00000000000E+00  0.00000000000E+00  0.15668935752E+03  0.15668935752E+03  0.00000000000E+00 0.  1.
         21   -1    0    0  501  503 -0.00000000000E+00 -0.00000000000E+00 -0.44857069628E+03  0.44857069628E+03  0.00000000000E+00 0. -1.
          6    2    1    2  501    0 -0.36642508291E+02  0.75762985470E+02 -0.35554703093E+03  0.40489104632E+03  0.17447167336E+03 0.  0.
         24    2    3    3    0    0  0.51135000921E+01  0.91898727495E+02 -0.32956666630E+03  0.35291994134E+03  0.86410493916E+02 0.  0.
         -6    2    1    2    0  502  0.36642508291E+02 -0.75762985470E+02  0.63665692169E+02  0.20036900748E+03  0.17032825783E+03 0.  0.
        -24    2    5    5    0    0  0.67742211977E+02 -0.83751093133E+01  0.46690183770E+01  0.10544264159E+03  0.80232170560E+02 0.  0.
          5    1    3    3  501    0 -0.41756008383E+02 -0.16135742025E+02 -0.25980364625E+02  0.51971104980E+02  0.47000000000E+01 0. -1.
        -13    1    4    4    0    0 -0.58391026401E+01  0.27763531687E+00  0.38307108292E+01  0.69890304383E+01  0.00000000000E+00 0.  1.
         14    1    4    4    0    0  0.10952602732E+02  0.91621092178E+02 -0.33339737713E+03  0.34593091090E+03  0.00000000000E+00 0. -1.
         -5    1    5    5    0  502 -0.31099703686E+02 -0.67387876157E+02  0.58996673792E+02  0.94926365888E+02  0.47000000000E+01 0.  1.
         11    1    6    6    0    0 -0.14591378683E+02 -0.15645778123E+02 -0.57015167208E+01  0.22140596150E+02  0.00000000000E+00 0. -1.
        -12    1    6    6    0    0  0.82333590659E+02  0.72706688101E+01  0.10370535098E+02  0.83302045437E+02  0.00000000000E+00 0.  1.
</event>
<event>
12    1  0.1681255E-001  0.1957094E+03  0.7818608E-02  0.1153464E+00
         21   -1    0    0  503  502  0.00000000000E+00  0.00000000000E+00  0.17768153857E+02  0.17768153857E+02  0.00000000000E+00 0. -1.
         21   -1    0    0  501  503 -0.00000000000E+00 -0.00000000000E+00 -0.21963280297E+04  0.21963280297E+04  0.00000000000E+00 0. -1.
          6    2    1    2  501    0 -0.17622480644E+02 -0.88964801970E+02 -0.93439642494E+03  0.95467211167E+03  0.17342685508E+03 0.  0.
         24    2    3    3    0    0 -0.25705253711E+01 -0.20127037634E+02 -0.78669469827E+03  0.79095562131E+03  0.79438915876E+02 0.  0.
         -6    2    1    2    0  502  0.17622480644E+02  0.88964801970E+02 -0.12441634509E+04  0.12594240719E+04  0.17315025975E+03 0.  0.
        -24    2    5    5    0    0  0.15555377967E+02 -0.86408252486E+01 -0.82887805144E+03  0.83279169572E+03  0.78654628989E+02 0.  0.
          5    1    3    3  501    0 -0.15051955273E+02 -0.68837764336E+02 -0.14770172667E+03  0.16371649036E+03  0.47000000000E+01 0. -1.
        -11    1    4    4    0    0  0.20999600717E+02 -0.43473598205E+02 -0.50963256794E+03  0.51191433978E+03  0.00000000000E+00 0.  1.
         12    1    4    4    0    0 -0.23570126088E+02  0.23346560572E+02 -0.27706213033E+03  0.27904128153E+03  0.00000000000E+00 0. -1.
         -5    1    5    5    0  502  0.20671026769E+01  0.97605627219E+02 -0.41528539951E+03  0.42663237620E+03  0.47000000000E+01 0.  1.
         13    1    6    6    0    0  0.80658920540E+01  0.28267814238E+02 -0.14904135145E+03  0.15191264720E+03  0.00000000000E+00 0. -1.
        -14    1    6    6    0    0  0.74894859130E+01 -0.36908639487E+02 -0.67983669998E+03  0.68087904852E+03  0.00000000000E+00 0.  1.
</event>
<event>
12    1  0.1681255E-001  0.1991275E+03  0.7818608E-02  0.1150516E+00
         21   -1    0    0  501  502  0.00000000000E+00  0.00000000000E+00  0.31680410441E+03  0.31680410441E+03  0.00000000000E+00 0.  1.
         21   -1    0    0  502  503 -0.00000000000E+00 -0.00000000000E+00 -0.26534609139E+03  0.26534609139E+03  0.00000000000E+00 0.  1.
         -6    2    1    2    0  503 -0.50821999560E+02 -0.87856088400E+02 -0.18593056907E+03  0.27230327922E+03  0.17110619933E+03 0.  0.
        -24    2    3    3    0    0 -0.86321514413E+02 -0.14805619416E+02 -0.79379990647E+02  0.13824470122E+03  0.71692428350E+02 0.  0.
          6    2    1    2  501    0  0.50821999560E+02  0.87856088400E+02  0.23738858209E+03  0.30984691658E+03  0.17131901500E+03 0.  0.
         24    2    5    5    0    0 -0.75840618822E+00 -0.15419320906E+01  0.45969474152E+02  0.92324712638E+02  0.80048155977E+02 0.  0.
          5    1    5    5  501    0  0.51580405748E+02  0.89398020490E+02  0.19141910794E+03  0.21752220394E+03  0.47000000000E+01 0. -1.
        -11    1    6    6    0    0  0.22361965844E+02  0.26714222984E+02  0.43500596940E+02  0.55731581354E+02  0.00000000000E+00 0.  1.
         12    1    6    6    0    0 -0.23120372032E+02 -0.28256155075E+02  0.24688772121E+01  0.36593131284E+02  0.00000000000E+00 0. -1.
         -5    1    3    3    0  503  0.35499514853E+02 -0.73050468983E+02 -0.10655057842E+03  0.13405857800E+03  0.47000000000E+01 0.  1.
         11    1    4    4    0    0 -0.29195449622E+02 -0.35572748435E+02 -0.12120744219E+02  0.47588939369E+02  0.00000000000E+00 0. -1.
        -12    1    4    4    0    0 -0.57126064791E+02  0.20767129019E+02 -0.67259246428E+02  0.90655761848E+02  0.00000000000E+00 0.  1.
</event>
<event>
12    1  0.1681255E-001  0.1858886E+03  0.7818608E-02  0.1162724E+00
         21   -1    0    0  503  502  0.00000000000E+00  0.00000000000E+00  0.25708923072E+03  0.25708923072E+03  0.00000000000E+00 0. -1.
         21   -1    0    0  501  503 -0.00000000000E+00 -0.00000000000E+00 -0.15625210493E+03  0.15625210493E+03  0.00000000000E+00 0.  1.
          6    2    1    2  501    0  0.69732667496E+02  0.15827395871E+01 -0.29298772998E+02  0.18818343968E+03  0.17230623579E+03 0.  0.
         24    2    3    3    0    0  0.58682939274E+02 -0.61986579168E+02 -0.17495860769E+02  0.12242210212E+03  0.85994433454E+02 0.  0.
         -6    2    1    2    0  502 -0.69732667496E+02 -0.15827395871E+01  0.13013589879E+03  0.22515789597E+03  0.16998698768E+03 0.  0.
        -24    2    5    5    0    0 -0.30559454191E+02  0.55750703509E+02  0.11769207642E+03  0.15445709645E+03  0.77224015747E+02 0.  0.
          5    1    3    3  501    0  0.11049728222E+02  0.63569318755E+02 -0.11802912229E+02  0.65761337561E+02  0.47000000000E+01 0. -1.
        -11    1    4    4    0    0  0.32584485016E+02  0.15431983050E+02 -0.18906773048E+02  0.40710696773E+02  0.00000000000E+00 0.  1.
         12    1    4    4    0    0  0.26098454257E+02 -0.77418562218E+02  0.14109122793E+01  0.81711405348E+02  0.00000000000E+00 0. -1.
         -5    1    5    5    0  502 -0.39173213305E+02 -0.57333443096E+02  0.12443822370E+02  0.70700799522E+02  0.47000000000E+01 0.  1.
         11    1    6    6    0    0  0.24817611697E+02  0.13843656669E+02  0.20660685268E+02  0.35134379119E+02  0.00000000000E+00 0. -1.
        -12    1    6    6    0    0 -0.55377065888E+02  0.41907046840E+02  0.97031391153E+02  0.11932271733E+03  0.00000000000E+00 0.  1.
</event>
<event>
12    1  0.1681255E-001  0.2311221E+03  0.7818608E-02  0.1126051E+00
         21   -1    0    0  503  502  0.00000000000E+00  0.00000000000E+00  0.23710163169E+03  0.23710163169E+03  0.00000000000E+00 0.  1.
         21   -1    0    0  501  503 -0.00000000000E+00 -0.00000000000E+00 -0.44418159948E+03  0.44418159948E+03  0.00000000000E+00 0. -1.
          6    2    1    2  501    0 -0.75175043984E+02 -0.13459243818E+03 -0.34339793724E+03  0.41393183669E+03  0.17219468769E+03 0.  0.
         24    2    3    3    0    0  0.18221262476E+01 -0.12078068838E+03 -0.26826688642E+03  0.30536806072E+03  0.81799971419E+02 0.  0.
         -6    2    1    2    0  502  0.75175043984E+02  0.13459243818E+03  0.13631796945E+03  0.26735139447E+03  0.17066859019E+03 0.  0.
        -24    2    5    5    0    0  0.11423366285E+03  0.12862977857E+03  0.10780903494E+03  0.21840266248E+03  0.80510777545E+02 0.  0.
          5    1    3    3  501    0 -0.76997170232E+02 -0.13811749799E+02 -0.75131050822E+02  0.10856377597E+03  0.47000000000E+01 0. -1.
        -11    1    4    4    0    0  0.15279089652E+02 -0.12866355516E+02 -0.50985713248E+01  0.20615264112E+02  0.00000000000E+00 0.  1.
         12    1    4    4    0    0 -0.13456963404E+02 -0.10791433287E+03 -0.26316831510E+03  0.28475279660E+03  0.00000000000E+00 0. -1.
         -5    1    5    5    0  502 -0.39058618861E+02  0.59626596130E+01  0.28508934519E+02  0.48948732000E+02  0.47000000000E+01 0.  1.
         13    1    6    6    0    0  0.86546585896E+02  0.62784677779E+02  0.26464751507E+02  0.11014812920E+03  0.00000000000E+00 0. -1.
        -14    1    6    6    0    0  0.27687076949E+02  0.65845100789E+02  0.81344283429E+02  0.10825453327E+03  0.00000000000E+00 0.  1.
</event>
<event>
12    1  0.1681255E-001  0.1795645E+03  0.7818608E-02  0.1170492E+00
         21   -1    0    0  501  502  0.00000000000E+00  0.00000000000E+00  0.15590767014E+03  0.15590767014E+03  0.00000000000E+00 0.  1.
         21   -1    0    0  502  503 -0.00000000000E+00 -0.00000000000E+00 -0.19858773603E+03  0.19858773603E+03  0.00000000000E+00 0.  1.
         -6    2    1    2    0  503 -0.27907284419E+02 -0.26946940322E+02 -0.36490116780E+01  0.17960155804E+03  0.17532384392E+03 0.  0.
        -24    2    3    3    0    0  0.23944611874E+02 -0.31239533815E+02 -0.56966585681E+02  0.10495640276E+03  0.78875862506E+02 0.  0.
          6    2    1    2  501    0  0.27907284419E+02  0.26946940322E+02 -0.39031054210E+02  0.17489384813E+03  0.16601048402E+03 0.  0.
         24    2    5    5    0    0 -0.37828972883E+02  0.14356451037E+02 -0.56169251766E+02  0.10564369463E+03  0.79802672235E+02 0.  0.
          5    1    5    5  501    0  0.65736257302E+02  0.12590489285E+02  0.17138197557E+02  0.69250153502E+02  0.47000000000E+01 0. -1.
        -11    1    6    6    0    0  0.20076843663E+01  0.23905136285E+02  0.11451440837E+02  0.26582359462E+02  0.00000000000E+00 0.  1.
         12    1    6    6    0    0 -0.39836657249E+02 -0.95486852480E+01 -0.67620692603E+02  0.79061335170E+02  0.00000000000E+00 0. -1.
         -5    1    3    3    0  503 -0.51851896293E+02  0.42925934930E+01  0.53317574003E+02  0.74645155272E+02  0.47000000000E+01 0.  1.
         13    1    4    4    0    0 -0.12459807218E+02  0.57664228254E+01 -0.50868499583E+02  0.52688733881E+02  0.00000000000E+00 0. -1.
        -14    1    4    4    0    0  0.36404419092E+02 -0.37005956641E+02 -0.60980860973E+01  0.52267668883E+02  0.00000000000E+00 0.  1.
</event>
<event>
12    1  0.1681255E-001  0.1882346E+03  0.7818608E-02  0.1160360E+00
         21   -1    0    0  503  502  0.00000000000E+00  0.00000000000E+00  0.12160294884E+03  0.12160294884E+03  0.00000000000E+00 0. -1.
         21   -1    0    0  501  503 -0.00000000000E+00 -0.00000000000E+00 -0.61778818513E+03  0.61778818513E+03  0.00000000000E+00 0. -1.
          6    2    1    2  501    0 -0.38778055799E+02 -0.53608215277E+02 -0.51803965224E+03  0.55117813254E+03  0.17622336434E+03 0.  0.
         24    2    3    3    0    0 -0.43508715737E+02  0.36391344325E+02 -0.24382432506E+03  0.26249416081E+03  0.78965465128E+02 0.  0.
         -6    2    1    2    0  502  0.38778055799E+02  0.53608215277E+02  0.21854415951E+02  0.18821300143E+03  0.17483975536E+03 0.  0.
        -24    2    5    5    0    0  0.37012328640E+02 -0.23953359529E+02  0.56763708855E+02  0.10300933713E+03  0.73791117274E+02 0.  0.
          5    1    3    3  501    0  0.47306599377E+01 -0.89999559602E+02 -0.27421532718E+03  0.28868397173E+03  0.47000000000E+01 0. -1.
        -13    1    4    4    0    0 -0.21446553836E+02 -0.24434669412E+02 -0.83395430166E+02  0.89508689597E+02  0.00000000000E+00 0.  1.
         14    1    4    4    0    0 -0.22062161901E+02  0.60826013737E+02 -0.16042889489E+03  0.17298547121E+03  0.00000000000E+00 0. -1.
         -5    1    5    5    0  502  0.17657271594E+01  0.77561574806E+02 -0.34909292905E+02  0.85203664299E+02  0.47000000000E+01 0.  1.
         13    1    6    6    0    0 -0.65002653811E+01  0.15755994031E+02 -0.48952774505E+01  0.17733260818E+02  0.00000000000E+00 0. -1.
        -14    1    6    6    0    0  0.43512594021E+02 -0.39709353560E+02  0.61658986306E+02  0.85276076310E+02  0.00000000000E+00 0.  1.
</event>
<event>
12    1  0.1681255E-001  0.2806414E+03  0.7818608E-02  0.1095360E+00
         21   -1    0    0  503  502  0.00000000000E+00  0.00000000000E+00  0.15238856751E+04  0.15238856751E+04  0.00000000000E+00 0. -1.
         21   -1    0    0  501  503 -0.00000000000E+00 -0.00000000000E+00 -0.81307486987E+02  0.81307486987E+02  0.00000000000E+00 0.  1.
          6    2    1    2  501    0 -0.76344024367E+02  0.20841657911E+03  0.23672607350E+03  0.36714962589E+03  0.17173739667E+03 0.  0.
         24    2    3    3    0    0 -0.63732749725E+02  0.15804289435E+03  0.84832261928E+02  0.20655581419E+03  0.80183364042E+02 0.  0.
         -6    2    1    2    0  502  0.76344024367E+02 -0.20841657911E+03  0.12058521146E+04  0.12380435362E+04  0.17148351144E+03 0.  0.
        -24    2    5    5    0    0  0.70360553633E+02 -0.14752881223E+03  0.11054585873E+04  0.11203826999E+04  0.80643338267E+02 0.  0.
          5    1    3    3  501    0 -0.12611274642E+02  0.50373684759E+02  0.15189381157E+03  0.16059381170E+03  0.47000000000E+01 0. -1.
        -11    1    4    4    0    0 -0.40983623056E+02  0.15933019683E+03  0.67061627933E+02  0.17765987426E+03  0.00000000000E+00 0.  1.
         12    1    4    4    0    0 -0.22749126669E+02 -0.12873024794E+01  0.17770633995E+02  0.28895939930E+02  0.00000000000E+00 0. -1.
         -5    1    5    5    0  502  0.59834707336E+01 -0.60887766875E+02  0.10039352733E+03  0.11766083633E+03  0.47000000000E+01 0.  1.
         11    1    6    6    0    0  0.59491055359E+02 -0.14588683700E+03  0.10904833810E+04  0.11018058627E+04  0.00000000000E+00 0. -1.
        -12    1    6    6    0    0  0.10869498274E+02 -0.16419752269E+01  0.14975206318E+02  0.18576837181E+02  0.00000000000E+00 0.  1.
</event>
<event>
12    1  0.1681255E-001  0.2033175E+03  0.7818608E-02  0.1147105E+00
         21   -1    0    0  501  502  0.00000000000E+00  0.00000000000E+00  0.65594933721E+02  0.65594933721E+02  0.00000000000E+00 0. -1.
         21   -1    0    0  502  503 -0.00000000000E+00 -0.00000000000E+00 -0.68158080697E+03  0.68158080697E+03  0.00000000000E+00 0. -1.
         -6    2    1    2    0  503  0.27112907407E+02 -0.10426002002E+03 -0.41302747847E+03  0.46035822432E+03  0.17243182771E+03 0.  0.
        -24    2    3    3    0    0  0.59660855097E+02 -0.36063555059E+02 -0.13233658371E+03  0.16963568455E+03  0.80020600159E+02 0.  0.
          6    2    1    2  501    0 -0.27112907407E+02  0.10426002002E+03 -0.20295839478E+03  0.28681751637E+03  0.17165930258E+03 0.  0.
         24    2    5    5    0    0 -0.34814458563E+02  0.14085442775E+03 -0.16801005748E+03  0.23541770268E+03  0.78371544429E+02 0.  0.
          5    1    5    5  501    0  0.77015511564E+01 -0.36594407737E+02 -0.34948337301E+02  0.51399813696E+02  0.47000000000E+01 0. -1.
        -13    1    6    6    0    0  0.72980426862E+01  0.32219073060E+02 -0.88221867200E+02  0.94204182222E+02  0.00000000000E+00 0.  1.
         14    1    6    6    0    0 -0.42112501250E+02  0.10863535469E+03 -0.79788190279E+02  0.14121352045E+03  0.00000000000E+00 0. -1.
         -5    1    3    3    0  503 -0.32547947690E+02 -0.68196464958E+02 -0.28069089476E+03  0.29072253977E+03  0.47000000000E+01 0.  1.
         11    1    4    4    0    0  0.43386159770E+02 -0.54116477573E+02 -0.54854106223E+02  0.88430339669E+02  0.00000000000E+00 0. -1.
        -12    1    4    4    0    0  0.16274695327E+02  0.18052922514E+02 -0.77482477492E+02  0.81205344883E+02  0.00000000000E+00 0.  1.
</event>
<event>
12    1  0.1681255E-001  0.2051891E+03  0.7818608E-02  0.1145441E+00
         21   -1    0    0  501  502  0.00000000000E+00  0.00000000000E+00  0.95555045022E+02  0.95555045022E+02  0.00000000000E+00 0. -1.
         21   -1    0    0  502  503 -0.00000000000E+00 -0.00000000000E+00 -0.50883756593E+03  0.50883756593E+03  0.00000000000E+00 0. -1.
         -6    2    1    2    0  503  0.10821516412E+03  0.30026968919E+02 -0.31734588426E+03  0.37788342321E+03  0.17168381016E+03 0.  0.
        -24    2    3    3    0    0  0.11769496104E+03  0.25026295473E+02 -0.33040148801E+03  0.36035025254E+03  0.78795570353E+02 0.  0.
          6    2    1    2  501    0 -0.10821516412E+03 -0.30026968919E+02 -0.95936636648E+02  0.22650918774E+03  0.17172778829E+03 0.  0.
         24    2    5    5    0    0  0.11753494259E+02 -0.24310753335E+02 -0.38271328928E+02  0.93195528167E+02  0.80570183675E+02 0.  0.
          5    1    5    5  501    0 -0.11996865838E+03 -0.57162155840E+01 -0.57665307720E+02  0.13331365957E+03  0.47000000000E+01 0. -1.
        -13    1    6    6    0    0  0.31164237011E+02  0.78375195256E+01  0.84745447566E+01  0.33233331004E+02  0.00000000000E+00 0.  1.
         14    1    6    6    0    0 -0.19410742752E+02 -0.32148272861E+02 -0.46745873684E+02  0.59962197163E+02  0.00000000000E+00 0. -1.
         -5    1    3    3    0  503 -0.94797969134E+01  0.50006734461E+01  0.13055603752E+02  0.17533170670E+02  0.47000000000E+01 0.  1.
         11    1    4    4    0    0  0.59749403690E+02 -0.14103835870E+00 -0.25535942513E+03  0.26225645299E+03  0.00000000000E+00 0. -1.
        -12    1    4    4    0    0  0.57945557346E+02  0.25167333832E+02 -0.75042062881E+02  0.98093799548E+02  0.00000000000E+00 0.  1.
</event>
<event>
12    1  0.1681255E-001  0.1784070E+03  0.7818608E-02  0.1169558E+00
         21   -1    0    0  501  502  0.00000000000E+00  0.00000000000E+00  0.78162344566E+03  0.78162344566E+03  0.00000000000E+00 0.  1.
         21   -1    0    0  502  503 -0.00000000000E+00 -0.00000000000E+00 -0.40636283188E+02  0.40636283188E+02  0.00000000000E+00 0.  1.
         -6    2    1    2    0  503 -0.46100623439E+02 -0.80259266664E+01  0.35048497123E+03  0.39327949986E+03  0.17216087525E+03 0.  0.
        -24    2    3    3    0    0 -0.13836603821E+02 -0.52129565335E+02  0.10724881491E+03  0.14393633142E+03  0.79412946136E+02 0.  0.
          6    2    1    2  501    0  0.46100623439E+02  0.80259266664E+01  0.39050219124E+03  0.42898022899E+03  0.17129621281E+03 0.  0.
         24    2    5    5    0    0  0.36231901207E+02  0.38113910089E+02  0.96242400704E+02  0.13298429532E+03  0.75211716516E+02 0.  0.
          5    1    5    5  501    0  0.98687222316E+01 -0.30087983423E+02  0.29425979053E+03  0.29599593367E+03  0.47000000000E+01 0. -1.
        -11    1    6    6    0    0  0.79284611096E+01 -0.18973392993E+02  0.41187591823E+01  0.20971750390E+02  0.00000000000E+00 0.  1.
         12    1    6    6    0    0  0.28303440097E+02  0.57087303082E+02  0.92123641522E+02  0.11201254493E+03  0.00000000000E+00 0. -1.
         -5    1    3    3    0  503 -0.32264019618E+02  0.44103638669E+02  0.24323615632E+03  0.24934316844E+03  0.47000000000E+01 0.  1.
         11    1    4    4    0    0  0.71348991419E+01 -0.19333423775E+02 -0.81404796441E+01  0.22157514966E+02  0.00000000000E+00 0. -1.
        -12    1    4    4    0    0 -0.20971502962E+02 -0.32796141560E+02  0.11538929456E+03  0.12177881645E+03  0.00000000000E+00 0.  1.
</event>
<event>
12    1  0.1681255E-001  0.2036867E+03  0.7818608E-02  0.1148025E+00
         21   -1    0    0  501  502  0.00000000000E+00  0.00000000000E+00  0.11309161529E+03  0.11309161529E+03  0.00000000000E+00 0.  1.
         21   -1    0    0  502  503 -0.00000000000E+00 -0.00000000000E+00 -0.38255729097E+03  0.38255729097E+03  0.00000000000E+00 0. -1.
         -6    2    1    2    0  503  0.46562775800E+01  0.10882625808E+03 -0.70566517817E+02  0.21556412082E+03  0.17211455888E+03 0.  0.
        -24    2    3    3    0    0  0.94840507529E+01 -0.14379720827E+02 -0.31688738435E+02  0.86194138361E+02  0.78284926739E+02 0.  0.
          6    2    1    2  501    0 -0.46562775800E+01 -0.10882625808E+03 -0.19889915786E+03  0.28008478544E+03  0.16438301819E+03 0.  0.
         24    2    5    5    0    0 -0.54675875840E+02 -0.39052267234E+02 -0.14540729984E+03  0.17882354467E+03  0.79498718891E+02 0.  0.
          5    1    5    5  501    0  0.50019598260E+02 -0.69773990844E+02 -0.53491858018E+02  0.10126124077E+03  0.47000000000E+01 0. -1.
        -11    1    6    6    0    0 -0.55872594615E+02 -0.25913039937E+02 -0.41927449116E+02  0.74505996115E+02  0.00000000000E+00 0.  1.
         12    1    6    6    0    0  0.11967187750E+01 -0.13139227298E+02 -0.10347985072E+03  0.10431754855E+03  0.00000000000E+00 0. -1.
         -5    1    3    3    0  503 -0.48277731729E+01  0.12320597891E+03 -0.38877779382E+02  0.12936998246E+03  0.47000000000E+01 0.  1.
         11    1    4    4    0    0  0.29198720357E+02 -0.16174835687E+02 -0.49407584035E+02  0.59626335961E+02  0.00000000000E+00 0. -1.
        -12    1    4    4    0    0 -0.19714669604E+02  0.17951148606E+01  0.17718845600E+02  0.26567802400E+02  0.00000000000E+00 0.  1.
</event>
<event>
12    1  0.1681255E-001  0.2013426E+03  0.7818608E-02  0.1148808E+00
         21   -1    0    0  503  502  0.00000000000E+00  0.00000000000E+00  0.97194094053E+02  0.97194094053E+02  0.00000000000E+00 0.  1.
         21   -1    0    0  501  503 -0.00000000000E+00 -0.00000000000E+00 -0.56337846741E+03  0.56337846741E+03  0.00000000000E+00 0.  1.
          6    2    1    2  501    0 -0.85951172720E+02 -0.57752767493E+02 -0.64076969691E+02  0.21129296598E+03  0.17267273433E+03 0.  0.
         24    2    3    3    0    0 -0.42775118621E+02 -0.96598591907E+02 -0.74721022711E+02  0.15205990437E+03  0.79862284916E+02 0.  0.
         -6    2    1    2    0  502  0.85951172720E+02  0.57752767493E+02 -0.40210740367E+03  0.44927959549E+03  0.17157740117E+03 0.  0.
        -24    2    5    5    0    0  0.97244452066E+02  0.38975926992E+02 -0.40484998553E+03  0.42670262375E+03  0.84829310917E+02 0.  0.
          5    1    3    3  501    0 -0.43176054099E+02  0.38845824414E+02  0.10644053020E+02  0.59233061602E+02  0.47000000000E+01 0. -1.
        -11    1    4    4    0    0 -0.36702275768E+02 -0.44232331828E+02 -0.80623093956E+02  0.99013329933E+02  0.00000000000E+00 0.  1.
         12    1    4    4    0    0 -0.60728428530E+01 -0.52366260079E+02  0.59020712446E+01  0.53046574442E+02  0.00000000000E+00 0. -1.
         -5    1    5    5    0  502 -0.11293279346E+02  0.18776840501E+02  0.27425818610E+01  0.22576971738E+02  0.47000000000E+01 0.  1.
         13    1    6    6    0    0  0.25387859674E+02 -0.26915944491E+02 -0.12466989021E+03  0.13004458086E+03  0.00000000000E+00 0. -1.
        -14    1    6    6    0    0  0.71856592392E+02  0.65891871482E+02 -0.28018009532E+03  0.29665804289E+03  0.00000000000E+00 0.  1.
</event>
<event>
12    1  0.1681255E-001  0.1793998E+03  0.7818608E-02  0.1168687E+00
         21   -1    0    0  503  502  0.00000000000E+00  0.00000000000E+00  0.11081060982E+03  0.11081060982E+03  0.00000000000E+00 0. -1.
         21   -1    0    0  501  503 -0.00000000000E+00 -0.00000000000E+00 -0.53097811787E+03  0.53097811787E+03  0.00000000000E+00 0. -1.
          6    2    1    2  501    0  0.33034641205E+02  0.32268371426E+02 -0.42656321101E+03  0.46227499847E+03  0.17207401288E+03 0.  0.
         24    2    3    3    0    0 -0.52428927807E+01 -0.14602392245E+02 -0.37458528668E+03  0.38236359307E+03  0.75146939553E+02 0.  0.
         -6    2    1    2    0  502 -0.33034641205E+02 -0.32268371426E+02  0.63957029538E+01  0.17951372923E+03  0.17335437304E+03 0.  0.
        -24    2    5    5    0    0  0.28354613130E+02 -0.63722477071E+02 -0.12190353731E+02  0.10792090268E+03  0.81448010058E+02 0.  0.
          5    1    3    3  501    0  0.38277533985E+02  0.46870763671E+02 -0.51977924328E+02  0.79911405397E+02  0.47000000000E+01 0. -1.
        -11    1    4    4    0    0 -0.39694214326E+02 -0.65838811898E+01 -0.16646626896E+03  0.17126002699E+03  0.00000000000E+00 0.  1.
         12    1    4    4    0    0  0.34451321545E+02 -0.80185110550E+01 -0.20811901772E+03  0.21110356608E+03  0.00000000000E+00 0. -1.
         -5    1    5    5    0  502 -0.61389254335E+02  0.31454105645E+02  0.18586056685E+02  0.71592826546E+02  0.47000000000E+01 0.  1.
         13    1    6    6    0    0 -0.23764536125E+02 -0.30977926481E+02  0.13375453020E+02  0.41270908032E+02  0.00000000000E+00 0. -1.
        -14    1    6    6    0    0  0.52119149255E+02 -0.32744550590E+02 -0.25565806751E+02  0.66649994653E+02  0.00000000000E+00 0.  1.
</event>
<event>
12    1  0.1681255E-001  0.1804315E+03  0.7818608E-02  0.1167566E+00
         21   -1    0    0  503  502  0.00000000000E+00  0.00000000000E+00  0.12553304291E+03  0.12553304291E+03  0.00000000000E+00 0.  1.
         21   -1    0    0  501  503 -0.00000000000E+00 -0.00000000000E+00 -0.34579875143E+03  0.34579875143E+03  0.00000000000E+00 0. -1.
          6    2    1    2  501    0  0.33153503387E+02  0.40272948105E+02 -0.22886994543E+03  0.29143946249E+03  0.17272649838E+03 0.  0.
         24    2    3    3    0    0 -0.31519259420E+02  0.21309338934E+02 -0.15917642536E+03  0.19437524941E+03  0.10486682770E+03 0.  0.
         -6    2    1    2    0  502 -0.33153503387E+02 -0.40272948105E+02  0.86042369128E+01  0.17989233185E+03  0.17194811144E+03 0.  0.
        -24    2    5    5    0    0  0.53186630320E+01  0.40411444671E+02  0.10852624347E+02  0.90353379026E+02  0.79903570692E+02 0.  0.
          5    1    3    3  501    0  0.64672762807E+02  0.18963609171E+02 -0.69693520065E+02  0.97064213080E+02  0.47000000000E+01 0. -1.
        -11    1    4    4    0    0  0.26386004065E+02 -0.87929569048E+01 -0.68302716407E+01  0.28638957948E+02  0.00000000000E+00 0.  1.
         12    1    4    4    0    0 -0.57905263485E+02  0.30102295839E+02 -0.15234615372E+03  0.16573629146E+03  0.00000000000E+00 0. -1.
         -5    1    5    5    0  502 -0.38472166419E+02 -0.80684392776E+02 -0.22483874342E+01  0.89538952823E+02  0.47000000000E+01 0.  1.
         11    1    6    6    0    0  0.12124489766E+02  0.46539864513E+02 -0.24401169965E+02  0.53929392140E+02  0.00000000000E+00 0. -1.
        -12    1    6    6    0    0 -0.68058267336E+01 -0.61284198420E+01  0.35253794312E+02  0.36423986886E+02  0.00000000000E+00 0.  1.
</event>
<event>
12    1  0.1681255E-001  0.1926437E+03  0.7818608E-02  0.1156270E+00
         21   -1    0    0  501  502  0.00000000000E+00  0.00000000000E+00  0.80676233717E+03  0.80676233717E+03  0.00000000000E+00 0. -1.
         21   -1    0    0  502  503 -0.00000000000E+00 -0.00000000000E+00 -0.58183119596E+02  0.58183119596E+02  0.00000000000E+00 0. -1.
         -6    2    1    2    0  503  0.30696576399E+02  0.79388247279E+02  0.17431530000E+03  0.25923046347E+03  0.17195881997E+03 0.  0.
        -24    2    3    3    0    0  0.55889466978E+02 -0.79897235569E+01  0.68965689899E+02  0.11998168655E+03  0.80323536544E+02 0.  0.
          6    2    1    2  501    0 -0.30696576399E+02 -0.79388247279E+02  0.57426391757E+03  0.60571499330E+03  0.17282023167E+03 0.  0.
         24    2    5    5    0    0  0.28326747992E+02 -0.83815559365E+02  0.26376461235E+03  0.28958960290E+03  0.80392255441E+02 0.  0.
          5    1    5    5  501    0 -0.59023324392E+02  0.44273120859E+01  0.31049930522E+03  0.31612539040E+03  0.47000000000E+01 0. -1.
        -13    1    6    6    0    0  0.52474891052E+02 -0.32923407004E+02  0.11704028805E+03  0.13242354001E+03  0.00000000000E+00 0.  1.
         14    1    6    6    0    0 -0.24148143060E+02 -0.50892152361E+02  0.14672432430E+03  0.15716606289E+03  0.00000000000E+00 0. -1.
         -5    1    3    3    0  503 -0.25192890579E+02  0.87377970836E+02  0.10534961011E+03  0.13924877692E+03  0.47000000000E+01 0.  1.
         11    1    4    4    0    0  0.54902294719E+02  0.11340402606E+02  0.80010959975E+02  0.97696573189E+02  0.00000000000E+00 0. -1.
        -12    1    4    4    0    0  0.98717225946E+00 -0.19330126163E+02 -0.11045270076E+02  0.22285113363E+02  0.00000000000E+00 0.  1.
</event>
<event>
12    1  0.1681255E-001  0.1863071E+03  0.7818608E-02  0.1161936E+00
         21   -1    0    0  501  502  0.00000000000E+00  0.00000000000E+00  0.70327160150E+02  0.70327160150E+02  0.00000000000E+00 0.  1.
         21   -1    0    0  502  503 -0.00000000000E+00 -0.00000000000E+00 -0.86118281509E+03  0.86118281509E+03  0.00000000000E+00 0.  1.
         -6    2    1    2    0  503  0.18216400924E+02  0.70022798052E+02 -0.70047638005E+03  0.72482928381E+03  0.17168372708E+03 0.  0.
        -24    2    3    3    0    0  0.39099354929E+02  0.49206923932E+02 -0.20960469580E+03  0.23305037130E+03  0.80176468771E+02 0.  0.
          6    2    1    2  501    0 -0.18216400924E+02 -0.70022798052E+02 -0.90379274890E+02  0.20668069143E+03  0.17121175594E+03 0.  0.
         24    2    5    5    0    0 -0.60044788760E+02 -0.81083935269E+02 -0.33034429396E+02  0.13469121936E+03  0.82888297304E+02 0.  0.
          5    1    5    5  501    0  0.41828387837E+02  0.11061137217E+02 -0.57344845494E+02  0.71989472080E+02  0.47000000000E+01 0. -1.
        -11    1    6    6    0    0  0.17697194856E+02 -0.19950766803E+02  0.76595449076E+01  0.27746935507E+02  0.00000000000E+00 0.  1.
         12    1    6    6    0    0 -0.77741983616E+02 -0.61133168466E+02 -0.40693974304E+02  0.10694428385E+03  0.00000000000E+00 0. -1.
         -5    1    3    3    0  503 -0.20882954006E+02  0.20815874120E+02 -0.49087168425E+03  0.49177891250E+03  0.47000000000E+01 0.  1.
         13    1    4    4    0    0  0.58617499299E+02  0.17089172970E+02 -0.15652441112E+03  0.16801173272E+03  0.00000000000E+00 0. -1.
        -14    1    4    4    0    0 -0.19518144369E+02  0.32117750962E+02 -0.53080284683E+02  0.65038638581E+02  0.00000000000E+00 0.  1.
</event>
<event>
12    1  0.1681255E-001  0.2744582E+03  0.7818608E-02  0.1099154E+00
         21   -1    0    0  501  502  0.00000000000E+00  0.00000000000E+00  0.43042918685E+03  0.43042918685E+03  0.00000000000E+00 0. -1.
         21   -1    0    0  502  503 -0.00000000000E+00 -0.00000000000E+00 -0.52680664371E+03  0.52680664371E+03  0.00000000000E+00 0. -1.
         -6    2    1    2    0  503 -0.14698234931E+02 -0.21337243092E+03 -0.44039133390E+03  0.51891407102E+03  0.17199841205E+03 0.  0.
        -24    2    3    3    0    0 -0.30612019155E+02 -0.11998036221E+03 -0.13647153844E+03  0.20053590107E+03  0.79106155158E+02 0.  0.
          6    2    1    2  501    0  0.14698234931E+02  0.21337243092E+03  0.34401387704E+03  0.43832175953E+03  0.16744128791E+03 0.  0.
         24    2    5    5    0    0  0.38293313247E+01  0.11260834390E+03  0.91466691606E+02  0.16615691028E+03  0.80911434708E+02 0.  0.
          5    1    5    5  501    0  0.10868903606E+02  0.10076408702E+03  0.25254718543E+03  0.27216484925E+03  0.47000000000E+01 0. -1.
        -13    1    6    6    0    0 -0.51474099292E+01 -0.12342998965E+02  0.10404229052E+02  0.16943831757E+02  0.00000000000E+00 0.  1.
         14    1    6    6    0    0  0.89767412539E+01  0.12495134287E+03  0.81062462554E+02  0.14921307852E+03  0.00000000000E+00 0. -1.
         -5    1    3    3    0  503  0.15913784224E+02 -0.93392068710E+02 -0.30391979546E+03  0.31837816995E+03  0.47000000000E+01 0.  1.
         11    1    4    4    0    0 -0.40253614906E+02 -0.12548708288E+03 -0.10940322112E+03  0.17127879692E+03  0.00000000000E+00 0. -1.
        -12    1    4    4    0    0  0.96415957512E+01  0.55067206696E+01 -0.27068317321E+02  0.29257104158E+02  0.00000000000E+00 0.  1.
</event>
<event>
12    1  0.1681255E-001  0.2077236E+03  0.7818608E-02  0.1144666E+00
         21   -1    0    0  501  502  0.00000000000E+00  0.00000000000E+00  0.63167586618E+02  0.63167586618E+02  0.00000000000E+00 0.  1.
         21   -1    0    0  502  503 -0.00000000000E+00 -0.00000000000E+00 -0.97535201731E+03  0.97535201731E+03  0.00000000000E+00 0.  1.
         -6    2    1    2    0  503  0.58292787247E+02 -0.87597209344E+02 -0.16682181110E+03  0.26641808426E+03  0.17910264887E+03 0.  0.
        -24    2    3    3    0    0  0.95590190783E+02 -0.17986289372E+02 -0.78366420208E+02  0.14774532973E+03  0.78907512068E+02 0.  0.
          6    2    1    2  501    0 -0.58292787247E+02  0.87597209344E+02 -0.74536261959E+03  0.77210151967E+03  0.17176728985E+03 0.  0.
         24    2    5    5    0    0 -0.73402698756E+02  0.11602375836E+03 -0.50948734901E+03  0.53399311708E+03  0.81986715957E+02 0.  0.
          5    1    5    5  501    0  0.15109911509E+02 -0.28426549018E+02 -0.23587527058E+03  0.23810840259E+03  0.47000000000E+01 0. -1.
        -13    1    6    6    0    0 -0.53343933191E+02  0.35410675522E+02 -0.12286656994E+03  0.13854849389E+03  0.00000000000E+00 0.  1.
         14    1    6    6    0    0 -0.20058765565E+02  0.80613082840E+02 -0.38662077907E+03  0.39544462319E+03  0.00000000000E+00 0. -1.
         -5    1    3    3    0  503 -0.37297403536E+02 -0.69610919972E+02 -0.88455390895E+02  0.11867275453E+03  0.47000000000E+01 0.  1.
         13    1    4    4    0    0  0.22205404275E+01 -0.13071727445E+02 -0.47449842000E+02  0.49267518346E+02  0.00000000000E+00 0. -1.
        -14    1    4    4    0    0  0.93369650355E+02 -0.49145619276E+01 -0.30916578209E+02  0.98477811382E+02  0.00000000000E+00 0.  1.
</event>
<event>
12    1  0.1681255E-001  0.2189744E+03  0.7818608E-02  0.1134680E+00
         21   -1    0    0  503  502  0.00000000000E+00  0.00000000000E+00  0.82130145643E+03  0.82130145643E+03  0.00000000000E+00 0.  1.
         21   -1    0    0  501  503 -0.00000000000E+00 -0.00000000000E+00 -0.68107956318E+02  0.68107956318E+02  0.00000000000E+00 0. -1.
          6    2    1    2  501    0 -0.24748096907E+02  0.13372957961E+03  0.20829901620E+03  0.30222222432E+03  0.17162087274E+03 0.  0.
         24    2    3    3    0    0 -0.67248026507E+02  0.13556113684E+03  0.18933405497E+03  0.25541027743E+03  0.80547542187E+02 0.  0.
         -6    2    1    2    0  502  0.24748096907E+02 -0.13372957961E+03  0.54489448391E+03  0.58718718843E+03  0.17141390518E+03 0.  0.
        -24    2    5    5    0    0  0.68372336563E+02 -0.13689633369E+03  0.46100193023E+03  0.49246045946E+03  0.81111909560E+02 0.  0.
          5    1    3    3  501    0  0.42499929600E+02 -0.18315572295E+01  0.18964961227E+02  0.46811946896E+02  0.47000000000E+01 0. -1.
        -11    1    4    4    0    0 -0.23767568972E+02  0.33054798809E+02  0.11379388199E+03  0.12085762135E+03  0.00000000000E+00 0.  1.
         12    1    4    4    0    0 -0.43480457534E+02  0.10250633803E+03  0.75540172982E+02  0.13455265608E+03  0.00000000000E+00 0. -1.
         -5    1    5    5    0  502 -0.43624239656E+02  0.31667540802E+01  0.83892553682E+02  0.94726728964E+02  0.47000000000E+01 0.  1.
         13    1    6    6    0    0  0.64927385425E+02 -0.43754252164E+02  0.17666971003E+03  0.19324126475E+03  0.00000000000E+00 0. -1.
        -14    1    6    6    0    0  0.34449511378E+01 -0.93142081525E+02  0.28433222020E+03  0.29921919471E+03  0.00000000000E+00 0.  1.
</event>
<event>
12    1  0.1681255E-001  0.1828837E+03  0.7818608E-02  0.1165217E+00
         21   -1    0    0  501  502  0.00000000000E+00  0.00000000000E+00  0.66548268688E+02  0.66548268688E+02  0.00000000000E+00 0.  1.
         21   -1    0    0  502  503 -0.00000000000E+00 -0.00000000000E+00 -0.64198477514E+03  0.64198477514E+03  0.00000000000E+00 0.  1.
         -6    2    1    2    0  503  0.47226033284E+02 -0.40309597457E+02 -0.45354355877E+03  0.48875057618E+03  0.17123143446E+03 0.  0.
        -24    2    3    3    0    0  0.33608100005E+02 -0.56128250538E+02 -0.13963781134E+03  0.17411652500E+03  0.80857659052E+02 0.  0.
          6    2    1    2  501    0 -0.47226033284E+02  0.40309597457E+02 -0.12189294767E+03  0.21978246764E+03  0.17202116301E+03 0.  0.
         24    2    5    5    0    0 -0.15801627715E+02 -0.66330218446E+00  0.20848249112E+02  0.67916042683E+02  0.62672226340E+02 0.  0.
          5    1    5    5  501    0 -0.31424405569E+02  0.40972899641E+02 -0.14274119679E+03  0.15186642496E+03  0.47000000000E+01 0. -1.
        -13    1    6    6    0    0 -0.21905692827E+02  0.27867440714E+02  0.10729639092E+02  0.37034832053E+02  0.00000000000E+00 0.  1.
         14    1    6    6    0    0  0.61040651121E+01 -0.28530742898E+02  0.10118610020E+02  0.30881210630E+02  0.00000000000E+00 0. -1.
         -5    1    3    3    0  503  0.13617933279E+02  0.15818653082E+02 -0.31390574743E+03  0.31463405118E+03  0.47000000000E+01 0.  1.
         11    1    4    4    0    0  0.25413429701E+02  0.16497024341E+02 -0.32587663786E+02  0.44496629674E+02  0.00000000000E+00 0. -1.
        -12    1    4    4    0    0  0.81946703038E+01 -0.72625274879E+02 -0.10705014756E+03  0.12961989533E+03  0.00000000000E+00 0.  1.
</event>
<event>
12    1  0.1681255E-001  0.1800353E+03  0.7818608E-02  0.1168498E+00
         21   -1    0    0  501  502  0.00000000000E+00  0.00000000000E+00  0.66534442989E+02  0.66534442989E+02  0.00000000000E+00 0.  1.
         21   -1    0    0  502  503 -0.00000000000E+00 -0.00000000000E+00 -0.64736827895E+03  0.64736827895E+03  0.00000000000E+00 0.  1.
         -6    2    1    2    0  503 -0.61352776784E+01  0.45051841593E+02 -0.11023982940E+03  0.21110545693E+03  0.17419926491E+03 0.  0.
        -24    2    3    3    0    0  0.10519888232E+02  0.96154407185E+02 -0.71963089419E+02  0.14495361958E+03  0.80476875684E+02 0.  0.
          6    2    1    2  501    0  0.61352776784E+01 -0.45051841593E+02 -0.47059400656E+03  0.50279726501E+03  0.17111125219E+03 0.  0.
         24    2    5    5    0    0 -0.10738970117E+02 -0.49094732233E+02 -0.47504812023E+03  0.48427661891E+03  0.79545640231E+02 0.  0.
          5    1    5    5  501    0  0.16874247796E+02  0.40428906395E+01  0.44541136656E+01  0.18520646100E+02  0.47000000000E+01 0. -1.
        -11    1    6    6    0    0  0.22765479648E+02 -0.39236348585E+00 -0.26769954914E+03  0.26866609317E+03  0.00000000000E+00 0.  1.
         12    1    6    6    0    0 -0.33504449766E+02 -0.48702368747E+02 -0.20734857109E+03  0.21561052574E+03  0.00000000000E+00 0. -1.
         -5    1    3    3    0  503 -0.16655165911E+02 -0.51102565592E+02 -0.38276739976E+02  0.66151837350E+02  0.47000000000E+01 0.  1.
         13    1    4    4    0    0 -0.34728650692E+02  0.38250151384E+02 -0.22375384678E+02  0.56301075472E+02  0.00000000000E+00 0. -1.
        -14    1    4    4    0    0  0.45248538924E+02  0.57904255801E+02 -0.49587704741E+02  0.88652544104E+02  0.00000000000E+00 0.  1.
</event>
<event>
12    1  0.1681255E-001  0.1800785E+03  0.7818608E-02  0.1168095E+00
         21   -1    0    0  503  502  0.00000000000E+00  0.00000000000E+00  0.56131048429E+03  0.56131048429E+03  0.00000000000E+00 0. -1.
         21   -1    0    0  501  503 -0.00000000000E+00 -0.00000000000E+00 -0.79066910601E+02  0.79066910601E+02  0.00000000000E+00 0. -1.
          6    2    1    2  501    0  0.42160218778E+02 -0.22154368426E+02  0.72334568614E+02  0.19265689494E+03  0.17209325746E+03 0.  0.
         24    2    3    3    0    0 -0.32519176878E+01 -0.46922274263E+02  0.96671843381E+02  0.13529746467E+03  0.82144286792E+02 0.  0.
         -6    2    1    2    0  502 -0.42160218778E+02  0.22154368426E+02  0.40990900508E+03  0.44772049995E+03  0.17366621303E+03 0.  0.
        -24    2    5    5    0    0 -0.20921618360E+02 -0.41960337863E+02  0.13553545171E+03  0.16511704899E+03  0.81825406370E+02 0.  0.
          5    1    3    3  501    0  0.45412136465E+02  0.24767905836E+02 -0.24337274767E+02  0.57359430271E+02  0.47000000000E+01 0. -1.
        -11    1    4    4    0    0 -0.13801825923E+02  0.19029179082E+02  0.92038870388E+01  0.25245031035E+02  0.00000000000E+00 0.  1.
         12    1    4    4    0    0  0.10549908236E+02 -0.65951453345E+02  0.87467956342E+02  0.11005243363E+03  0.00000000000E+00 0. -1.
         -5    1    5    5    0  502 -0.21238600418E+02  0.64114706289E+02  0.27437355337E+03  0.28260345097E+03  0.47000000000E+01 0.  1.
         11    1    6    6    0    0  0.17476645372E+02  0.15659447753E+02  0.22196617308E+02  0.32300793447E+02  0.00000000000E+00 0. -1.
        -12    1    6    6    0    0 -0.38398263732E+02 -0.57619785616E+02  0.11333883440E+03  0.13281625554E+03  0.00000000000E+00 0.  1.
</event>
<event>
12    1  0.1681255E-001  0.1803148E+03  0.7818608E-02  0.1167649E+00
         21   -1    0    0  503  502  0.00000000000E+00  0.00000000000E+00  0.76944587786E+03  0.76944587786E+03  0.00000000000E+00 0.  1.
         21   -1    0    0  501  503 -0.00000000000E+00 -0.00000000000E+00 -0.45776902925E+02  0.45776902925E+02  0.00000000000E+00 0.  1.
          6    2    1    2  501    0 -0.27865527084E+02 -0.44254351464E+02  0.47662394507E+03  0.50937202138E+03  0.17191432729E+03 0.  0.
         24    2    3    3    0    0  0.50710662545E+02 -0.20740957351E+02  0.18115763286E+03  0.20269706490E+03  0.72568957333E+02 0.  0.
         -6    2    1    2    0  502  0.27865527084E+02  0.44254351464E+02  0.24704502986E+03  0.30585075940E+03  0.17256449526E+03 0.  0.
        -24    2    5    5    0    0  0.77609062452E+02  0.27532184042E+02  0.10050340264E+03  0.15012475418E+03  0.75201862628E+02 0.  0.
          5    1    3    3  501    0 -0.78576189629E+02 -0.23513394113E+02  0.29546631222E+03  0.30667495648E+03  0.47000000000E+01 0. -1.
        -13    1    4    4    0    0  0.34553874893E+02 -0.15906446473E+02  0.24748641371E+02  0.45381500187E+02  0.00000000000E+00 0.  1.
         14    1    4    4    0    0  0.16156787652E+02 -0.48345108775E+01  0.15640899149E+03  0.15731556471E+03  0.00000000000E+00 0. -1.
         -5    1    5    5    0  502 -0.49743535368E+02  0.16722167422E+02  0.14654162722E+03  0.15572600522E+03  0.47000000000E+01 0.  1.
         11    1    6    6    0    0  0.26807625434E+02 -0.24504478797E+02  0.19342581136E+02  0.41149164117E+02  0.00000000000E+00 0. -1.
        -12    1    6    6    0    0  0.50801437018E+02  0.52036662838E+02  0.81160821506E+02  0.10897559006E+03  0.00000000000E+00 0.  1.
</event>
<event>
12    1  0.1681255E-001  0.2162184E+03  0.7818608E-02  0.1136803E+00
         21   -1    0    0  503  502  0.00000000000E+00  0.00000000000E+00  0.61521286327E+02  0.61521286327E+02  0.00000000000E+00 0.  1.
         21   -1    0    0  501  503 -0.00000000000E+00 -0.00000000000E+00 -0.97487647752E+03  0.97487647752E+03  0.00000000000E+00 0.  1.
          6    2    1    2  501    0  0.10431804860E+03  0.79203357641E+02 -0.70103250158E+03  0.73361907569E+03  0.17203183662E+03 0.  0.
         24    2    3    3    0    0  0.13768010342E+03  0.51304580423E+02 -0.46904563829E+03  0.49754416551E+03  0.77190770112E+02 0.  0.
         -6    2    1    2    0  502 -0.10431804860E+03 -0.79203357641E+02 -0.21232268961E+03  0.30277868816E+03  0.17157675354E+03 0.  0.
        -24    2    5    5    0    0 -0.83744213656E+02 -0.13954337709E+02 -0.20765312550E+03  0.23404287424E+03  0.66696548566E+02 0.  0.
          5    1    3    3  501    0 -0.33362054820E+02  0.27898777219E+02 -0.23198686329E+03  0.23607491017E+03  0.47000000000E+01 0. -1.
        -13    1    4    4    0    0  0.70231632430E+02  0.27446825447E+02 -0.35496634435E+03  0.36288691908E+03  0.00000000000E+00 0.  1.
         14    1    4    4    0    0  0.67448470985E+02  0.23857754976E+02 -0.11407929394E+03  0.13465724643E+03  0.00000000000E+00 0. -1.
         -5    1    5    5    0  502 -0.20573834939E+02 -0.65249019932E+02 -0.46695641079E+01  0.68735813919E+02  0.47000000000E+01 0.  1.
         11    1    6    6    0    0 -0.90165256811E+02 -0.15901020604E+02 -0.14811809376E+03  0.17413094410E+03  0.00000000000E+00 0. -1.
        -12    1    6    6    0    0  0.64210431542E+01  0.19466828947E+01 -0.59535031741E+02  0.59911930147E+02  0.00000000000E+00 0.  1.
</event>
<event>
12    1  0.1681255E-001  0.1822009E+03  0.7818608E-02  0.1166685E+00
         21   -1    0    0  503  502  0.00000000000E+00  0.00000000000E+00  0.46256778652E+03  0.46256778652E+03  0.00000000000E+00 0. -1.
         21   -1    0    0  501  503 -0.00000000000E+00 -0.00000000000E+00 -0.70576363414E+02  0.70576363414E+02  0.00000000000E+00 0.  1.
          6    2    1    2  501    0 -0.47916321453E+02 -0.61171222210E+01  0.17752995787E+03  0.25438953768E+03  0.17568084099E+03 0.  0.
         24    2    3    3    0    0  0.10929466382E+02  0.19165527872E+01  0.14588831857E+02  0.80898133779E+02  0.78794337513E+02 0.  0.
         -6    2    1    2    0  502  0.47916321453E+02  0.61171222210E+01  0.21446146523E+03  0.27875461225E+03  0.17139726001E+03 0.  0.
        -24    2    5    5    0    0  0.52940445257E+01  0.38795998257E+02  0.20566248832E+03  0.22412788414E+03  0.80019328658E+02 0.  0.
          5    1    3    3  501    0 -0.58845787835E+02 -0.80336750082E+01  0.16294112601E+03  0.17349140390E+03  0.47000000000E+01 0. -1.
        -11    1    4    4    0    0 -0.80326462352E+01  0.33530555217E+02 -0.10806205862E+02  0.36133026773E+02  0.00000000000E+00 0.  1.
         12    1    4    4    0    0  0.18962112617E+02 -0.31614002429E+02  0.25395037719E+02  0.44765107006E+02  0.00000000000E+00 0. -1.
         -5    1    5    5    0  502  0.42622276927E+02 -0.32678876036E+02  0.87989769094E+01  0.54626728111E+02  0.47000000000E+01 0.  1.
         13    1    6    6    0    0  0.26513358869E+02  0.53851799942E+02  0.11390473839E+03  0.12875272418E+03  0.00000000000E+00 0. -1.
        -14    1    6    6    0    0 -0.21219314343E+02 -0.15055801685E+02  0.91757749935E+02  0.95375159967E+02  0.00000000000E+00 0.  1.
</event>
<event>
12    1  0.1681255E-001  0.1910493E+03  0.7818608E-02  0.1157544E+00
         21   -1    0    0  501  502  0.00000000000E+00  0.00000000000E+00  0.23712544990E+03  0.23712544990E+03  0.00000000000E+00 0.  1.
         21   -1    0    0  502  503 -0.00000000000E+00 -0.00000000000E+00 -0.15895832900E+03  0.15895832900E+03  0.00000000000E+00 0. -1.
         -6    2    1    2    0  503 -0.87492270510E+01 -0.82052479243E+02  0.74626574004E+02  0.20500165989E+03  0.17218419406E+03 0.  0.
        -24    2    3    3    0    0  0.54975937695E+02 -0.35829878446E+02  0.11167500888E+02  0.10377632014E+03  0.79615812694E+02 0.  0.
          6    2    1    2  501    0  0.87492270510E+01  0.82052479243E+02  0.35405468963E+01  0.19108211901E+03  0.17230984421E+03 0.  0.
         24    2    5    5    0    0  0.41051717438E+02  0.76841676742E+02  0.61221424241E+02  0.12460071590E+03  0.64710036537E+02 0.  0.
          5    1    5    5  501    0 -0.32302490387E+02  0.52108025005E+01 -0.57680877345E+02  0.66481403108E+02  0.47000000000E+01 0. -1.
        -13    1    6    6    0    0  0.10770237551E+02  0.13960070047E+02  0.51126485426E+02  0.54081411636E+02  0.00000000000E+00 0.  1.
         14    1    6    6    0    0  0.30281479888E+02  0.62881606695E+02  0.10094938816E+02  0.70519304268E+02  0.00000000000E+00 0. -1.
         -5    1    3    3    0  503 -0.63725164746E+02 -0.46222600797E+02  0.63459073116E+02  0.10122533975E+03  0.47000000000E+01 0.  1.
         11    1    4    4    0    0 -0.14538713233E+02 -0.56787658099E+01 -0.16870450571E+02  0.22983356283E+02  0.00000000000E+00 0. -1.
        -12    1    4    4    0    0  0.69514650927E+02 -0.30151112636E+02  0.28037951459E+02  0.80792963857E+02  0.00000000000E+00 0.  1.
</event>
<event>
12    1  0.1681255E-001  0.1780702E+03  0.7818608E-02  0.1169818E+00
         21   -1    0    0  503  502  0.00000000000E+00  0.00000000000E+00  0.95966358794E+02  0.95966358794E+02  0.00000000000E+00 0. -1.
         21   -1    0    0  501  503 -0.00000000000E+00 -0.00000000000E+00 -0.35570191922E+03  0.35570191922E+03  0.00000000000E+00 0. -1.
          6    2    1    2  501    0 -0.45140536596E+02 -0.11362910823E+02 -0.19108819376E+03  0.26082417940E+03  0.17131191138E+03 0.  0.
         24    2    3    3    0    0 -0.64035486305E+02  0.49001386479E+02 -0.12632437416E+03  0.17017480079E+03  0.80622180165E+02 0.  0.
         -6    2    1    2    0  502  0.45140536596E+02  0.11362910823E+02 -0.68647366663E+02  0.19084409861E+03  0.17187851884E+03 0.  0.
        -24    2    5    5    0    0  0.80698207647E+02 -0.35945008832E+02 -0.44964729154E+02  0.12692739850E+03  0.79274795780E+02 0.  0.
          5    1    3    3  501    0  0.18894949709E+02 -0.60364297302E+02 -0.64763819596E+02  0.90649378608E+02  0.47000000000E+01 0. -1.
        -13    1    4    4    0    0  0.57614252784E+00  0.43942881357E+02 -0.27005695548E+02  0.51581162785E+02  0.00000000000E+00 0.  1.
         14    1    4    4    0    0 -0.64611628833E+02  0.50585051214E+01 -0.99318678614E+02  0.11859363801E+03  0.00000000000E+00 0. -1.
         -5    1    5    5    0  502 -0.35557671051E+02  0.47307919655E+02 -0.23682637510E+02  0.63916700103E+02  0.47000000000E+01 0.  1.
         11    1    6    6    0    0  0.69006934164E+02  0.20706585314E+01 -0.29907633456E+01  0.69102744192E+02  0.00000000000E+00 0. -1.
        -12    1    6    6    0    0  0.11691273483E+02 -0.38015667363E+02 -0.41973965808E+02  0.57824654313E+02  0.00000000000E+00 0.  1.
</event>
<event>
12    1  0.1681255E-001  0.3234554E+03  0.7818608E-02  0.1074115E+00
         21   -1    0    0  501  502  0.00000000000E+00  0.00000000000E+00  0.20183729931E+03  0.20183729931E+03  0.00000000000E+00 0.  1.
         21   -1    0    0  502  503 -0.00000000000E+00 -0.00000000000E+00 -0.10923955108E+04  0.10923955108E+04  0.00000000000E+00 0. -1.
         -6    2    1    2    0  503 -0.28735363103E+02 -0.27265801466E+03 -0.91450711396E+03  0.96989200568E+03  0.17087752092E+03 0.  0.
        -24    2    3    3    0    0  0.27234796482E+01 -0.10135775853E+03 -0.22822408203E+03  0.26183838734E+03  0.78691148866E+02 0.  0.
          6    2    1    2  501    0  0.28735363103E+02  0.27265801466E+03  0.23948902494E+02  0.32434080441E+03  0.17162544516E+03 0.  0.
         24    2    5    5    0    0  0.82307278887E+02  0.21112828952E+03  0.30894157597E+02  0.24232748961E+03  0.80115669206E+02 0.  0.
          5    1    5    5  501    0 -0.53571915785E+02  0.61529725132E+02 -0.69452551026E+01  0.82013314798E+02  0.47000000000E+01 0. -1.
        -11    1    6    6    0    0  0.39766572410E+02  0.26786670708E+02 -0.94941556331E+01  0.48877857973E+02  0.00000000000E+00 0.  1.
         12    1    6    6    0    0  0.42540706478E+02  0.18434161882E+03  0.40388313230E+02  0.19344963164E+03  0.00000000000E+00 0. -1.
         -5    1    3    3    0  503 -0.31458842751E+02 -0.17130025613E+03 -0.68628303193E+03  0.70805361834E+03  0.47000000000E+01 0.  1.
         13    1    4    4    0    0  0.27673690724E+02 -0.74864378922E+02 -0.20136835844E+03  0.21660961237E+03  0.00000000000E+00 0. -1.
        -14    1    4    4    0    0 -0.24950211076E+02 -0.26493379607E+02 -0.26855723593E+02  0.45228774972E+02  0.00000000000E+00 0.  1.
</event>
<event>
12    1  0.1681255E-001  0.1889368E+03  0.7818608E-02  0.1159695E+00
         21   -1    0    0  501  502  0.00000000000E+00  0.00000000000E+00  0.13993876932E+03  0.13993876932E+03  0.00000000000E+00 0.  1.
         21   -1    0    0  502  503 -0.00000000000E+00 -0.00000000000E+00 -0.37690122938E+03  0.37690122938E+03  0.00000000000E+00 0. -1.
         -6    2    1    2    0  503  0.10356891011E+02 -0.77910953023E+02 -0.26660679326E+03  0.32676645244E+03  0.17181312649E+03 0.  0.
        -24    2    3    3    0    0 -0.20264659380E+02 -0.11429709119E+03 -0.18532586878E+03  0.23247801686E+03  0.78904177416E+02 0.  0.
          6    2    1    2  501    0 -0.10356891011E+02  0.77910953023E+02  0.29644333196E+02  0.19007354626E+03  0.17050450054E+03 0.  0.
         24    2    5    5    0    0 -0.37636437375E+02  0.51295371895E+02  0.77024854390E+02  0.12908529659E+03  0.81746369990E+02 0.  0.
          5    1    5    5  501    0  0.27279546364E+02  0.26615581128E+02 -0.47380521195E+02  0.60988249666E+02  0.47000000000E+01 0. -1.
        -11    1    6    6    0    0  0.13172161034E+02  0.50822368880E+02  0.43831819661E+02  0.68393328765E+02  0.00000000000E+00 0.  1.
         12    1    6    6    0    0 -0.50808598410E+02  0.47300301514E+00  0.33193034730E+02  0.60691967827E+02  0.00000000000E+00 0. -1.
         -5    1    3    3    0  503  0.30621550391E+02  0.36386138162E+02 -0.81280924480E+02  0.94288435574E+02  0.47000000000E+01 0.  1.
         13    1    4    4    0    0  0.23740438532E+02 -0.80315693894E+02 -0.12474259201E+03  0.15024957027E+03  0.00000000000E+00 0. -1.
        -14    1    4    4    0    0 -0.44005097912E+02 -0.33981397292E+02 -0.60583276772E+02  0.82228446590E+02  0.00000000000E+00 0.  1.
</event>
<event>
12    1  0.1681255E-001  0.1871822E+03  0.7818608E-02  0.1161148E+00
         21   -1    0    0  503  502  0.00000000000E+00  0.00000000000E+00  0.22141118174E+03  0.22141118174E+03  0.00000000000E+00 0.  1.
         21   -1    0    0  501  503 -0.00000000000E+00 -0.00000000000E+00 -0.16022705941E+03  0.16022705941E+03  0.00000000000E+00 0.  1.
          6    2    1    2  501    0  0.10510681019E+02 -0.72450136828E+02  0.70768446798E+01  0.18679274704E+03  0.17170309221E+03 0.  0.
         24    2    3    3    0    0  0.64877276382E+02 -0.46703559887E+02  0.38097627837E+02  0.11894739419E+03  0.79415173873E+02 0.  0.
         -6    2    1    2    0  502 -0.10510681019E+02  0.72450136828E+02  0.54107277647E+02  0.19484549411E+03  0.17227208810E+03 0.  0.
        -24    2    5    5    0    0 -0.61913511635E+02  0.79785320940E+02  0.61551092620E+02  0.14218093009E+03  0.78917042004E+02 0.  0.
          5    1    3    3  501    0 -0.54366595362E+02 -0.25746576941E+02 -0.31020783157E+02  0.67845352849E+02  0.47000000000E+01 0. -1.
        -11    1    4    4    0    0  0.47096094641E+02  0.14048058228E+02  0.20463826139E+02  0.53236812927E+02  0.00000000000E+00 0.  1.
         12    1    4    4    0    0  0.17781181741E+02 -0.60751618115E+02  0.17633801698E+02  0.65710581264E+02  0.00000000000E+00 0. -1.
         -5    1    5    5    0  502  0.51402830616E+02 -0.73351841124E+01 -0.74438149734E+01  0.52664564013E+02  0.47000000000E+01 0.  1.
         13    1    6    6    0    0  0.11088625369E+01  0.48270002139E+02 -0.50802293297E+00  0.48285409493E+02  0.00000000000E+00 0. -1.
        -14    1    6    6    0    0 -0.63022374172E+02  0.31515318802E+02  0.62059115553E+02  0.93895520600E+02  0.00000000000E+00 0.  1.
</event>
<event>
12    1  0.1681255E-001  0.2023735E+03  0.7818608E-02  0.1148457E+00
         21   -1    0    0  501  502  0.00000000000E+00  0.00000000000E+00  0.11071565231E+03  0.11071565231E+03  0.00000000000E+00 0. -1.
         21   -1    0    0  502  503 -0.00000000000E+00 -0.00000000000E+00 -0.89099318051E+03  0.89099318051E+03  0.00000000000E+00 0.  1.
         -6    2    1    2    0  503  0.99096418391E+02  0.15570944001E+02 -0.77673538561E+03  0.80266610670E+03  0.17576252488E+03 0.  0.
        -24    2    3    3    0    0  0.71001703951E+02 -0.32941561195E+02 -0.26265923211E+03  0.28552090684E+03  0.80037039009E+02 0.  0.
          6    2    1    2  501    0 -0.99096418391E+02 -0.15570944001E+02 -0.35421425957E+01  0.19904272613E+03  0.17188049806E+03 0.  0.
         24    2    5    5    0    0 -0.86998164217E+02 -0.72710439754E+02 -0.68935529772E+01  0.14035191185E+03  0.82435729271E+02 0.  0.
          5    1    5    5  501    0 -0.12098254174E+02  0.57139495753E+02  0.33514103815E+01  0.58690814277E+02  0.47000000000E+01 0. -1.
        -11    1    6    6    0    0 -0.32218128989E+02 -0.64042239940E+02  0.25539652570E+02  0.76103154898E+02  0.00000000000E+00 0.  1.
         12    1    6    6    0    0 -0.54780035228E+02 -0.86681998145E+01 -0.32433205547E+02  0.64248756950E+02  0.00000000000E+00 0. -1.
         -5    1    3    3    0  503  0.28094714440E+02  0.48512505196E+02 -0.51407615350E+03  0.51714519985E+03  0.47000000000E+01 0.  1.
         13    1    4    4    0    0 -0.11958161251E+02 -0.26093367171E+02 -0.66467577072E+02  0.72400277849E+02  0.00000000000E+00 0. -1.
        -14    1    4    4    0    0  0.82959865201E+02 -0.68481940235E+01 -0.19619165504E+03  0.21312062900E+03  0.00000000000E+00 0.  1.
</event>
<event>
12    1  0.1681255E-001  0.2094229E+03  0.7818608E-02  0.1142904E+00
         21   -1    0    0  501  502  0.00000000000E+00  0.00000000000E+00  0.33136316828E+04  0.33136316828E+04  0.00000000000E+00 0. -1.
         21   -1    0    0  502  503 -0.00000000000E+00 -0.00000000000E+00 -0.13342191562E+02  0.13342191562E+02  0.00000000000E+00 0.  1.
         -6    2    1    2    0  503  0.10943302491E+03  0.21139811038E+02  0.13856581639E+04  0.14013944846E+04  0.17730052402E+03 0.  0.
        -24    2    3    3    0    0  0.57404841185E+02 -0.15898062382E+02  0.12144921988E+04  0.12186416089E+04  0.80919749697E+02 0.  0.
          6    2    1    2  501    0 -0.10943302491E+03 -0.21139811038E+02  0.19146313273E+04  0.19255793897E+04  0.17210574650E+03 0.  0.
         24    2    5    5    0    0 -0.13364870200E+03  0.18652444149E+02  0.12036510056E+04  0.12130592633E+04  0.67284053939E+02 0.  0.
          5    1    5    5  501    0  0.24215677089E+02 -0.39792255187E+02  0.71098032174E+03  0.71252012637E+03  0.47000000000E+01 0. -1.
        -11    1    6    6    0    0 -0.81115781240E+02 -0.20739737239E+02  0.59135057424E+03  0.59724819659E+03  0.00000000000E+00 0.  1.
         12    1    6    6    0    0 -0.52532920756E+02  0.39392181388E+02  0.61230043131E+03  0.61581106672E+03  0.00000000000E+00 0. -1.
         -5    1    3    3    0  503  0.52028183722E+02  0.37037873420E+02  0.17116596514E+03  0.18275287574E+03  0.47000000000E+01 0.  1.
         11    1    4    4    0    0  0.57274316700E+01 -0.40712632057E+02  0.63178804164E+03  0.63312435701E+03  0.00000000000E+00 0. -1.
        -12    1    4    4    0    0  0.51677409515E+02  0.24814569675E+02  0.58270415714E+03  0.58551725189E+03  0.00000000000E+00 0.  1.
</event>
<event>
12    1  0.1681255E-001  0.2354105E+03  0.7818608E-02  0.1123414E+00
         21   -1    0    0  501  502  0.00000000000E+00  0.00000000000E+00  0.35243633833E+02  0.35243633833E+02  0.00000000000E+00 0. -1.
         21   -1    0    0  502  503 -0.00000000000E+00 -0.00000000000E+00 -0.20228214199E+04  0.20228214199E+04  0.00000000000E+00 0.  1.
         -6    2    1    2    0  503  0.46861320531E+02  0.14872510053E+03 -0.14951829580E+04  0.15136017303E+04  0.17636037327E+03 0.  0.
        -24    2    3    3    0    0  0.61013801966E+02  0.22268156990E+02 -0.45691460926E+03  0.46755445352E+03  0.74950997408E+02 0.  0.
          6    2    1    2  501    0 -0.46861320531E+02 -0.14872510053E+03 -0.49239482812E+03  0.54446332346E+03  0.17225708968E+03 0.  0.
         24    2    5    5    0    0 -0.32321176505E+00 -0.80124013368E+02 -0.41560359397E+03  0.43136651374E+03  0.83251185396E+02 0.  0.
          5    1    5    5  501    0 -0.46538108765E+02 -0.68601087159E+02 -0.76791234150E+02  0.11309680972E+03  0.47000000000E+01 0. -1.
        -11    1    6    6    0    0  0.14604909468E+02  0.13725335975E+02 -0.88342460418E+02  0.90587408291E+02  0.00000000000E+00 0.  1.
         12    1    6    6    0    0 -0.14928121233E+02 -0.93849349342E+02 -0.32726113356E+03  0.34077910545E+03  0.00000000000E+00 0. -1.
         -5    1    3    3    0  503 -0.14152481436E+02  0.12645694354E+03 -0.10382683487E+04  0.10460472768E+04  0.47000000000E+01 0.  1.
         13    1    4    4    0    0 -0.14274978662E+02  0.14681132200E+02 -0.57556446891E+02  0.61090549492E+02  0.00000000000E+00 0. -1.
        -14    1    4    4    0    0  0.75288780628E+02  0.75870247893E+01 -0.39935816237E+03  0.40646390403E+03  0.00000000000E+00 0.  1.
</event>
<event>
12    1  0.1681255E-001  0.2010761E+03  0.7818608E-02  0.1152068E+00
         21   -1    0    0  501  502  0.00000000000E+00  0.00000000000E+00  0.17663494291E+04  0.17663494291E+04  0.00000000000E+00 0.  1.
         21   -1    0    0  502  503 -0.00000000000E+00 -0.00000000000E+00 -0.21596541224E+02  0.21596541224E+02  0.00000000000E+00 0.  1.
         -6    2    1    2    0  503 -0.11998879499E+02 -0.67779174191E+02  0.78946060779E+03  0.81466535514E+03  0.18892749948E+03 0.  0.
        -24    2    3    3    0    0  0.70638389806E+02 -0.44564531991E+01  0.41758378320E+03  0.42846184928E+03  0.64758769388E+02 0.  0.
          6    2    1    2  501    0  0.11998879499E+02  0.67779174191E+02  0.95529228005E+03  0.97328061514E+03  0.17307173635E+03 0.  0.
         24    2    5    5    0    0 -0.42888045427E+02  0.71551356694E+02  0.47444678627E+03  0.48927515776E+03  0.85623862976E+02 0.  0.
          5    1    5    5  501    0  0.54886924925E+02 -0.37721825032E+01  0.48084549377E+03  0.48400545738E+03  0.47000000000E+01 0. -1.
        -11    1    6    6    0    0 -0.13613369008E+01  0.48044869235E+02  0.38415007443E+03  0.38714524714E+03  0.00000000000E+00 0.  1.
         12    1    6    6    0    0 -0.41526708526E+02  0.23506487460E+02  0.90296711840E+02  0.10212991062E+03  0.00000000000E+00 0. -1.
         -5    1    3    3    0  503 -0.82637269304E+02 -0.63322720992E+02  0.37187682459E+03  0.38620350586E+03  0.47000000000E+01 0.  1.
         11    1    4    4    0    0  0.28316962637E+02  0.30479894134E+01  0.32656759119E+03  0.32780715708E+03  0.00000000000E+00 0. -1.
        -12    1    4    4    0    0  0.42321427168E+02 -0.75044426125E+01  0.91016192004E+02  0.10065469221E+03  0.00000000000E+00 0.  1.
</event>
<event>
12    1  0.1681255E-001  0.2826604E+03  0.7818608E-02  0.1094396E+00
         21   -1    0    0  503  502  0.00000000000E+00  0.00000000000E+00  0.40370006631E+03  0.40370006631E+03  0.00000000000E+00 0. -1.
         21   -1    0    0  501  503 -0.00000000000E+00 -0.00000000000E+00 -0.86332043495E+03  0.86332043495E+03  0.00000000000E+00 0.  1.
          6    2    1    2  501    0  0.11987393311E+03 -0.18866899820E+03 -0.78641723305E+03  0.83567275827E+03  0.17300619572E+03 0.  0.
         24    2    3    3    0    0  0.42632492578E+02 -0.21234246318E+02 -0.34843322586E+03  0.36043311680E+03  0.78980353005E+02 0.  0.
         -6    2    1    2    0  502 -0.11987393311E+03  0.18866899820E+03  0.32679686441E+03  0.43134774299E+03  0.17116931404E+03 0.  0.
        -24    2    5    5    0    0 -0.80890101333E+02  0.40036462679E+02  0.10759153369E+03  0.16360824875E+03  0.83938037271E+02 0.  0.
          5    1    3    3  501    0  0.77241440530E+02 -0.16743475189E+03 -0.43798400719E+03  0.47523964148E+03  0.47000000000E+01 0. -1.
        -11    1    4    4    0    0  0.54953048366E+02 -0.35245117516E+02 -0.18995780536E+03  0.20086319636E+03  0.00000000000E+00 0.  1.
         12    1    4    4    0    0 -0.12320555788E+02  0.14010871199E+02 -0.15847542050E+03  0.15956992044E+03  0.00000000000E+00 0. -1.
         -5    1    5    5    0  502 -0.38983831774E+02  0.14863253552E+03  0.21920533072E+03  0.26773949423E+03  0.47000000000E+01 0.  1.
         13    1    6    6    0    0 -0.19613330747E+02  0.39774720815E+02  0.89223717886E+02  0.99637257050E+02  0.00000000000E+00 0. -1.
        -14    1    6    6    0    0 -0.61276770586E+02  0.26174186393E+00  0.18367815804E+02  0.63970991704E+02  0.00000000000E+00 0.  1.
</event>
<event>
12    1  0.1681255E-001  0.3100665E+03  0.7818608E-02  0.1080473E+00
         21   -1    0    0  503  502  0.00000000000E+00  0.00000000000E+00  0.46355082793E+03  0.46355082793E+03  0.00000000000E+00 0. -1.
         21   -1    0    0  501  503 -0.00000000000E+00 -0.00000000000E+00 -0.24497540712E+03  0.24497540712E+03  0.00000000000E+00 0.  1.
          6    2    1    2  501    0  0.16834713758E+03 -0.19445533381E+03 -0.31269964862E+02  0.31032531294E+03  0.17079330656E+03 0.  0.
         24    2    3    3    0    0  0.18195417133E+03 -0.20428097864E+03 -0.46193812845E+02  0.28737959651E+03  0.74934140752E+02 0.  0.
         -6    2    1    2    0  502 -0.16834713758E+03  0.19445533381E+03  0.24984538567E+03  0.39820092211E+03  0.17316934500E+03 0.  0.
        -24    2    5    5    0    0 -0.14282074169E+03  0.59186000900E+02  0.14037100132E+03  0.22225740804E+03  0.76115638725E+02 0.  0.
          5    1    3    3  501    0 -0.13607033743E+02  0.98256448242E+01  0.14923847983E+02  0.22945716422E+02  0.47000000000E+01 0. -1.
        -13    1    4    4    0    0  0.14631426719E+03 -0.17092916837E+03 -0.66338049921E+02  0.23457489689E+03  0.00000000000E+00 0.  1.
         14    1    4    4    0    0  0.35639904136E+02 -0.33351810269E+02  0.20144237076E+02  0.52804699624E+02  0.00000000000E+00 0. -1.
         -5    1    5    5    0  502 -0.25526395893E+02  0.13526933291E+03  0.10947438434E+03  0.17594351407E+03  0.47000000000E+01 0.  1.
         11    1    6    6    0    0 -0.76987282658E+02  0.54184340383E+02  0.12127669482E+03  0.15352856783E+03  0.00000000000E+00 0. -1.
        -12    1    6    6    0    0 -0.65833459034E+02  0.50016605169E+01  0.19094306503E+02  0.68728840214E+02  0.00000000000E+00 0.  1.
</event>
<event>
12    1  0.1681255E-001  0.2079187E+03  0.7818608E-02  0.1143299E+00
         21   -1    0    0  503  502  0.00000000000E+00  0.00000000000E+00  0.18439634265E+03  0.18439634265E+03  0.00000000000E+00 0.  1.
         21   -1    0    0  501  503 -0.00000000000E+00 -0.00000000000E+00 -0.28987482188E+03  0.28987482188E+03  0.00000000000E+00 0. -1.
          6    2    1    2  501    0 -0.11028351807E+03 -0.39274878829E+02 -0.15686336260E+03  0.26045402171E+03  0.17182902093E+03 0.  0.
         24    2    3    3    0    0 -0.14554697662E+03 -0.19687692787E+02 -0.12982032763E+03  0.21166278165E+03  0.79851662583E+02 0.  0.
         -6    2    1    2    0  502  0.11028351807E+03  0.39274878829E+02  0.51384883367E+02  0.21381714283E+03  0.17138376196E+03 0.  0.
        -24    2    5    5    0    0  0.76416572104E+02 -0.42800395295E+02  0.31633536589E+02  0.12273736268E+03  0.79952568637E+02 0.  0.
          5    1    3    3  501    0  0.35263458557E+02 -0.19587186042E+02 -0.27043034971E+02  0.48791240063E+02  0.47000000000E+01 0. -1.
        -13    1    4    4    0    0 -0.13253577558E+03  0.11782027473E+02 -0.10097425371E+03  0.16703397227E+03  0.00000000000E+00 0.  1.
         14    1    4    4    0    0 -0.13011201042E+02 -0.31469720260E+02 -0.28846073912E+02  0.44628809372E+02  0.00000000000E+00 0. -1.
         -5    1    5    5    0  502  0.33866945964E+02  0.82075274124E+02  0.19751346777E+02  0.91079780143E+02  0.47000000000E+01 0.  1.
         13    1    6    6    0    0  0.28901249226E+02  0.12122366893E+02 -0.16688043844E+02  0.35506686599E+02  0.00000000000E+00 0. -1.
        -14    1    6    6    0    0  0.47515322878E+02 -0.54922762187E+02  0.48321580433E+02  0.87230676084E+02  0.00000000000E+00 0.  1.
</event>
<event>
12    1  0.1681255E-001  0.1754846E+03  0.7818608E-02  0.1172717E+00
         21   -1    0    0  503  502  0.00000000000E+00  0.00000000000E+00  0.16711140629E+03  0.16711140629E+03  0.00000000000E+00 0.  1.
         21   -1    0    0  501  503 -0.00000000000E+00 -0.00000000000E+00 -0.20476617178E+03  0.20476617178E+03  0.00000000000E+00 0.  1.
          6    2    1    2  501    0  0.35343776725E+02 -0.52548729660E+01 -0.80301754332E+02  0.19128516498E+03  0.16989657545E+03 0.  0.
         24    2    3    3    0    0  0.29816038765E+02 -0.16269240652E+02 -0.12077454907E+03  0.14871746248E+03  0.79854289692E+02 0.  0.
         -6    2    1    2    0  502 -0.35343776725E+02  0.52548729660E+01  0.42646988846E+02  0.18059241309E+03  0.17180820052E+03 0.  0.
        -24    2    5    5    0    0 -0.72366998105E+02 -0.41368602145E+02  0.20686447078E+02  0.11696205282E+03  0.79396782364E+02 0.  0.
          5    1    3    3  501    0  0.55277379595E+01  0.11014367686E+02  0.40472794742E+02  0.42567702507E+02  0.47000000000E+01 0. -1.
        -13    1    4    4    0    0  0.52207175533E+02 -0.85830493787E+01 -0.11126790698E+03  0.12320635145E+03  0.00000000000E+00 0.  1.
         14    1    4    4    0    0 -0.22391136767E+02 -0.76861912729E+01 -0.95066420981E+01  0.25511111030E+02  0.00000000000E+00 0. -1.
         -5    1    5    5    0  502  0.37023221381E+02  0.46623475111E+02  0.21960541768E+02  0.63630360266E+02  0.47000000000E+01 0.  1.
         11    1    6    6    0    0 -0.55387216128E+02 -0.30898125202E+02  0.50512417898E+02  0.81079850846E+02  0.00000000000E+00 0. -1.
        -12    1    6    6    0    0 -0.16979781977E+02 -0.10470476944E+02 -0.29825970820E+02  0.35882201978E+02  0.00000000000E+00 0.  1.
</event>
<event>
12    1  0.1681255E-001  0.1842968E+03  0.7818608E-02  0.1163874E+00
         21   -1    0    0  501  502  0.00000000000E+00  0.00000000000E+00  0.65249533096E+03  0.65249533096E+03  0.00000000000E+00 0.  1.
         21   -1    0    0  502  503 -0.00000000000E+00 -0.00000000000E+00 -0.55617578380E+02  0.55617578380E+02  0.00000000000E+00 0.  1.
         -6    2    1    2    0  503 -0.23477907980E+02 -0.59704964933E+02  0.39105899877E+03  0.43231058089E+03  0.17276979721E+03 0.  0.
        -24    2    3    3    0    0 -0.68517722185E+02  0.19629295756E+01  0.27372686738E+03  0.29223762442E+03  0.76012498018E+02 0.  0.
          6    2    1    2  501    0  0.23477907980E+02  0.59704964933E+02  0.20581875381E+03  0.27580232845E+03  0.17201648165E+03 0.  0.
         24    2    5    5    0    0 -0.19204280830E+02  0.60749461434E+02  0.48976776613E+02  0.11318512141E+03  0.79704740105E+02 0.  0.
          5    1    5    5  501    0  0.42682188809E+02 -0.10444965008E+01  0.15684197719E+03  0.16261720704E+03  0.47000000000E+01 0. -1.
        -11    1    6    6    0    0 -0.12298626665E+02  0.61409276378E+02  0.68292260734E+02  0.92661687440E+02  0.00000000000E+00 0.  1.
         12    1    6    6    0    0 -0.69056541649E+01 -0.65981494428E+00 -0.19315484121E+02  0.20523433973E+02  0.00000000000E+00 0. -1.
         -5    1    3    3    0  503  0.45039814205E+02 -0.61667894509E+02  0.11733213139E+03  0.14007295647E+03  0.47000000000E+01 0.  1.
         11    1    4    4    0    0  0.26350144415E+01 -0.54808603786E+01 -0.27358585105E+01  0.66684371022E+01  0.00000000000E+00 0. -1.
        -12    1    4    4    0    0 -0.71152736626E+02  0.74437899542E+01  0.27646272590E+03  0.28556918732E+03  0.00000000000E+00 0.  1.
</event>
<event>
12    1  0.1681255E-001  0.2044272E+03  0.7818608E-02  0.1146057E+00
         21   -1    0    0  501  502  0.00000000000E+00  0.00000000000E+00  0.44381428364E+03  0.44381428364E+03  0.00000000000E+00 0.  1.
         21   -1    0    0  502  503 -0.00000000000E+00 -0.00000000000E+00 -0.96538692851E+02  0.96538692851E+02  0.00000000000E+00 0.  1.
         -6    2    1    2    0  503  0.98472126602E+02 -0.50931079447E+02  0.21603623858E+03  0.29742450903E+03  0.17175257674E+03 0.  0.
        -24    2    3    3    0    0  0.15991081338E+02  0.26626538431E+02  0.58615267491E+02  0.10346121596E+03  0.79396387785E+02 0.  0.
          6    2    1    2  501    0 -0.98472126602E+02  0.50931079447E+02  0.13123935221E+03  0.24292846746E+03  0.17175487814E+03 0.  0.
         24    2    5    5    0    0 -0.12893136569E+03  0.19489604714E+02  0.99928232489E+02  0.18890247560E+03  0.93248870704E+02 0.  0.
          5    1    5    5  501    0  0.30459239086E+02  0.31441474733E+02  0.31311119717E+02  0.54025991866E+02  0.47000000000E+01 0. -1.
        -13    1    6    6    0    0 -0.35442717815E+02  0.17137997596E+02 -0.13749768439E+02  0.41700759464E+02  0.00000000000E+00 0.  1.
         14    1    6    6    0    0 -0.93488647873E+02  0.23516071178E+01  0.11367800093E+03  0.14720171613E+03  0.00000000000E+00 0. -1.
         -5    1    3    3    0  503  0.82481045265E+02 -0.77557617879E+02  0.15742097109E+03  0.19396329307E+03  0.47000000000E+01 0.  1.
         11    1    4    4    0    0 -0.13661093861E+02 -0.67746235016E+01 -0.12341786621E+02  0.19617357265E+02  0.00000000000E+00 0. -1.
        -12    1    4    4    0    0  0.29652175198E+02  0.33401161933E+02  0.70957054111E+02  0.83843858694E+02  0.00000000000E+00 0.  1.
</event>
<event>
12    1  0.1681255E-001  0.3315454E+03  0.7818608E-02  0.1070484E+00
         21   -1    0    0  503  502  0.00000000000E+00  0.00000000000E+00  0.23672706901E+03  0.23672706901E+03  0.00000000000E+00 0. -1.
         21   -1    0    0  501  503 -0.00000000000E+00 -0.00000000000E+00 -0.59948057297E+03  0.59948057297E+03  0.00000000000E+00 0.  1.
          6    2    1    2  501    0 -0.26633103938E+03 -0.98613208431E+02 -0.38021397657E+03  0.50446511217E+03  0.17107189718E+03 0.  0.
         24    2    3    3    0    0 -0.14660546783E+03 -0.10535759233E+03 -0.14886673618E+03  0.24384405617E+03  0.68594701885E+02 0.  0.
         -6    2    1    2    0  502  0.26633103938E+03  0.98613208431E+02  0.17460472604E+02  0.33174252981E+03  0.17056216040E+03 0.  0.
        -24    2    5    5    0    0  0.10281255932E+03  0.93339997873E+01  0.54934334346E+02  0.14164926130E+03  0.79932385364E+02 0.  0.
          5    1    3    3  501    0 -0.11972557155E+03  0.67443839034E+01 -0.23134724039E+03  0.26062105600E+03  0.47000000000E+01 0. -1.
        -13    1    4    4    0    0 -0.30711383520E+02  0.11502940229E+01 -0.47669831275E+02  0.56717943086E+02  0.00000000000E+00 0.  1.
         14    1    4    4    0    0 -0.11589408432E+03 -0.10650788636E+03 -0.10119690490E+03  0.18712611308E+03  0.00000000000E+00 0. -1.
         -5    1    5    5    0  502  0.16351848006E+03  0.89279208644E+02 -0.37473861743E+02  0.19009326851E+03  0.47000000000E+01 0.  1.
         13    1    6    6    0    0  0.68966623267E+02  0.24187102515E+02 -0.27527355195E+01  0.73136780116E+02  0.00000000000E+00 0. -1.
        -14    1    6    6    0    0  0.33845936056E+02 -0.14853102728E+02  0.57687069866E+02  0.68512481183E+02  0.00000000000E+00 0.  1.
</event>
<event>
12    1  0.1681255E-001  0.4018274E+03  0.7818608E-02  0.1043223E+00
         21   -1    0    0  503  502  0.00000000000E+00  0.00000000000E+00  0.25240243941E+04  0.25240243941E+04  0.00000000000E+00 0.  1.
         21   -1    0    0  501  503 -0.00000000000E+00 -0.00000000000E+00 -0.12924548174E+03  0.12924548174E+03  0.00000000000E+00 0. -1.
          6    2    1    2  501    0 -0.10082118046E+03  0.34846350415E+03  0.25297725371E+03  0.47410039896E+03  0.17082731995E+03 0.  0.
         24    2    3    3    0    0 -0.30646940831E+02  0.24633238477E+03  0.10469727529E+03  0.28080210239E+03  0.79179684813E+02 0.  0.
         -6    2    1    2    0  502  0.10082118046E+03 -0.34846350415E+03  0.21418016587E+04  0.21791694769E+04  0.17283963634E+03 0.  0.
        -24    2    5    5    0    0  0.74193881222E+01 -0.14698568021E+03  0.11956444145E+04  0.12072883993E+04  0.79497645427E+02 0.  0.
          5    1    3    3  501    0 -0.70174239631E+02  0.10213111938E+03  0.14827997842E+03  0.19329829656E+03  0.47000000000E+01 0. -1.
        -13    1    4    4    0    0 -0.21508663909E+02  0.24186836157E+03  0.11285240832E+03  0.26776592953E+03  0.00000000000E+00 0.  1.
         14    1    4    4    0    0 -0.91382769225E+01  0.44640232008E+01 -0.81551330323E+01  0.13036172867E+02  0.00000000000E+00 0. -1.
         -5    1    5    5    0  502  0.93401792340E+02 -0.20147782394E+03  0.94615724411E+03  0.97188107757E+03  0.47000000000E+01 0.  1.
         13    1    6    6    0    0  0.79626719277E+01  0.83319381716E+01  0.63180266360E+02  0.64222826123E+02  0.00000000000E+00 0. -1.
        -14    1    6    6    0    0 -0.54328380550E+00 -0.15531761838E+03  0.11324641482E+04  0.11430655732E+04  0.00000000000E+00 0.  1.
</event>
<event>
12    1  0.1681255E-001  0.1872564E+03  0.7818608E-02  0.1161134E+00
         21   -1    0    0  503  502  0.00000000000E+00  0.00000000000E+00  0.18008868233E+04  0.18008868233E+04  0.00000000000E+00 0. -1.
         21   -1    0    0  501  503 -0.00000000000E+00 -0.00000000000E+00 -0.13328389534E+03  0.13328389534E+03  0.00000000000E+00 0. -1.
          6    2    1    2  501    0  0.72345851628E+02 -0.26996438179E+01 -0.60412122993E+02  0.19603925783E+03  0.17187366198E+03 0.  0.
         24    2    3    3    0    0  0.41892610631E+02 -0.62165294089E+02 -0.64817230276E+01  0.11005006380E+03  0.80308711824E+02 0.  0.
         -6    2    1    2    0  502 -0.72345851628E+02  0.26996438179E+01  0.17280150509E+04  0.17381314608E+04  0.17269553677E+03 0.  0.
        -24    2    5    5    0    0 -0.10685822816E+03  0.33824572497E+02  0.14133010041E+04  0.14199697305E+04  0.79570879383E+02 0.  0.
          5    1    3    3  501    0  0.30453240997E+02  0.59465650272E+02 -0.53930399966E+02  0.85989194030E+02  0.47000000000E+01 0. -1.
        -11    1    4    4    0    0  0.19691624167E+02  0.25466335175E+01  0.27294284541E+02  0.33752383223E+02  0.00000000000E+00 0.  1.
         12    1    4    4    0    0  0.22200986464E+02 -0.64711927607E+02 -0.33776007569E+02  0.76297680580E+02  0.00000000000E+00 0. -1.
         -5    1    5    5    0  502  0.34512376534E+02 -0.31124928679E+02  0.31471404684E+03  0.31816173025E+03  0.47000000000E+01 0.  1.
         13    1    6    6    0    0 -0.27342711452E+02  0.19823542694E+02  0.87460702620E+03  0.87525884571E+03  0.00000000000E+00 0. -1.
        -14    1    6    6    0    0 -0.79515516711E+02  0.14001029803E+02  0.53869397790E+03  0.54471088483E+03  0.00000000000E+00 0.  1.
</event>
<event>
12    1  0.1681255E-001  0.1992366E+03  0.7818608E-02  0.1151168E+00
         21   -1    0    0  503  502  0.00000000000E+00  0.00000000000E+00  0.97566918630E+02  0.97566918630E+02  0.00000000000E+00 0. -1.
         21   -1    0    0  501  503 -0.00000000000E+00 -0.00000000000E+00 -0.42275785689E+03  0.42275785689E+03  0.00000000000E+00 0. -1.
          6    2    1    2  501    0  0.87198490753E+02  0.28196461008E+02 -0.22230210942E+03  0.29608979130E+03  0.17277823781E+03 0.  0.
         24    2    3    3    0    0 -0.13727194600E+02 -0.36916207299E+01 -0.13055980708E+03  0.15594135657E+03  0.84081980994E+02 0.  0.
         -6    2    1    2    0  502 -0.87198490753E+02 -0.28196461008E+02 -0.10288882884E+03  0.22423498422E+03  0.17690845046E+03 0.  0.
        -24    2    5    5    0    0 -0.44285289125E+01 -0.60215463581E+02 -0.18947489155E+02  0.10198801445E+03  0.79981459250E+02 0.  0.
          5    1    3    3  501    0  0.10092568535E+03  0.31888081738E+02 -0.91742302337E+02  0.14014843474E+03  0.47000000000E+01 0. -1.
        -13    1    4    4    0    0 -0.19756434293E+02 -0.63753842785E+00 -0.14161282988E+03  0.14298572215E+03  0.00000000000E+00 0.  1.
         14    1    4    4    0    0  0.60292396934E+01 -0.30540823021E+01  0.11053022804E+02  0.12955634415E+02  0.00000000000E+00 0. -1.
         -5    1    5    5    0  502 -0.82769961840E+02  0.32019002573E+02 -0.83941339689E+02  0.12224696977E+03  0.47000000000E+01 0.  1.
         11    1    6    6    0    0 -0.41053339538E+02 -0.30521263603E+02  0.46754589486E-01  0.51155902935E+02  0.00000000000E+00 0. -1.
        -12    1    6    6    0    0  0.36624810626E+02 -0.29694199978E+02 -0.18994243744E+02  0.50832111516E+02  0.00000000000E+00 0.  1.
</event>
<event>
12    1  0.1681255E-001  0.1919095E+03  0.7818608E-02  0.1157409E+00
         21   -1    0    0  501  502  0.00000000000E+00  0.00000000000E+00  0.30960807494E+03  0.30960807494E+03  0.00000000000E+00 0.  1.
         21   -1    0    0  502  503 -0.00000000000E+00 -0.00000000000E+00 -0.14065207060E+03  0.14065207060E+03  0.00000000000E+00 0. -1.
         -6    2    1    2    0  503  0.81894602662E+02  0.67093686466E+01 -0.81028670373E+01  0.18914883941E+03  0.17017604245E+03 0.  0.
        -24    2    3    3    0    0  0.94130222712E+01 -0.20928211289E+02 -0.53859438802E+02  0.98964754447E+02  0.79790904612E+02 0.  0.
          6    2    1    2  501    0 -0.81894602662E+02 -0.67093686466E+01  0.17705887138E+03  0.26111130614E+03  0.17342874238E+03 0.  0.
         24    2    5    5    0    0 -0.81835150662E+02 -0.61495580776E+02  0.90852218202E+02  0.15886058669E+03  0.80646525741E+02 0.  0.
          5    1    5    5  501    0 -0.59451999404E-01  0.54786212129E+02  0.86206653179E+02  0.10225071944E+03  0.47000000000E+01 0. -1.
        -11    1    6    6    0    0  0.26318882673E+01 -0.43749673472E+02  0.34553812576E+02  0.55811528632E+02  0.00000000000E+00 0.  1.
         12    1    6    6    0    0 -0.84467038930E+02 -0.17745907304E+02  0.56298405626E+02  0.10304905806E+03  0.00000000000E+00 0. -1.
         -5    1    3    3    0  503  0.72481580390E+02  0.27637579936E+02  0.45756571764E+02  0.90184084961E+02  0.47000000000E+01 0.  1.
         11    1    4    4    0    0  0.33875437586E+02 -0.30008957514E+02 -0.56891036866E+02  0.72695755573E+02  0.00000000000E+00 0. -1.
        -12    1    4    4    0    0 -0.24462415314E+02  0.90807462248E+01  0.30315980643E+01  0.26268998874E+02  0.00000000000E+00 0.  1.
</event>
<event>
12    1  0.1681255E-001  0.1761806E+03  0.7818608E-02  0.1171820E+00
         21   -1    0    0  501  502  0.00000000000E+00  0.00000000000E+00  0.53239610209E+03  0.53239610209E+03  0.00000000000E+00 0.  1.
         21   -1    0    0  502  503 -0.00000000000E+00 -0.00000000000E+00 -0.59557330251E+02  0.59557330251E+02  0.00000000000E+00 0.  1.
         -6    2    1    2    0  503 -0.35320745761E+02  0.19160081250E+01  0.18843821945E+03  0.25797011985E+03  0.17259314592E+03 0.  0.
        -24    2    3    3    0    0 -0.73363912620E+02  0.21987346873E+01  0.19151290675E+03  0.21951357059E+03  0.78242674487E+02 0.  0.
          6    2    1    2  501    0  0.35320745761E+02 -0.19160081250E+01  0.28440055238E+03  0.33398331249E+03  0.17149330207E+03 0.  0.
         24    2    5    5    0    0 -0.43466762046E+02  0.19444058978E+02  0.16166526158E+03  0.18650529561E+03  0.79882023363E+02 0.  0.
          5    1    5    5  501    0  0.78787507806E+02 -0.21360067103E+02  0.12273529080E+03  0.14747801687E+03  0.47000000000E+01 0. -1.
        -13    1    6    6    0    0 -0.63967151271E+01  0.59722314860E+01  0.14229427967E+03  0.14256313528E+03  0.00000000000E+00 0.  1.
         14    1    6    6    0    0 -0.37070046918E+02  0.13471827492E+02  0.19370981911E+02  0.43942160333E+02  0.00000000000E+00 0. -1.
         -5    1    3    3    0  503  0.38043166859E+02 -0.28272656229E+00 -0.30746873027E+01  0.38456549260E+02  0.47000000000E+01 0.  1.
         13    1    4    4    0    0 -0.48285338407E+02 -0.24075758707E+02  0.50511076075E+02  0.73908625130E+02  0.00000000000E+00 0. -1.
        -14    1    4    4    0    0 -0.25078574213E+02  0.26274493395E+02  0.14100183068E+03  0.14560494546E+03  0.00000000000E+00 0.  1.
</event>
<event>
12    1  0.1681255E-001  0.2020647E+03  0.7818608E-02  0.1149027E+00
         21   -1    0    0  501  502  0.00000000000E+00  0.00000000000E+00  0.15647966934E+03  0.15647966934E+03  0.00000000000E+00 0. -1.
         21   -1    0    0  502  503 -0.00000000000E+00 -0.00000000000E+00 -0.31829572991E+03  0.31829572991E+03  0.00000000000E+00 0. -1.
         -6    2    1    2    0  503  0.74154971774E+02 -0.75878802012E+02  0.25954121463E+02  0.19893528461E+03  0.16626809257E+03 0.  0.
        -24    2    3    3    0    0  0.74301274970E+02  0.11478066401E+02  0.18176108467E+02  0.11110686467E+03  0.79761763936E+02 0.  0.
          6    2    1    2  501    0 -0.74154971774E+02  0.75878802012E+02 -0.18777018203E+03  0.27584011465E+03  0.17196969255E+03 0.  0.
         24    2    5    5    0    0 -0.75867172015E+02  0.10949384391E+03 -0.10785834971E+03  0.18900179582E+03  0.79646252758E+02 0.  0.
          5    1    5    5  501    0  0.17122002415E+01 -0.33615041896E+02 -0.79911832324E+02  0.86838318827E+02  0.47000000000E+01 0. -1.
        -11    1    6    6    0    0 -0.10412779496E+02  0.82777059030E+02 -0.69401340448E+02  0.10852194955E+03  0.00000000000E+00 0.  1.
         12    1    6    6    0    0 -0.65454392519E+02  0.26716784878E+02 -0.38457009260E+02  0.80479846269E+02  0.00000000000E+00 0. -1.
         -5    1    3    3    0  503 -0.14630319688E+00 -0.87356868413E+02  0.77780129959E+01  0.87828419944E+02  0.47000000000E+01 0.  1.
         13    1    4    4    0    0  0.34519465249E+02 -0.70844666246E+00  0.48562721460E+02  0.59585512445E+02  0.00000000000E+00 0. -1.
        -14    1    4    4    0    0  0.39781809721E+02  0.12186513064E+02 -0.30386612993E+02  0.51521352220E+02  0.00000000000E+00 0.  1.
</event>
<event>
12    1  0.1681255E-001  0.1810306E+03  0.7818608E-02  0.1166975E+00
         21   -1    0    0  503  502  0.00000000000E+00  0.00000000000E+00  0.51844467114E+03  0.51844467114E+03  0.00000000000E+00 0. -1.
         21   -1    0    0  501  503 -0.00000000000E+00 -0.00000000000E+00 -0.63377188559E+02  0.63377188559E+02  0.00000000000E+00 0. -1.
          6    2    1    2  501    0 -0.19468232189E+02  0.51763973807E+02  0.20385055607E+03  0.27217361824E+03  0.17165345382E+03 0.  0.
         24    2    3    3    0    0  0.13320831727E+02  0.34486717260E+02  0.21491962413E+03  0.23320901156E+03  0.82639094924E+02 0.  0.
         -6    2    1    2    0  502  0.19468232189E+02 -0.51763973807E+02  0.25121692651E+03  0.30964824145E+03  0.17237624031E+03 0.  0.
        -24    2    5    5    0    0  0.16067885254E+02  0.37164961688E+02  0.10155605921E+03  0.13546333071E+03  0.79982932509E+02 0.  0.
          5    1    3    3  501    0 -0.32789063915E+02  0.17277256547E+02 -0.11069068063E+02  0.38964606684E+02  0.47000000000E+01 0. -1.
        -11    1    4    4    0    0  0.92250576759E+01  0.57286164534E+02  0.19218026328E+03  0.20074874827E+03  0.00000000000E+00 0.  1.
         12    1    4    4    0    0  0.40957740507E+01 -0.22799447273E+02  0.22739360852E+02  0.32460263292E+02  0.00000000000E+00 0. -1.
         -5    1    5    5    0  502  0.34003469352E+01 -0.88928935495E+02  0.14966086730E+03  0.17418491074E+03  0.47000000000E+01 0.  1.
         11    1    6    6    0    0 -0.99065725897E+01  0.46416590901E+02  0.96346698438E+02  0.10740263680E+03  0.00000000000E+00 0. -1.
        -12    1    6    6    0    0  0.25974457843E+02 -0.92516292131E+01  0.52093607670E+01  0.28060693914E+02  0.00000000000E+00 0.  1.
</event>
<event>
12    1  0.1681255E-001  0.2079056E+03  0.7818608E-02  0.1143502E+00
         21   -1    0    0  501  502  0.00000000000E+00  0.00000000000E+00  0.38180525812E+03  0.38180525812E+03  0.00000000000E+00 0. -1.
         21   -1    0    0  502  503 -0.00000000000E+00 -0.00000000000E+00 -0.13925986720E+03  0.13925986720E+03  0.00000000000E+00 0.  1.
         -6    2    1    2    0  503 -0.22044824784E+02 -0.11458290602E+03  0.67339433920E+01  0.20668993300E+03  0.17047042488E+03 0.  0.
        -24    2    3    3    0    0  0.24941906571E+02 -0.16222843750E+02 -0.28080814769E+02  0.92162154016E+02  0.82583600745E+02 0.  0.
          6    2    1    2  501    0  0.22044824784E+02  0.11458290602E+03  0.23581144752E+03  0.31437519232E+03  0.17207412970E+03 0.  0.
         24    2    5    5    0    0  0.40882332079E+02  0.12695725758E+03  0.24470148942E+03  0.28969525913E+03  0.79088645883E+02 0.  0.
          5    1    5    5  501    0 -0.18837507295E+02 -0.12374351565E+02 -0.88900418929E+01  0.24679933197E+02  0.47000000000E+01 0. -1.
        -11    1    6    6    0    0 -0.78793381291E+01  0.81236064176E+02  0.17513527925E+03  0.19321943000E+03  0.00000000000E+00 0.  1.
         12    1    6    6    0    0  0.48761670208E+02  0.45721193407E+02  0.69566210165E+02  0.96475829122E+02  0.00000000000E+00 0. -1.
         -5    1    3    3    0  503 -0.46986731355E+02 -0.98360062269E+02  0.34814758161E+02  0.11452777898E+03  0.47000000000E+01 0.  1.
         13    1    4    4    0    0  0.31601143969E+02  0.10586714122E+02  0.18417028856E+02  0.38077523133E+02  0.00000000000E+00 0. -1.
        -14    1    4    4    0    0 -0.66592373983E+01 -0.26809557871E+02 -0.46497843625E+02  0.54084630883E+02  0.00000000000E+00 0.  1.
</event>
<event>
12    1  0.1681255E-001  0.1758051E+03  0.7818608E-02  0.1171940E+00
         21   -1    0    0  501  502  0.00000000000E+00  0.00000000000E+00  0.15215859057E+03  0.15215859057E+03  0.00000000000E+00 0. -1.
         21   -1    0    0  502  503 -0.00000000000E+00 -0.00000000000E+00 -0.13511054629E+04  0.13511054629E+04  0.00000000000E+00 0. -1.
         -6    2    1    2    0  503  0.32919689681E+02  0.10665439495E+02 -0.12923103508E+04  0.13042058622E+04  0.17230621233E+03 0.  0.
        -24    2    3    3    0    0  0.75184697817E+01  0.37986495910E+02 -0.12151139166E+04  0.12183394454E+04  0.79684832789E+02 0.  0.
          6    2    1    2  501    0 -0.32919689681E+02 -0.10665439495E+02  0.93363478417E+02  0.19905819126E+03  0.17236579370E+03 0.  0.
         24    2    5    5    0    0  0.42287987536E+02 -0.34092741403E+02  0.38812323871E+02  0.10312617550E+03  0.78600398739E+02 0.  0.
          5    1    5    5  501    0 -0.75207677216E+02  0.23427301908E+02  0.54551154545E+02  0.95932015767E+02  0.47000000000E+01 0. -1.
        -11    1    6    6    0    0  0.76460515199E+01  0.14864068365E+00 -0.23109855967E+02  0.24342342548E+02  0.00000000000E+00 0.  1.
         12    1    6    6    0    0  0.34641936016E+02 -0.34241382087E+02  0.61922179838E+02  0.78783832948E+02  0.00000000000E+00 0. -1.
         -5    1    3    3    0  503  0.25401219899E+02 -0.27321056415E+02 -0.77196434172E+02  0.85866416863E+02  0.47000000000E+01 0.  1.
         13    1    4    4    0    0 -0.17956574496E+02 -0.70520552947E+01 -0.90384140636E+02  0.92420035328E+02  0.00000000000E+00 0. -1.
        -14    1    4    4    0    0  0.25475044277E+02  0.45038551205E+02 -0.11247297760E+04  0.11259194100E+04  0.00000000000E+00 0.  1.
</event>
<event>
12    1  0.1681255E-001  0.1931782E+03  0.7818608E-02  0.1157013E+00
         21   -1    0    0  501  502  0.00000000000E+00  0.00000000000E+00  0.11183433870E+04  0.11183433870E+04  0.00000000000E+00 0. -1.
         21   -1    0    0  502  503 -0.00000000000E+00 -0.00000000000E+00 -0.33297266356E+02  0.33297266356E+02  0.00000000000E+00 0. -1.
         -6    2    1    2    0  503 -0.46122117573E+02 -0.75137047229E+02  0.43485118721E+03  0.47335510560E+03  0.16491414549E+03 0.  0.
        -24    2    3    3    0    0 -0.47830529476E+02 -0.34486225767E+02  0.12007062452E+03  0.15592117452E+03  0.80108666641E+02 0.  0.
          6    2    1    2  501    0  0.46122117573E+02  0.75137047229E+02  0.65019493343E+03  0.67828554775E+03  0.17188661158E+03 0.  0.
         24    2    5    5    0    0  0.25621196246E+02 -0.25607582376E+02  0.25766654491E+03  0.27248954732E+03  0.80909276749E+02 0.  0.
          5    1    5    5  501    0  0.20500921327E+02  0.10074462961E+03  0.39252838852E+03  0.40579600043E+03  0.47000000000E+01 0. -1.
        -11    1    6    6    0    0  0.92334454189E+01 -0.19261906503E+02  0.89613679161E+01  0.23164275757E+02  0.00000000000E+00 0.  1.
         12    1    6    6    0    0  0.16387750827E+02 -0.63456758732E+01  0.24870517699E+03  0.24932527156E+03  0.00000000000E+00 0. -1.
         -5    1    3    3    0  503  0.17084119034E+01 -0.40650821462E+02  0.31478056269E+03  0.31743393109E+03  0.47000000000E+01 0.  1.
         13    1    4    4    0    0 -0.51295706335E+02 -0.12339115248E+02  0.25255640612E+02  0.58492312625E+02  0.00000000000E+00 0. -1.
        -14    1    4    4    0    0  0.34651768588E+01 -0.22147110519E+02  0.94814983911E+02  0.97428861890E+02  0.00000000000E+00 0.  1.
</event>
<event>
12    1  0.1681255E-001  0.2056985E+03  0.7818608E-02  0.1145051E+00
         21   -1    0    0  501  502  0.00000000000E+00  0.00000000000E+00  0.78571096889E+02  0.78571096889E+02  0.00000000000E+00 0.  1.
         21   -1    0    0  502  503 -0.00000000000E+00 -0.00000000000E+00 -0.73073312670E+03  0.73073312670E+03  0.00000000000E+00 0. -1.
         -6    2    1    2    0  503 -0.10624923366E+03  0.37461285992E+02 -0.53393605098E+03  0.57218840830E+03  0.17210351670E+03 0.  0.
        -24    2    3    3    0    0 -0.77967467868E+02  0.89100242483E+02 -0.32310948903E+03  0.35324464994E+03  0.79776322005E+02 0.  0.
          6    2    1    2  501    0  0.10624923366E+03 -0.37461285992E+02 -0.11822597883E+03  0.23711581528E+03  0.17191358349E+03 0.  0.
         24    2    5    5    0    0  0.23605010929E+02  0.15236243984E+02 -0.84381063208E+00  0.84119865578E+02  0.79284929821E+02 0.  0.
          5    1    5    5  501    0  0.82644222726E+02 -0.52697529976E+02 -0.11738216820E+03  0.15299594971E+03  0.47000000000E+01 0. -1.
        -13    1    6    6    0    0  0.48649414681E+02  0.92353898248E+01 -0.18537206696E+02  0.52874247097E+02  0.00000000000E+00 0.  1.
         14    1    6    6    0    0 -0.25044403752E+02  0.60008541594E+01  0.17693396064E+02  0.31245618480E+02  0.00000000000E+00 0. -1.
         -5    1    3    3    0  503 -0.28281765787E+02 -0.51638956491E+02 -0.21082656195E+03  0.21894375836E+03  0.47000000000E+01 0.  1.
         11    1    4    4    0    0 -0.37380023773E+02  0.85119367860E+02 -0.15937210138E+03  0.18450484997E+03  0.00000000000E+00 0. -1.
        -12    1    4    4    0    0 -0.40587444095E+02  0.39808746234E+01 -0.16373738765E+03  0.16873979997E+03  0.00000000000E+00 0.  1.
</event>
<event>
12    1  0.1681255E-001  0.2000447E+03  0.7818608E-02  0.1149783E+00
         21   -1    0    0  501  502  0.00000000000E+00  0.00000000000E+00  0.23874685827E+03  0.23874685827E+03  0.00000000000E+00 0. -1.
         21   -1    0    0  502  503 -0.00000000000E+00 -0.00000000000E+00 -0.19438517188E+03  0.19438517188E+03  0.00000000000E+00 0.  1.
         -6    2    1    2    0  503  0.30903861956E+02  0.97195714571E+02 -0.58650752308E+02  0.20846528930E+03  0.17209244749E+03 0.  0.
        -24    2    3    3    0    0 -0.40706204571E+02  0.90273344974E+02 -0.34979252012E+02  0.13258149159E+03  0.80919910644E+02 0.  0.
          6    2    1    2  501    0 -0.30903861956E+02 -0.97195714571E+02  0.10301243870E+03  0.22466674084E+03  0.17164360256E+03 0.  0.
         24    2    5    5    0    0 -0.85891909844E+02 -0.64592086802E+02  0.61465213917E+02  0.14827993674E+03  0.81605203653E+02 0.  0.
          5    1    5    5  501    0  0.54988047888E+02 -0.32603627769E+02  0.41547224783E+02  0.76386804105E+02  0.47000000000E+01 0. -1.
        -13    1    6    6    0    0 -0.76541631873E+02 -0.37526446989E+02  0.55105908498E+01  0.85423780324E+02  0.00000000000E+00 0.  1.
         14    1    6    6    0    0 -0.93502779710E+01 -0.27065639813E+02  0.55954623067E+02  0.62856156414E+02  0.00000000000E+00 0. -1.
         -5    1    3    3    0  503  0.71610066527E+02  0.69223695968E+01 -0.23671500295E+02  0.75883797711E+02  0.47000000000E+01 0.  1.
         13    1    4    4    0    0 -0.88090413365E+01  0.30455774592E+02  0.26304943996E+02  0.41195915986E+02  0.00000000000E+00 0. -1.
        -14    1    4    4    0    0 -0.31897163234E+02  0.59817570381E+02 -0.61284196009E+02  0.91385575608E+02  0.00000000000E+00 0.  1.
</event>
<event>
12    1  0.1681255E-001  0.1795134E+03  0.7818608E-02  0.1170527E+00
         21   -1    0    0  503  502  0.00000000000E+00  0.00000000000E+00  0.69145148443E+02  0.69145148443E+02  0.00000000000E+00 0. -1.
         21   -1    0    0  501  503 -0.00000000000E+00 -0.00000000000E+00 -0.93670434567E+03  0.93670434567E+03  0.00000000000E+00 0.  1.
          6    2    1    2  501    0  0.22753798271E+02 -0.47761053009E+02 -0.80415742815E+03  0.82395039083E+03  0.17154073502E+03 0.  0.
         24    2    3    3    0    0  0.51922353292E+02  0.21987588613E+02 -0.59610080809E+03  0.60253375920E+03  0.67315471798E+02 0.  0.
         -6    2    1    2    0  502 -0.22753798271E+02  0.47761053009E+02 -0.63401769072E+02  0.18189910328E+03  0.16207604985E+03 0.  0.
        -24    2    5    5    0    0  0.27157166538E+02  0.67479172573E+02 -0.14654557600E+02  0.10924726729E+03  0.80182659756E+02 0.  0.
          5    1    3    3  501    0 -0.29168555021E+02 -0.69748641622E+02 -0.20805662006E+03  0.22141663162E+03  0.47000000000E+01 0. -1.
        -13    1    4    4    0    0  0.54795256725E+02  0.83760394616E+00 -0.53525012369E+03  0.53804824752E+03  0.00000000000E+00 0.  1.
         14    1    4    4    0    0 -0.28729034328E+01  0.21149984667E+02 -0.60850684401E+02  0.64485511688E+02  0.00000000000E+00 0. -1.
         -5    1    5    5    0  502 -0.49910964809E+02 -0.19718119565E+02 -0.48747211472E+02  0.72651835996E+02  0.47000000000E+01 0.  1.
         13    1    6    6    0    0 -0.14706132088E+01  0.77462009952E+02 -0.15060159587E+02  0.78926130627E+02  0.00000000000E+00 0. -1.
        -14    1    6    6    0    0  0.28627779747E+02 -0.99828373785E+01  0.40560198632E+00  0.30321136660E+02  0.00000000000E+00 0.  1.
</event>
<event>
12    1  0.1681255E-001  0.1771153E+03  0.7818608E-02  0.1170983E+00
         21   -1    0    0  503  502  0.00000000000E+00  0.00000000000E+00  0.37142679766E+03  0.37142679766E+03  0.00000000000E+00 0.  1.
         21   -1    0    0  501  503 -0.00000000000E+00 -0.00000000000E+00 -0.91148116860E+02  0.91148116860E+02  0.00000000000E+00 0.  1.
          6    2    1    2  501    0  0.43212455018E+02  0.29803191313E+01  0.74866395683E+02  0.19228831390E+03  0.17173706614E+03 0.  0.
         24    2    3    3    0    0  0.60772077632E+02 -0.72052063227E+01  0.11093498713E+03  0.15063355950E+03  0.81478447818E+02 0.  0.
         -6    2    1    2    0  502 -0.43212455018E+02 -0.29803191313E+01  0.20541228511E+03  0.27028660062E+03  0.17024817482E+03 0.  0.
        -24    2    5    5    0    0  0.42019052980E+02 -0.86798444912E+01  0.10082587625E+03  0.13516701853E+03  0.79141171732E+02 0.  0.
          5    1    3    3  501    0 -0.17559622614E+02  0.10185525454E+02 -0.36068591449E+02  0.41654754401E+02  0.47000000000E+01 0. -1.
        -11    1    4    4    0    0  0.53066598093E+02  0.19178659217E+02  0.27466218868E+02  0.62755700788E+02  0.00000000000E+00 0.  1.
         12    1    4    4    0    0  0.77054795389E+01 -0.26383865540E+02  0.83468768263E+02  0.87877858708E+02  0.00000000000E+00 0. -1.
         -5    1    5    5    0  502 -0.85231507998E+02  0.56995253599E+01  0.10458640887E+03  0.13511958209E+03  0.47000000000E+01 0.  1.
         11    1    6    6    0    0  0.50160685622E+00  0.20245957551E+02 -0.22143863708E+01  0.20372872002E+02  0.00000000000E+00 0. -1.
        -12    1    6    6    0    0  0.41517446124E+02 -0.28925802042E+02  0.10304026262E+03  0.11479414653E+03  0.00000000000E+00 0.  1.
</event>
<event>
12    1  0.1681255E-001  0.2137802E+03  0.7818608E-02  0.1138896E+00
         21   -1    0    0  501  502  0.00000000000E+00  0.00000000000E+00  0.80448532257E+03  0.80448532257E+03  0.00000000000E+00 0. -1.
         21   -1    0    0  502  503 -0.00000000000E+00 -0.00000000000E+00 -0.90123635600E+02  0.90123635600E+02  0.00000000000E+00 0. -1.
         -6    2    1    2    0  503 -0.91914827728E+02 -0.80218550575E+02  0.82832426265E+02  0.22787725718E+03  0.17373394051E+03 0.  0.
        -24    2    3    3    0    0  0.78564277653E+01 -0.12869681331E+02  0.89889778972E+00  0.82187975829E+02  0.80788013955E+02 0.  0.
          6    2    1    2  501    0  0.91914827728E+02  0.80218550575E+02  0.63152926071E+03  0.66673170100E+03  0.17555227874E+03 0.  0.
         24    2    5    5    0    0  0.63841987095E+00  0.73352127667E+02  0.20461966104E+03  0.23009406327E+03  0.75452833301E+02 0.  0.
          5    1    5    5  501    0  0.91276407857E+02  0.68664229082E+01  0.42690959967E+03  0.43663763773E+03  0.47000000000E+01 0. -1.
        -11    1    6    6    0    0 -0.31097478426E+02  0.10018207529E+02  0.46493928964E+02  0.56825197554E+02  0.00000000000E+00 0.  1.
         12    1    6    6    0    0  0.31735898297E+02  0.63333920137E+02  0.15812573208E+03  0.17326886571E+03  0.00000000000E+00 0. -1.
         -5    1    3    3    0  503 -0.99771255493E+02 -0.67348869244E+02  0.81933528476E+02  0.14568928135E+03  0.47000000000E+01 0.  1.
         13    1    4    4    0    0 -0.88789079022E+01 -0.28702621757E+02 -0.30783382040E+02  0.43015021924E+02  0.00000000000E+00 0. -1.
        -14    1    4    4    0    0  0.16735335668E+02  0.15832940426E+02  0.31682279830E+02  0.39172953905E+02  0.00000000000E+00 0.  1.
</event>
<event>
12    1  0.1681255E-001  0.1805236E+03  0.7818608E-02  0.1167306E+00
         21   -1    0    0  503  502  0.00000000000E+00  0.00000000000E+00  0.89581257182E+02  0.89581257182E+02  0.00000000000E+00 0.  1.
         21   -1    0    0  501  503 -0.00000000000E+00 -0.00000000000E+00 -0.43933699576E+03  0.43933699576E+03  0.00000000000E+00 0.  1.
          6    2    1    2  501    0  0.85024057021E+01  0.55105275618E+02 -0.28457934093E+03  0.33698929849E+03  0.17166101394E+03 0.  0.
         24    2    3    3    0    0  0.71266632545E+02  0.37937623044E+02 -0.16450228270E+03  0.20033401546E+03  0.80959993700E+02 0.  0.
         -6    2    1    2    0  502 -0.85024057021E+01 -0.55105275618E+02 -0.65176397642E+02  0.19192895445E+03  0.17169705426E+03 0.  0.
        -24    2    5    5    0    0 -0.26916396718E+02 -0.97775087659E+02 -0.67447177558E+02  0.14516321522E+03  0.78985929837E+02 0.  0.
          5    1    3    3  501    0 -0.62764226843E+02  0.17167652574E+02 -0.12007705823E+03  0.13665528303E+03  0.47000000000E+01 0. -1.
        -13    1    4    4    0    0  0.18526242820E+02  0.13338666367E+02  0.29865746013E+01  0.23023060642E+02  0.00000000000E+00 0.  1.
         14    1    4    4    0    0  0.52740389725E+02  0.24598956677E+02 -0.16748885731E+03  0.17731095482E+03  0.00000000000E+00 0. -1.
         -5    1    5    5    0  502  0.18413991016E+02  0.42669812041E+02  0.22707799159E+01  0.46765739234E+02  0.47000000000E+01 0.  1.
         11    1    6    6    0    0  0.14749740169E+02 -0.46580737695E+02 -0.61990173579E+02  0.78930992516E+02  0.00000000000E+00 0. -1.
        -12    1    6    6    0    0 -0.41666136887E+02 -0.51194349963E+02 -0.54570039797E+01  0.66232222700E+02  0.00000000000E+00 0.  1.
</event>
<event>
12    1  0.1681255E-001  0.2678666E+03  0.7818608E-02  0.1103077E+00
         21   -1    0    0  503  502  0.00000000000E+00  0.00000000000E+00  0.45106532270E+03  0.45106532270E+03  0.00000000000E+00 0. -1.
         21   -1    0    0  501  503 -0.00000000000E+00 -0.00000000000E+00 -0.26607826030E+03  0.26607826030E+03  0.00000000000E+00 0.  1.
          6    2    1    2  501    0 -0.19400646926E+03  0.61998820484E+02  0.32192610718E+03  0.41630337933E+03  0.16789794907E+03 0.  0.
         24    2    3    3    0    0 -0.91025925400E+02  0.88706612510E+02  0.23553859591E+03  0.27917865264E+03  0.79421078596E+02 0.  0.
         -6    2    1    2    0  502  0.19400646926E+03 -0.61998820484E+02 -0.13693904478E+03  0.30084020367E+03  0.17398322420E+03 0.  0.
        -24    2    5    5    0    0  0.10556074366E+03 -0.10066016483E+03 -0.56013457347E+02  0.17479105998E+03  0.78350927622E+02 0.  0.
          5    1    3    3  501    0 -0.10298054386E+03 -0.26707792026E+02  0.86387511269E+02  0.13712472669E+03  0.47000000000E+01 0. -1.
        -13    1    4    4    0    0 -0.24106271187E+02  0.77417147643E+02  0.11266298874E+03  0.13880733443E+03  0.00000000000E+00 0.  1.
         14    1    4    4    0    0 -0.66919654213E+02  0.11289464868E+02  0.12287560718E+03  0.14037131821E+03  0.00000000000E+00 0. -1.
         -5    1    5    5    0  502  0.88445725596E+02  0.38661344347E+02 -0.80925587431E+02  0.12604914369E+03  0.47000000000E+01 0.  1.
         11    1    6    6    0    0  0.78934053601E+02 -0.71655463733E+02 -0.75719866696E+02  0.13076157124E+03  0.00000000000E+00 0. -1.
        -12    1    6    6    0    0  0.26626690060E+02 -0.29004701098E+02  0.19706409349E+02  0.44029488741E+02  0.00000000000E+00 0.  1.
</event>
<event>
12    1  0.1681255E-001  0.2556508E+03  0.7818608E-02  0.1109814E+00
         21   -1    0    0  501  502  0.00000000000E+00  0.00000000000E+00  0.14874482548E+04  0.14874482548E+04  0.00000000000E+00 0. -1.
         21   -1    0    0  502  503 -0.00000000000E+00 -0.00000000000E+00 -0.52656428163E+02  0.52656428163E+02  0.00000000000E+00 0.  1.
         -6    2    1    2    0  503  0.18833439321E+03 -0.14655631642E+02  0.10310705204E+04  0.10622467186E+04  0.17197977225E+03 0.  0.
        -24    2    3    3    0    0  0.73457910289E+02  0.17058345996E+02  0.73488497329E+03  0.74295006815E+03  0.78941928348E+02 0.  0.
          6    2    1    2  501    0 -0.18833439321E+03  0.14655631642E+02  0.40372130632E+03  0.47785796438E+03  0.17225768414E+03 0.  0.
         24    2    5    5    0    0 -0.21121200618E+03  0.10947211735E+02  0.32703478635E+03  0.39760804290E+03  0.80062795948E+02 0.  0.
          5    1    5    5  501    0  0.22877612970E+02  0.37084199070E+01  0.76686519970E+02  0.80249921486E+02  0.47000000000E+01 0. -1.
        -13    1    6    6    0    0 -0.98105113415E+02  0.42079133422E+02  0.12907182891E+03  0.16749568283E+03  0.00000000000E+00 0.  1.
         14    1    6    6    0    0 -0.11310689276E+03 -0.31131921688E+02  0.19796295744E+03  0.23011236007E+03  0.00000000000E+00 0. -1.
         -5    1    3    3    0  503  0.11487648292E+03 -0.31713977638E+02  0.29618554706E+03  0.31929665046E+03  0.47000000000E+01 0.  1.
         11    1    4    4    0    0  0.13302498344E+02  0.41996860356E+02  0.29553464679E+03  0.29879996686E+03  0.00000000000E+00 0. -1.
        -12    1    4    4    0    0  0.60155411944E+02 -0.24938514360E+02  0.43935032650E+03  0.44415010130E+03  0.00000000000E+00 0.  1.
</event>
<event>
12    1  0.1681255E-001  0.2021650E+03  0.7818608E-02  0.1148694E+00
         21   -1    0    0  503  502  0.00000000000E+00  0.00000000000E+00  0.62278022779E+02  0.62278022779E+02  0.00000000000E+00 0.  1.
         21   -1    0    0  501  503 -0.00000000000E+00 -0.00000000000E+00 -0.90237806388E+03  0.90237806388E+03  0.00000000000E+00 0. -1.
          6    2    1    2  501    0 -0.18108280138E+02 -0.10424251944E+03 -0.16492318122E+03  0.26090295298E+03  0.17226805421E+03 0.  0.
         24    2    3    3    0    0  0.28852984418E+02 -0.18903887534E+02 -0.24246907165E+02  0.89730681434E+02  0.79207518645E+02 0.  0.
         -6    2    1    2    0  502  0.18108280138E+02  0.10424251944E+03 -0.67517685988E+03  0.70375313367E+03  0.16795912709E+03 0.  0.
        -24    2    5    5    0    0 -0.14990407248E+02  0.13169888177E+03 -0.52310582106E+03  0.54564852974E+03  0.80767011885E+02 0.  0.
          5    1    3    3  501    0 -0.46961264556E+02 -0.85338631910E+02 -0.14067627405E+03  0.17117227155E+03  0.47000000000E+01 0. -1.
        -11    1    4    4    0    0 -0.74659861664E+01 -0.42010686555E+02 -0.64641325974E+01  0.43155807773E+02  0.00000000000E+00 0.  1.
         12    1    4    4    0    0  0.36318970584E+02  0.23106799021E+02 -0.17782774567E+02  0.46574873662E+02  0.00000000000E+00 0. -1.
         -5    1    5    5    0  502  0.33098687386E+02 -0.27456362324E+02 -0.15207103882E+03  0.15810460394E+03  0.47000000000E+01 0.  1.
         13    1    6    6    0    0 -0.29788740058E+02  0.20930951309E+02 -0.21147869036E+03  0.21458963217E+03  0.00000000000E+00 0. -1.
        -14    1    6    6    0    0  0.14798332810E+02  0.11076793046E+03 -0.31162713070E+03  0.33105889757E+03  0.00000000000E+00 0.  1.
</event>
<event>
12    1  0.1681255E-001  0.1992770E+03  0.7818608E-02  0.1150391E+00
         21   -1    0    0  501  502  0.00000000000E+00  0.00000000000E+00  0.66576869240E+03  0.66576869240E+03  0.00000000000E+00 0.  1.
         21   -1    0    0  502  503 -0.00000000000E+00 -0.00000000000E+00 -0.59746507052E+02  0.59746507052E+02  0.00000000000E+00 0. -1.
         -6    2    1    2    0  503 -0.92832631910E+02 -0.37536871523E+02  0.32140910890E+03  0.37807321831E+03  0.17207158059E+03 0.  0.
        -24    2    3    3    0    0  0.19437068121E+01  0.81652570206E+01  0.20932436500E+03  0.22426711066E+03  0.80053717725E+02 0.  0.
          6    2    1    2  501    0  0.92832631910E+02  0.37536871523E+02  0.28461307644E+03  0.34744198114E+03  0.17229165014E+03 0.  0.
         24    2    5    5    0    0  0.11805617332E+03  0.46564121547E+02  0.15824720612E+03  0.21818200486E+03  0.80347567024E+02 0.  0.
          5    1    5    5  501    0 -0.25223541415E+02 -0.90272500239E+01  0.12636587032E+03  0.12925997628E+03  0.47000000000E+01 0. -1.
        -11    1    6    6    0    0  0.88693543184E+01  0.39792134524E+02  0.40779905900E+02  0.57663507881E+02  0.00000000000E+00 0.  1.
         12    1    6    6    0    0  0.10918681901E+03  0.67719870235E+01  0.11746730022E+03  0.16051849698E+03  0.00000000000E+00 0. -1.
         -5    1    3    3    0  503 -0.94776338722E+02 -0.45702128544E+02  0.11208474390E+03  0.15380610765E+03  0.47000000000E+01 0.  1.
         11    1    4    4    0    0 -0.18670530904E+02  0.25552840247E+02  0.32370805671E+02  0.45270359273E+02  0.00000000000E+00 0. -1.
        -12    1    4    4    0    0  0.20614237716E+02 -0.17387583226E+02  0.17695355933E+03  0.17899675138E+03  0.00000000000E+00 0.  1.
</event>
<event>
12    1  0.1681255E-001  0.1936729E+03  0.7818608E-02  0.1155526E+00
         21   -1    0    0  501  502  0.00000000000E+00  0.00000000000E+00  0.44378410356E+02  0.44378410356E+02  0.00000000000E+00 0. -1.
         21   -1    0    0  502  503 -0.00000000000E+00 -0.00000000000E+00 -0.15095598672E+04  0.15095598672E+04  0.00000000000E+00 0. -1.
         -6    2    1    2    0  503 -0.19920048756E+02  0.80491508495E+02 -0.12521929780E+04  0.12670818580E+04  0.17502425412E+03 0.  0.
        -24    2    3    3    0    0  0.21866910910E+01 -0.16257199489E+02 -0.79550826242E+03  0.79971472196E+03  0.80256855045E+02 0.  0.
          6    2    1    2  501    0  0.19920048756E+02 -0.80491508495E+02 -0.21298847887E+03  0.28685641955E+03  0.17334019159E+03 0.  0.
         24    2    5    5    0    0 -0.42288177442E+01 -0.14235443702E+02 -0.19943652389E+03  0.21489268313E+03  0.78634645318E+02 0.  0.
          5    1    5    5  501    0  0.24148866501E+02 -0.66256064793E+02 -0.13551954978E+02  0.71963736415E+02  0.47000000000E+01 0. -1.
        -13    1    6    6    0    0  0.16329599801E+02  0.25394593974E+02 -0.45444897486E+02  0.54559874819E+02  0.00000000000E+00 0.  1.
         14    1    6    6    0    0 -0.20558417545E+02 -0.39630037676E+02 -0.15399162640E+03  0.16033280831E+03  0.00000000000E+00 0. -1.
         -5    1    3    3    0  503 -0.22106739847E+02  0.96748707983E+02 -0.45668471559E+03  0.46736713609E+03  0.47000000000E+01 0.  1.
         11    1    4    4    0    0 -0.31170330986E+02  0.16089095984E+02 -0.30494242808E+03  0.30695330750E+03  0.00000000000E+00 0. -1.
        -12    1    4    4    0    0  0.33357022077E+02 -0.32346295473E+02 -0.49056583434E+03  0.49276141446E+03  0.00000000000E+00 0.  1.
</event>
<event>
12    1  0.1681255E-001  0.1936076E+03  0.7818608E-02  0.1155362E+00
         21   -1    0    0  503  502  0.00000000000E+00  0.00000000000E+00  0.50603474223E+02  0.50603474223E+02  0.00000000000E+00 0.  1.
         21   -1    0    0  501  503 -0.00000000000E+00 -0.00000000000E+00 -0.16364706226E+04  0.16364706226E+04  0.00000000000E+00 0.  1.
          6    2    1    2  501    0  0.10912207877E+02  0.87411878400E+02 -0.14172230553E+04  0.14303159548E+04  0.17182150428E+03 0.  0.
         24    2    3    3    0    0 -0.53576356973E+02  0.59387725668E+02 -0.10818068827E+04  0.10875766560E+04  0.78227381028E+02 0.  0.
         -6    2    1    2    0  502 -0.10912207877E+02 -0.87411878400E+02 -0.16864409304E+03  0.25675814198E+03  0.17240649811E+03 0.  0.
        -24    2    5    5    0    0  0.23871660078E+02 -0.82918243204E+02 -0.39579752684E+02  0.12293062546E+03  0.78103077034E+02 0.  0.
          5    1    3    3  501    0  0.64488564849E+02  0.28024152732E+02 -0.33541617260E+03  0.34273929885E+03  0.47000000000E+01 0. -1.
        -13    1    4    4    0    0 -0.12267197043E+02  0.31353370906E+02 -0.12459224109E+03  0.12906101088E+03  0.00000000000E+00 0.  1.
         14    1    4    4    0    0 -0.41309159929E+02  0.28034354762E+02 -0.95721464160E+03  0.95851564507E+03  0.00000000000E+00 0. -1.
         -5    1    5    5    0  502 -0.34783867955E+02 -0.44936351966E+01 -0.12906434036E+03  0.13382751652E+03  0.47000000000E+01 0.  1.
         11    1    6    6    0    0  0.19509526747E+02 -0.13805405298E+02 -0.47554533205E+02  0.53222593676E+02  0.00000000000E+00 0. -1.
        -12    1    6    6    0    0  0.43621333313E+01 -0.69112837906E+02  0.79747805201E+01  0.69708031782E+02  0.00000000000E+00 0.  1.
</event>
<event>
12    1  0.1681255E-001  0.2497499E+03  0.7818608E-02  0.1113795E+00
         21   -1    0    0  501  502  0.00000000000E+00  0.00000000000E+00  0.33592825061E+03  0.33592825061E+03  0.00000000000E+00 0. -1.
         21   -1    0    0  502  503 -0.00000000000E+00 -0.00000000000E+00 -0.20399736128E+03  0.20399736128E+03  0.00000000000E+00 0.  1.
         -6    2    1    2    0  503  0.94441199365E+00 -0.18013388518E+03 -0.18534807023E+02  0.24835242822E+03  0.16995964530E+03 0.  0.
        -24    2    3    3    0    0 -0.29480572497E+02 -0.59525627218E+02  0.38788684026E+02  0.11131190795E+03  0.80457283034E+02 0.  0.
          6    2    1    2  501    0 -0.94441199365E+00  0.18013388518E+03  0.15046569635E+03  0.29157318367E+03  0.17299100309E+03 0.  0.
         24    2    5    5    0    0  0.51628326080E+02  0.83531473863E+02  0.12622214670E+03  0.17885336127E+03  0.80084351419E+02 0.  0.
          5    1    5    5  501    0 -0.52572738073E+02  0.96602411317E+02  0.24243549654E+02  0.11271982239E+03  0.47000000000E+01 0. -1.
        -11    1    6    6    0    0  0.20200323840E+02  0.67099631979E+02  0.29857656473E+02  0.76170160463E+02  0.00000000000E+00 0.  1.
         12    1    6    6    0    0  0.31428002240E+02  0.16431841885E+02  0.96364490223E+02  0.10268320081E+03  0.00000000000E+00 0. -1.
         -5    1    3    3    0  503  0.30424984491E+02 -0.12060825796E+03 -0.57323491050E+02  0.13704052027E+03  0.47000000000E+01 0.  1.
         13    1    4    4    0    0  0.22839245223E+02  0.26910694732E+01  0.71871913622E+01  0.24094163130E+02  0.00000000000E+00 0. -1.
        -14    1    4    4    0    0 -0.52319817720E+02 -0.62216696691E+02  0.31601492664E+02  0.87217744823E+02  0.00000000000E+00 0.  1.
</event>
<event>
12    1  0.1681255E-001  0.1975078E+03  0.7818608E-02  0.1151868E+00
         21   -1    0    0  501  502  0.00000000000E+00  0.00000000000E+00  0.63213706737E+02  0.63213706737E+02  0.00000000000E+00 0. -1.
         21   -1    0    0  502  503 -0.00000000000E+00 -0.00000000000E+00 -0.73773591511E+03  0.73773591511E+03  0.00000000000E+00 0. -1.
         -6    2    1    2    0  503  0.23552264334E+02  0.94481458160E+02 -0.49926167592E+03  0.53689358263E+03  0.17178778458E+03 0.  0.
        -24    2    3    3    0    0 -0.35751037865E+02  0.78144545626E+02 -0.41533768982E+03  0.43273456091E+03  0.85843444110E+02 0.  0.
          6    2    1    2  501    0 -0.23552264334E+02 -0.94481458160E+02 -0.17526053245E+03  0.26405603922E+03  0.17183679036E+03 0.  0.
         24    2    5    5    0    0 -0.68847930230E+02 -0.52445992943E+02 -0.65703623965E+02  0.13818513757E+03  0.85367126992E+02 0.  0.
          5    1    5    5  501    0  0.45295665896E+02 -0.42035465217E+02 -0.10955690849E+03  0.12587090165E+03  0.47000000000E+01 0. -1.
        -13    1    6    6    0    0 -0.40922166958E+01 -0.31833903160E+01 -0.56005719741E+02  0.56245185172E+02  0.00000000000E+00 0.  1.
         14    1    6    6    0    0 -0.64755713534E+02 -0.49262602627E+02 -0.96979042245E+01  0.81939952399E+02  0.00000000000E+00 0. -1.
         -5    1    3    3    0  503  0.59303302199E+02  0.16336912535E+02 -0.83923986099E+02  0.10415902172E+03  0.47000000000E+01 0.  1.
         11    1    4    4    0    0 -0.37404182353E+02  0.36488626129E+02 -0.85003682212E+02  0.99780352194E+02  0.00000000000E+00 0. -1.
        -12    1    4    4    0    0  0.16531444878E+01  0.41655919497E+02 -0.33033400761E+03  0.33295420871E+03  0.00000000000E+00 0.  1.
</event>
<event>
12    1  0.1681255E-001  0.1774215E+03  0.7818608E-02  0.1170604E+00
         21   -1    0    0  501  502  0.00000000000E+00  0.00000000000E+00  0.31143305035E+03  0.31143305035E+03  0.00000000000E+00 0.  1.
         21   -1    0    0  502  503 -0.00000000000E+00 -0.00000000000E+00 -0.10044421775E+03  0.10044421775E+03  0.00000000000E+00 0.  1.
         -6    2    1    2    0  503 -0.45616963438E+02  0.21007567064E+02  0.10248954865E+03  0.20390974269E+03  0.16897588690E+03 0.  0.
        -24    2    3    3    0    0 -0.69843247742E+02 -0.35734867096E+02  0.49981114884E+02  0.12275654003E+03  0.80099914441E+02 0.  0.
          6    2    1    2  501    0  0.45616963438E+02 -0.21007567064E+02  0.10849928394E+03  0.20796752541E+03  0.17016513093E+03 0.  0.
         24    2    5    5    0    0  0.71367995960E+02 -0.59217287286E+02  0.10658749362E+03  0.16161190722E+03  0.78469336685E+02 0.  0.
          5    1    5    5  501    0 -0.25751032522E+02  0.38209720222E+02  0.19117903253E+01  0.46355618189E+02  0.47000000000E+01 0. -1.
        -13    1    6    6    0    0  0.14776929430E+02 -0.59474702362E+01  0.76712539861E+02  0.78348859708E+02  0.00000000000E+00 0.  1.
         14    1    6    6    0    0  0.56591066530E+02 -0.53269817050E+02  0.29874953756E+02  0.83263047515E+02  0.00000000000E+00 0. -1.
         -5    1    3    3    0  503  0.24226284305E+02  0.56742434161E+02  0.52508433770E+02  0.81153202664E+02  0.47000000000E+01 0.  1.
         13    1    4    4    0    0 -0.17182816273E+02 -0.41608017792E+02  0.53177883517E+02  0.69673263272E+02  0.00000000000E+00 0. -1.
        -14    1    4    4    0    0 -0.52660431469E+02  0.58731506957E+01 -0.31967686332E+01  0.53083276757E+02  0.00000000000E+00 0.  1.
</event>
<event>
12    1  0.1681255E-001  0.2013126E+03  0.7818608E-02  0.1149155E+00
         21   -1    0    0  501  502  0.00000000000E+00  0.00000000000E+00  0.20847824717E+03  0.20847824717E+03  0.00000000000E+00 0.  1.
         21   -1    0    0  502  503 -0.00000000000E+00 -0.00000000000E+00 -0.36805764984E+03  0.36805764984E+03  0.00000000000E+00 0.  1.
         -6    2    1    2    0  503 -0.47036431248E+02  0.92280615363E+02 -0.27940355359E+03  0.34437349794E+03  0.17262277511E+03 0.  0.
        -24    2    3    3    0    0 -0.33197273541E+02 -0.16753110393E+02 -0.94470204524E+02  0.12919378413E+03  0.79897988940E+02 0.  0.
          6    2    1    2  501    0  0.47036431248E+02 -0.92280615363E+02  0.11982415091E+03  0.23216239907E+03  0.16974514592E+03 0.  0.
         24    2    5    5    0    0 -0.19166154868E+02 -0.33198257674E+02  0.11206520837E+03  0.14296711563E+03  0.80071963994E+02 0.  0.
          5    1    5    5  501    0  0.66202586116E+02 -0.59082357689E+02  0.77589425397E+01  0.89195283439E+02  0.47000000000E+01 0. -1.
        -11    1    6    6    0    0 -0.90521557681E+00 -0.50801514332E+02  0.10498418945E+03  0.11663315699E+03  0.00000000000E+00 0.  1.
         12    1    6    6    0    0 -0.18260939291E+02  0.17603256658E+02  0.70810189231E+01  0.26333958642E+02  0.00000000000E+00 0. -1.
         -5    1    3    3    0  503 -0.13839157707E+02  0.10903372576E+03 -0.18493334907E+03  0.21517971381E+03  0.47000000000E+01 0.  1.
         11    1    4    4    0    0 -0.11232720438E+02  0.12246725051E+02  0.94312449153E+01  0.19107712148E+02  0.00000000000E+00 0. -1.
        -12    1    4    4    0    0 -0.21964553103E+02 -0.28999835444E+02 -0.10390144944E+03  0.11008607198E+03  0.00000000000E+00 0.  1.
</event>
<event>
12    1  0.1681255E-001  0.1746968E+03  0.7818608E-02  0.1173051E+00
         21   -1    0    0  503  502  0.00000000000E+00  0.00000000000E+00  0.29275547002E+02  0.29275547002E+02  0.00000000000E+00 0.  1.
         21   -1    0    0  501  503 -0.00000000000E+00 -0.00000000000E+00 -0.18352611624E+04  0.18352611624E+04  0.00000000000E+00 0.  1.
          6    2    1    2  501    0 -0.32800212868E+02  0.36533177481E+01 -0.15159497759E+04  0.15259825340E+04  0.17155107177E+03 0.  0.
         24    2    3    3    0    0 -0.39227394205E+02  0.61516870811E+02 -0.11869768181E+04  0.11918645961E+04  0.79398582524E+02 0.  0.
         -6    2    1    2    0  502  0.32800212868E+02 -0.36533177481E+01 -0.29003583945E+03  0.33855417539E+03  0.17149035195E+03 0.  0.
        -24    2    5    5    0    0 -0.39960795956E+02  0.13031070956E+02 -0.21379678604E+03  0.23175054017E+03  0.78946647322E+02 0.  0.
          5    1    3    3  501    0  0.64271813370E+01 -0.57863553063E+02 -0.32897295779E+03  0.33411793785E+03  0.47000000000E+01 0. -1.
        -13    1    4    4    0    0 -0.14695277175E+02  0.17546475452E+02 -0.91378156948E+03  0.91406815210E+03  0.00000000000E+00 0.  1.
         14    1    4    4    0    0 -0.24532117030E+02  0.43970395359E+02 -0.27319524863E+03  0.27779644402E+03  0.00000000000E+00 0. -1.
         -5    1    5    5    0  502  0.72761008824E+02 -0.16684388704E+02 -0.76239053416E+02  0.10680363523E+03  0.47000000000E+01 0.  1.
         11    1    6    6    0    0 -0.17876022509E+02  0.45590701939E+02 -0.10004115223E+03  0.11138355545E+03  0.00000000000E+00 0. -1.
        -12    1    6    6    0    0 -0.22084773448E+02 -0.32559630982E+02 -0.11375563381E+03  0.12036698472E+03  0.00000000000E+00 0.  1.
</event>
<event>
12    1  0.1681255E-001  0.2605289E+03  0.7818608E-02  0.1107238E+00
         21   -1    0    0  503  502  0.00000000000E+00  0.00000000000E+00  0.56642617324E+03  0.56642617324E+03  0.00000000000E+00 0. -1.
         21   -1    0    0  501  503 -0.00000000000E+00 -0.00000000000E+00 -0.13583072501E+03  0.13583072501E+03  0.00000000000E+00 0. -1.
          6    2    1    2  501    0 -0.15316067437E+03  0.12631957686E+03  0.34143454822E+03  0.42947976969E+03  0.16870238346E+03 0.  0.
         24    2    3    3    0    0 -0.16479144075E+03  0.66026937557E+02  0.29081322324E+03  0.34976097878E+03  0.79023009581E+02 0.  0.
         -6    2    1    2    0  502  0.15316067437E+03 -0.12631957686E+03  0.89160900005E+02  0.27277712856E+03  0.16444715901E+03 0.  0.
        -24    2    5    5    0    0  0.28828668254E+02 -0.54512468258E+02 -0.10328758769E+02  0.98034486965E+02  0.75507457035E+02 0.  0.
          5    1    3    3  501    0  0.11630766381E+02  0.60292639302E+02  0.50621324986E+02  0.79718790909E+02  0.47000000000E+01 0. -1.
        -11    1    4    4    0    0 -0.22591623157E+01  0.11136822187E+02  0.65994852729E+02  0.66966060132E+02  0.00000000000E+00 0.  1.
         12    1    4    4    0    0 -0.16253227843E+03  0.54890115369E+02  0.22481837051E+03  0.28279491865E+03  0.00000000000E+00 0. -1.
         -5    1    5    5    0  502  0.12433200611E+03 -0.71807108601E+02  0.99489658774E+02  0.17474264160E+03  0.47000000000E+01 0.  1.
         11    1    6    6    0    0  0.37032022844E+01 -0.23579752084E+02  0.31984729277E+02  0.39909163389E+02  0.00000000000E+00 0. -1.
        -12    1    6    6    0    0  0.25125465970E+02 -0.30932716173E+02 -0.42313488046E+02  0.58125323575E+02  0.00000000000E+00 0.  1.
</event>
<event>
12    1  0.1681255E-001  0.3219949E+03  0.7818608E-02  0.1075507E+00
         21   -1    0    0  501  502  0.00000000000E+00  0.00000000000E+00  0.65461429707E+02  0.65461429707E+02  0.00000000000E+00 0. -1.
         21   -1    0    0  502  503 -0.00000000000E+00 -0.00000000000E+00 -0.16933865849E+04  0.16933865849E+04  0.00000000000E+00 0. -1.
         -6    2    1    2    0  503  0.16983609442E+03  0.21251428570E+03 -0.10766979946E+04  0.11238146118E+04  0.17226168931E+03 0.  0.
        -24    2    3    3    0    0  0.18054580115E+03  0.20250197565E+03 -0.83980803644E+03  0.88642487650E+03  0.82871509791E+02 0.  0.
          6    2    1    2  501    0 -0.16983609442E+03 -0.21251428570E+03 -0.55122716065E+03  0.63503340283E+03  0.15940332329E+03 0.  0.
         24    2    5    5    0    0 -0.10604303519E+03 -0.74304309344E+02 -0.19520994538E+03  0.24781008284E+03  0.80849605346E+02 0.  0.
          5    1    5    5  501    0 -0.63793059231E+02 -0.13820997635E+03 -0.35601721527E+03  0.38722331999E+03  0.47000000000E+01 0. -1.
        -11    1    6    6    0    0 -0.37550837978E+02 -0.87823425389E+01 -0.12227300484E+03  0.12821030647E+03  0.00000000000E+00 0.  1.
         12    1    6    6    0    0 -0.68492197211E+02 -0.65521966805E+02 -0.72936940541E+02  0.11959977637E+03  0.00000000000E+00 0. -1.
         -5    1    3    3    0  503 -0.10709706730E+02  0.10012310044E+02 -0.23688995811E+03  0.23738973530E+03  0.47000000000E+01 0.  1.
         13    1    4    4    0    0  0.18330672524E+03  0.17128592644E+03 -0.71478149122E+03  0.75753072829E+03  0.00000000000E+00 0. -1.
        -14    1    4    4    0    0 -0.27609240889E+01  0.31216049216E+02 -0.12502654523E+03  0.12889414821E+03  0.00000000000E+00 0.  1.
</event>
<event>
12    1  0.1681255E-001  0.1836641E+03  0.7818608E-02  0.1164337E+00
         21   -1    0    0  503  502  0.00000000000E+00  0.00000000000E+00  0.33348759783E+02  0.33348759783E+02  0.00000000000E+00 0. -1.
         21   -1    0    0  501  503 -0.00000000000E+00 -0.00000000000E+00 -0.12403463411E+04  0.12403463411E+04  0.00000000000E+00 0.  1.
          6    2    1    2  501    0 -0.50210141532E+02  0.42434671289E+02 -0.87770680169E+03  0.89671720442E+03  0.17149564229E+03 0.  0.
         24    2    3    3    0    0 -0.95376323311E+02  0.45637748326E+01 -0.61449988475E+03  0.62695034230E+03  0.79618793353E+02 0.  0.
         -6    2    1    2    0  502  0.50210141532E+02 -0.42434671289E+02 -0.32929077965E+03  0.37697789649E+03  0.17134222258E+03 0.  0.
        -24    2    5    5    0    0 -0.30544258785E+02 -0.23152403220E+02 -0.24190193479E+03  0.25634631174E+03  0.75682890872E+02 0.  0.
          5    1    3    3  501    0  0.45166181779E+02  0.37870896456E+02 -0.26320691694E+03  0.26976686212E+03  0.47000000000E+01 0. -1.
        -13    1    4    4    0    0 -0.36034662013E+01  0.29104901322E+02 -0.14472016984E+03  0.14766180213E+03  0.00000000000E+00 0.  1.
         14    1    4    4    0    0 -0.91772857109E+02 -0.24541126490E+02 -0.46977971491E+03  0.47928854017E+03  0.00000000000E+00 0. -1.
         -5    1    5    5    0  502  0.80754400317E+02 -0.19282268069E+02 -0.87388844868E+02  0.12063158475E+03  0.47000000000E+01 0.  1.
         11    1    6    6    0    0  0.18213907353E+02 -0.24077178040E+02 -0.50561785138E+02  0.58889311762E+02  0.00000000000E+00 0. -1.
        -12    1    6    6    0    0 -0.48758166139E+02  0.92477482046E+00 -0.19134014965E+03  0.19745699998E+03  0.00000000000E+00 0.  1.
</event>
<event>
12    1  0.1681255E-001  0.2329437E+03  0.7818608E-02  0.1124651E+00
         21   -1    0    0  501  502  0.00000000000E+00  0.00000000000E+00  0.85621328244E+03  0.85621328244E+03  0.00000000000E+00 0.  1.
         21   -1    0    0  502  503 -0.00000000000E+00 -0.00000000000E+00 -0.10913405986E+03  0.10913405986E+03  0.00000000000E+00 0.  1.
         -6    2    1    2    0  503 -0.15588352136E+03  0.22124704404E+02  0.60466135527E+02  0.24029542679E+03  0.17116239019E+03 0.  0.
        -24    2    3    3    0    0 -0.19250076931E+02 -0.26759172722E+02  0.17366190770E+02  0.88842375264E+02  0.80652118844E+02 0.  0.
          6    2    1    2  501    0  0.15588352136E+03 -0.22124704404E+02  0.68661308705E+03  0.72505191551E+03  0.17167869434E+03 0.  0.
         24    2    5    5    0    0  0.16448577192E+03 -0.51082231391E+02  0.48131038220E+03  0.51748547385E+03  0.80414974343E+02 0.  0.
          5    1    5    5  501    0 -0.86022505618E+01  0.28957526987E+02  0.20530270485E+03  0.20756644166E+03  0.47000000000E+01 0. -1.
        -11    1    6    6    0    0  0.71185251114E+02 -0.13536335997E+01  0.29299069676E+03  0.30151736383E+03  0.00000000000E+00 0.  1.
         12    1    6    6    0    0  0.93300520808E+02 -0.49728597792E+02  0.18831968544E+03  0.21596811002E+03  0.00000000000E+00 0. -1.
         -5    1    3    3    0  503 -0.13663344443E+03  0.48883877126E+02  0.43099944757E+02  0.15145305153E+03  0.47000000000E+01 0.  1.
         13    1    4    4    0    0 -0.16130829401E+02  0.24199064921E+02  0.23541578647E+02  0.37416631669E+02  0.00000000000E+00 0. -1.
        -14    1    4    4    0    0 -0.31192475302E+01 -0.50958237643E+02 -0.61753878776E+01  0.51425743595E+02  0.00000000000E+00 0.  1.
</event>
<event>
12    1  0.1681255E-001  0.2296785E+03  0.7818608E-02  0.1128323E+00
         21   -1    0    0  501  502  0.00000000000E+00  0.00000000000E+00  0.37713765147E+03  0.37713765147E+03  0.00000000000E+00 0. -1.
         21   -1    0    0  502  503 -0.00000000000E+00 -0.00000000000E+00 -0.65826732640E+03  0.65826732640E+03  0.00000000000E+00 0. -1.
         -6    2    1    2    0  503  0.12929834721E+03 -0.49447296583E+02 -0.60264825816E+03  0.64493188579E+03  0.18327333828E+03 0.  0.
        -24    2    3    3    0    0  0.54420952755E+02 -0.24438177536E+02 -0.52411391714E+03  0.53347869851E+03  0.79657134071E+02 0.  0.
          6    2    1    2  501    0 -0.12929834721E+03  0.49447296583E+02  0.32151858322E+03  0.39047309208E+03  0.17300849271E+03 0.  0.
         24    2    5    5    0    0 -0.75598484263E+02  0.60936689249E+02  0.30966405071E+03  0.33409666646E+03  0.79374727204E+02 0.  0.
          5    1    5    5  501    0 -0.53699862946E+02 -0.11489392665E+02  0.11854532513E+02  0.56376425617E+02  0.47000000000E+01 0. -1.
        -13    1    6    6    0    0 -0.30146825163E+02  0.70488613539E+02  0.16051376158E+03  0.17788238632E+03  0.00000000000E+00 0.  1.
         14    1    6    6    0    0 -0.45451659100E+02 -0.95519242902E+01  0.14915028913E+03  0.15621428014E+03  0.00000000000E+00 0. -1.
         -5    1    3    3    0  503  0.74877394455E+02 -0.25009119047E+02 -0.78534341019E+02  0.11145318728E+03  0.47000000000E+01 0.  1.
         11    1    4    4    0    0  0.67010453070E+02 -0.14226672751E+02 -0.26017394976E+03  0.26904141534E+03  0.00000000000E+00 0. -1.
        -12    1    4    4    0    0 -0.12589500315E+02 -0.10211504785E+02 -0.26393996738E+03  0.26443728317E+03  0.00000000000E+00 0.  1.
</event>
<event>
12    1  0.1681255E-001  0.1964587E+03  0.7818608E-02  0.1153364E+00
         21   -1    0    0  503  502  0.00000000000E+00  0.00000000000E+00  0.10721065338E+03  0.10721065338E+03  0.00000000000E+00 0. -1.
         21   -1    0    0  501  503 -0.00000000000E+00 -0.00000000000E+00 -0.11977064790E+04  0.11977064790E+04  0.00000000000E+00 0.  1.
          6    2    1    2  501    0 -0.87306377837E+02  0.15812995112E+02 -0.10936959300E+04  0.11112006141E+04  0.17528138228E+03 0.  0.
         24    2    3    3    0    0 -0.12872329467E+03 -0.64165345498E+00 -0.85752963359E+03  0.87082023629E+03  0.80004456974E+02 0.  0.
         -6    2    1    2    0  502  0.87306377837E+02 -0.15812995112E+02  0.32001044089E+01  0.19371651829E+03  0.17217257147E+03 0.  0.
        -24    2    5    5    0    0  0.59842357392E+02  0.22277659984E+02 -0.57687006415E+02  0.11668080781E+03  0.78798593451E+02 0.  0.
          5    1    3    3  501    0  0.41416916834E+02  0.16454648567E+02 -0.23616629644E+03  0.24038037781E+03  0.47000000000E+01 0. -1.
        -13    1    4    4    0    0 -0.12088548538E+03 -0.26038985892E+02 -0.74509901858E+03  0.75529059100E+03  0.00000000000E+00 0.  1.
         14    1    4    4    0    0 -0.78378092880E+01  0.25397332437E+02 -0.11243061501E+03  0.11552964529E+03  0.00000000000E+00 0. -1.
         -5    1    5    5    0  502  0.27464020445E+02 -0.38090655096E+02  0.60887110824E+02  0.77035710480E+02  0.47000000000E+01 0.  1.
         11    1    6    6    0    0  0.51526134680E+02 -0.22178120449E+02 -0.29361782114E+02  0.63316078768E+02  0.00000000000E+00 0. -1.
        -12    1    6    6    0    0  0.83162227124E+01  0.44455780433E+02 -0.28325224301E+02  0.53364729043E+02  0.00000000000E+00 0.  1.
</event>
<event>
12    1  0.1681255E-001  0.2096618E+03  0.7818608E-02  0.1141987E+00
         21   -1    0    0  501  502  0.00000000000E+00  0.00000000000E+00  0.54431266464E+03  0.54431266464E+03  0.00000000000E+00 0. -1.
         21   -1    0    0  502  503 -0.00000000000E+00 -0.00000000000E+00 -0.80653547646E+02  0.80653547646E+02  0.00000000000E+00 0.  1.
         -6    2    1    2    0  503 -0.11482220774E+00 -0.11858781064E+03  0.24748571285E+03  0.32435667613E+03  0.17290168672E+03 0.  0.
        -24    2    3    3    0    0 -0.54326012232E+02 -0.12160138087E+03  0.17957852521E+03  0.23728537855E+03  0.79483914865E+02 0.  0.
          6    2    1    2  501    0  0.11482220774E+00  0.11858781064E+03  0.21617340414E+03  0.30060953615E+03  0.17196531787E+03 0.  0.
         24    2    5    5    0    0  0.46924052607E+02  0.87427281698E+02  0.71120717179E+02  0.14496746405E+03  0.78179363786E+02 0.  0.
          5    1    5    5  501    0 -0.46809230399E+02  0.31160528942E+02  0.14505268696E+03  0.15564207210E+03  0.47000000000E+01 0. -1.
        -11    1    6    6    0    0 -0.93410652226E+01  0.26975334592E+02 -0.89722150707E+01  0.29923649830E+02  0.00000000000E+00 0.  1.
         12    1    6    6    0    0  0.56265117830E+02  0.60451947105E+02  0.80092932249E+02  0.11504381422E+03  0.00000000000E+00 0. -1.
         -5    1    3    3    0  503  0.54211190024E+02  0.30135702307E+01  0.67907187640E+02  0.87071297581E+02  0.47000000000E+01 0.  1.
         13    1    4    4    0    0 -0.74339772245E+01 -0.96952113978E+02  0.86285968562E+02  0.13000094151E+03  0.00000000000E+00 0. -1.
        -14    1    4    4    0    0 -0.46892035007E+02 -0.24649266893E+02  0.93292556653E+02  0.10728443705E+03  0.00000000000E+00 0.  1.
</event>
<event>
12    1  0.1681255E-001  0.2330651E+03  0.7818608E-02  0.1124535E+00
         21   -1    0    0  503  502  0.00000000000E+00  0.00000000000E+00  0.15472157708E+03  0.15472157708E+03  0.00000000000E+00 0.  1.
         21   -1    0    0  501  503 -0.00000000000E+00 -0.00000000000E+00 -0.51971840204E+03  0.51971840204E+03  0.00000000000E+00 0.  1.
          6    2    1    2  501    0  0.14323819156E+03 -0.65592999684E+02 -0.37481233550E+03  0.44136564584E+03  0.17175484084E+03 0.  0.
         24    2    3    3    0    0  0.16122400473E+03 -0.33693659565E+02 -0.35578678087E+03  0.39983109270E+03  0.78436132308E+02 0.  0.
         -6    2    1    2    0  502 -0.14323819156E+03  0.65592999684E+02  0.98155105422E+01  0.23307433328E+03  0.17148667428E+03 0.  0.
        -24    2    5    5    0    0 -0.65663814961E+02  0.96138869093E+02 -0.22559816395E+02  0.14351381834E+03  0.80826060102E+02 0.  0.
          5    1    3    3  501    0 -0.17985813167E+02 -0.31899340119E+02 -0.19025554628E+02  0.41534553136E+02  0.47000000000E+01 0. -1.
        -11    1    4    4    0    0  0.16988961343E+02  0.21999701852E+02 -0.56369215082E+02  0.62849821782E+02  0.00000000000E+00 0.  1.
         12    1    4    4    0    0  0.14423504338E+03 -0.55693361416E+02 -0.29941756579E+03  0.33698127092E+03  0.00000000000E+00 0. -1.
         -5    1    5    5    0  502 -0.77574376599E+02 -0.30545869409E+02  0.32375326937E+02  0.89560514943E+02  0.47000000000E+01 0.  1.
         11    1    6    6    0    0 -0.43552071990E+01  0.75352000228E+02 -0.22559783934E+02  0.78777126244E+02  0.00000000000E+00 0. -1.
        -12    1    6    6    0    0 -0.61308607762E+02  0.20786868865E+02 -0.32460787978E-04  0.64736692091E+02  0.00000000000E+00 0.  1.
</event>
<event>
12    1  0.1681255E-001  0.3222299E+03  0.7818608E-02  0.1075297E+00
         21   -1    0    0  503  502  0.00000000000E+00  0.00000000000E+00  0.20011356894E+04  0.20011356894E+04  0.00000000000E+00 0. -1.
         21   -1    0    0  501  503 -0.00000000000E+00 -0.00000000000E+00 -0.51739969785E+02  0.51739969785E+02  0.00000000000E+00 0.  1.
          6    2    1    2  501    0 -0.24788746705E+03 -0.11444586386E+03  0.85696160820E+03  0.91554098650E+03  0.17113166851E+03 0.  0.
         24    2    3    3    0    0 -0.14618568326E+03 -0.44392304300E+02  0.66544935982E+03  0.68761603106E+03  0.81559947412E+02 0.  0.
         -6    2    1    2    0  502  0.24788746705E+03  0.11444586386E+03  0.10924341114E+04  0.11373346727E+04  0.15991190645E+03 0.  0.
        -24    2    5    5    0    0  0.12708553087E+03  0.11056629040E+03  0.52490881176E+03  0.55706299956E+03  0.80089250773E+02 0.  0.
          5    1    3    3  501    0 -0.10170178378E+03 -0.70053559563E+02  0.19151224838E+03  0.22792495544E+03  0.47000000000E+01 0. -1.
        -11    1    4    4    0    0 -0.11507505692E+03 -0.41492572968E+02  0.35272736553E+03  0.37333697477E+03  0.00000000000E+00 0.  1.
         12    1    4    4    0    0 -0.31110626339E+02 -0.28997313323E+01  0.31272199428E+03  0.31427905629E+03  0.00000000000E+00 0. -1.
         -5    1    5    5    0  502  0.12080193618E+03  0.38795734641E+01  0.56752529966E+03  0.58027167313E+03  0.47000000000E+01 0.  1.
         11    1    6    6    0    0  0.10440706775E+03  0.82549352853E+02  0.48654746169E+03  0.50442409134E+03  0.00000000000E+00 0. -1.
        -12    1    6    6    0    0  0.22678463124E+02  0.28016937547E+02  0.38361350067E+02  0.52638908215E+02  0.00000000000E+00 0.  1.
</event>
<event>
12    1  0.1681255E-001  0.1957453E+03  0.7818608E-02  0.1153535E+00
         21   -1    0    0  501  502  0.00000000000E+00  0.00000000000E+00  0.38354406671E+02  0.38354406671E+02  0.00000000000E+00 0.  1.
         21   -1    0    0  502  503 -0.00000000000E+00 -0.00000000000E+00 -0.10294007345E+04  0.10294007345E+04  0.00000000000E+00 0. -1.
         -6    2    1    2    0  503  0.51046383411E+02 -0.73124866096E+02 -0.39755923311E+03  0.44282062242E+03  0.17344676562E+03 0.  0.
        -24    2    3    3    0    0 -0.26818209430E+02 -0.18089289656E+02 -0.27692343264E+03  0.28898013409E+03  0.76003234126E+02 0.  0.
          6    2    1    2  501    0 -0.51046383411E+02  0.73124866096E+02 -0.59348709473E+03  0.62493451877E+03  0.17425051459E+03 0.  0.
         24    2    5    5    0    0  0.19045940196E+02 -0.11338416658E+02 -0.23449134200E+03  0.24950540370E+03  0.82313118468E+02 0.  0.
          5    1    5    5  501    0 -0.70092323607E+02  0.84463282754E+02 -0.35899575273E+03  0.37542911507E+03  0.47000000000E+01 0. -1.
        -13    1    6    6    0    0 -0.31840452526E+01 -0.22840252312E+02 -0.12740426798E+02  0.26346418064E+02  0.00000000000E+00 0.  1.
         14    1    6    6    0    0  0.22229985449E+02  0.11501835654E+02 -0.22175091520E+03  0.22315898563E+03  0.00000000000E+00 0. -1.
         -5    1    3    3    0  503  0.77864592841E+02 -0.55035576440E+02 -0.12063580047E+03  0.15384048833E+03  0.47000000000E+01 0.  1.
         13    1    4    4    0    0 -0.34907219091E+02 -0.26534330968E+02 -0.27321657369E+03  0.27671263217E+03  0.00000000000E+00 0. -1.
        -14    1    4    4    0    0  0.80890096608E+01  0.84450413113E+01 -0.37068589468E+01  0.12267501917E+02  0.00000000000E+00 0.  1.
</event>
<event>
12    1  0.1681255E-001  0.2410039E+03  0.7818608E-02  0.1119154E+00
         21   -1    0    0  501  502  0.00000000000E+00  0.00000000000E+00  0.43738775568E+03  0.43738775568E+03  0.00000000000E+00 0. -1.
         21   -1    0    0  502  503 -0.00000000000E+00 -0.00000000000E+00 -0.13431801934E+03  0.13431801934E+03  0.00000000000E+00 0.  1.
         -6    2    1    2    0  503  0.16630634466E+03  0.32365892777E+02  0.12010827381E+03  0.26912065393E+03  0.17115658809E+03 0.  0.
        -24    2    3    3    0    0  0.17002293060E+03  0.72529404593E+02  0.87729423056E+02  0.21718414781E+03  0.72829876617E+02 0.  0.
          6    2    1    2  501    0 -0.16630634466E+03 -0.32365892777E+02  0.18296146253E+03  0.30258512109E+03  0.17139867981E+03 0.  0.
         24    2    5    5    0    0 -0.51206304200E+02 -0.70967954348E+02  0.10293150447E+03  0.15710308556E+03  0.80174489381E+02 0.  0.
          5    1    5    5  501    0 -0.11510004046E+03  0.38602061571E+02  0.80029958066E+02  0.14548203552E+03  0.47000000000E+01 0. -1.
        -11    1    6    6    0    0 -0.29339589921E+02  0.47487480199E+01  0.30565378919E+01  0.29878162064E+02  0.00000000000E+00 0.  1.
         12    1    6    6    0    0 -0.21866714280E+02 -0.75716702368E+02  0.99874966577E+02  0.12722492350E+03  0.00000000000E+00 0. -1.
         -5    1    3    3    0  503 -0.37165859402E+01 -0.40163511816E+02  0.32378850750E+02  0.51936506124E+02  0.47000000000E+01 0.  1.
         11    1    4    4    0    0  0.10643229068E+03  0.24363085850E+02  0.83218834521E+02  0.13728352731E+03  0.00000000000E+00 0. -1.
        -12    1    4    4    0    0  0.63590639922E+02  0.48166318744E+02  0.45105885340E+01  0.79900620497E+02  0.00000000000E+00 0.  1.
</event>
<event>
12    1  0.1681255E-001  0.2421061E+03  0.7818608E-02  0.1118506E+00
         21   -1    0    0  501  502  0.00000000000E+00  0.00000000000E+00  0.34468391285E+02  0.34468391285E+02  0.00000000000E+00 0.  1.
         21   -1    0    0  502  503 -0.00000000000E+00 -0.00000000000E+00 -0.17942840661E+04  0.17942840661E+04  0.00000000000E+00 0.  1.
         -6    2    1    2    0  503  0.15897997461E+03 -0.58454717410E+02 -0.10928561491E+04  0.11192100900E+04  0.17206125831E+03 0.  0.
        -24    2    3    3    0    0  0.15556321939E+03 -0.52155043822E+02 -0.10952023287E+04  0.11103244464E+04  0.80200820450E+02 0.  0.
          6    2    1    2  501    0 -0.15897997461E+03  0.58454717410E+02 -0.66695952566E+03  0.70954236733E+03  0.17298490067E+03 0.  0.
         24    2    5    5    0    0 -0.13349333977E+03  0.17986984428E+02 -0.62872442738E+03  0.64813211812E+03  0.81466763658E+02 0.  0.
          5    1    5    5  501    0 -0.25486634836E+02  0.40467732983E+02 -0.38235098275E+02  0.61410249210E+02  0.47000000000E+01 0. -1.
        -11    1    6    6    0    0 -0.41849132251E+02  0.36871842449E+02 -0.14330139523E+03  0.15377312024E+03  0.00000000000E+00 0.  1.
         12    1    6    6    0    0 -0.91644207520E+02 -0.18884858022E+02 -0.48542303216E+03  0.49435899788E+03  0.00000000000E+00 0. -1.
         -5    1    3    3    0  503  0.34167552161E+01 -0.62996735877E+01  0.23461796159E+01  0.88856436069E+01  0.47000000000E+01 0.  1.
         13    1    4    4    0    0  0.30731594255E+02  0.18066541908E+02 -0.14120606074E+03  0.14563647349E+03  0.00000000000E+00 0. -1.
        -14    1    4    4    0    0  0.12483162513E+03 -0.70221585730E+02 -0.95399626800E+03  0.96468797292E+03  0.00000000000E+00 0.  1.
</event>
<event>
12    1  0.1681255E-001  0.2545815E+03  0.7818608E-02  0.1110535E+00
         21   -1    0    0  503  502  0.00000000000E+00  0.00000000000E+00  0.11901762317E+03  0.11901762317E+03  0.00000000000E+00 0. -1.
         21   -1    0    0  501  503 -0.00000000000E+00 -0.00000000000E+00 -0.54337545222E+03  0.54337545222E+03  0.00000000000E+00 0.  1.
          6    2    1    2  501    0 -0.13127000118E+03 -0.13361076730E+03 -0.20816650445E+03  0.32885411084E+03  0.17241833514E+03 0.  0.
         24    2    3    3    0    0 -0.71402321286E+02 -0.15268442417E+03 -0.18323703626E+03  0.26109341525E+03  0.78632913989E+02 0.  0.
         -6    2    1    2    0  502  0.13127000118E+03  0.13361076730E+03 -0.21619132459E+03  0.33353896455E+03  0.17153979624E+03 0.  0.
        -24    2    5    5    0    0  0.78604271599E+02  0.15435399578E+03 -0.13118507409E+03  0.23130338745E+03  0.79296568989E+02 0.  0.
          5    1    3    3  501    0 -0.59867679895E+02  0.19073656868E+02 -0.24929468191E+02  0.67760695588E+02  0.47000000000E+01 0. -1.
        -13    1    4    4    0    0 -0.26631717807E+02 -0.11842813345E+02 -0.50252605388E+01  0.29576238178E+02  0.00000000000E+00 0.  1.
         14    1    4    4    0    0 -0.44770603480E+02 -0.14084161082E+03 -0.17821177572E+03  0.23151717708E+03  0.00000000000E+00 0. -1.
         -5    1    5    5    0  502  0.52665729582E+02 -0.20743228481E+02 -0.85006250500E+02  0.10223557710E+03  0.47000000000E+01 0.  1.
         11    1    6    6    0    0  0.90649331961E+01  0.30221799367E+02  0.76944921679E+01  0.32476689803E+02  0.00000000000E+00 0. -1.
        -12    1    6    6    0    0  0.69539338403E+02  0.12413219642E+03 -0.13887956626E+03  0.19882669765E+03  0.00000000000E+00 0.  1.
</event>
<event>
12    1  0.1681255E-001  0.1877207E+03  0.7818608E-02  0.1160774E+00
         21   -1    0    0  503  502  0.00000000000E+00  0.00000000000E+00  0.10814659562E+04  0.10814659562E+04  0.00000000000E+00 0.  1.
         21   -1    0    0  501  503 -0.00000000000E+00 -0.00000000000E+00 -0.40836703457E+02  0.40836703457E+02  0.00000000000E+00 0.  1.
          6    2    1    2  501    0  0.60822207011E+02  0.40863988928E+02  0.26414757649E+03  0.32345170596E+03  0.17169116887E+03 0.  0.
         24    2    3    3    0    0  0.24994553011E+02 -0.31841780522E+02  0.78602079444E+02  0.12092029808E+03  0.82491241528E+02 0.  0.
         -6    2    1    2    0  502 -0.60822207011E+02 -0.40863988928E+02  0.77648167624E+03  0.79885095368E+03  0.17282895072E+03 0.  0.
        -24    2    5    5    0    0  0.25245762116E+02 -0.26247022775E+02  0.43529360156E+03  0.44663973394E+03  0.93168007740E+02 0.  0.
          5    1    3    3  501    0  0.35827654000E+02  0.72705769450E+02  0.18554549705E+03  0.20253140788E+03  0.47000000000E+01 0. -1.
        -11    1    4    4    0    0  0.33886561535E+02 -0.41980301194E+01 -0.30274127637E+01  0.34279552762E+02  0.00000000000E+00 0.  1.
         12    1    4    4    0    0 -0.88920085233E+01 -0.27643750403E+02  0.81629492208E+02  0.86640745322E+02  0.00000000000E+00 0. -1.
         -5    1    5    5    0  502 -0.86067969127E+02 -0.14616966152E+02  0.34118807468E+03  0.35221121975E+03  0.47000000000E+01 0.  1.
         13    1    6    6    0    0 -0.31126331286E+02 -0.72978810462E+01  0.75895870260E+02  0.82354664043E+02  0.00000000000E+00 0. -1.
        -14    1    6    6    0    0  0.56372093403E+02 -0.18949141729E+02  0.35939773130E+03  0.36428506989E+03  0.00000000000E+00 0.  1.
</event>
<event>
12    1  0.1681255E-001  0.1739113E+03  0.7818608E-02  0.1174730E+00
         21   -1    0    0  501  502  0.00000000000E+00  0.00000000000E+00  0.54908304943E+03  0.54908304943E+03  0.00000000000E+00 0. -1.
         21   -1    0    0  502  503 -0.00000000000E+00 -0.00000000000E+00 -0.66976519206E+02  0.66976519206E+02  0.00000000000E+00 0. -1.
         -6    2    1    2    0  503  0.64856734268E+01  0.19019018299E+02  0.10334933242E+03  0.19928368298E+03  0.16920140299E+03 0.  0.
        -24    2    3    3    0    0 -0.52124471395E+02 -0.13980799648E+02  0.33938415799E+02  0.10251539062E+03  0.80281791025E+02 0.  0.
          6    2    1    2  501    0 -0.64856734268E+01 -0.19019018299E+02  0.37875719781E+03  0.41677588566E+03  0.17274645280E+03 0.  0.
         24    2    5    5    0    0  0.47386709463E+01 -0.50002819908E+02  0.10536177016E+03  0.14136141304E+03  0.79744651756E+02 0.  0.
          5    1    5    5  501    0 -0.11224344373E+02  0.30983801609E+02  0.27339542765E+03  0.27541447262E+03  0.47000000000E+01 0. -1.
        -13    1    6    6    0    0 -0.10786201202E+02  0.19878214911E+02  0.27150160344E+02  0.35335771834E+02  0.00000000000E+00 0.  1.
         14    1    6    6    0    0  0.15524872148E+02 -0.69881034819E+02  0.78211609816E+02  0.10602564120E+03  0.00000000000E+00 0. -1.
         -5    1    3    3    0  503  0.58610144821E+02  0.32999817947E+02  0.69410916618E+02  0.96768292360E+02  0.47000000000E+01 0.  1.
         11    1    4    4    0    0  0.19528670413E+02 -0.59336959539E+00  0.20637454005E+02  0.28418753727E+02  0.00000000000E+00 0. -1.
        -12    1    4    4    0    0 -0.71653141808E+02 -0.13387430053E+02  0.13300961794E+02  0.74096636894E+02  0.00000000000E+00 0.  1.
</event>
<event>
12    1  0.1681255E-001  0.2774516E+03  0.7818608E-02  0.1097119E+00
         21   -1    0    0  501  502  0.00000000000E+00  0.00000000000E+00  0.68536232282E+03  0.68536232282E+03  0.00000000000E+00 0. -1.
         21   -1    0    0  502  503 -0.00000000000E+00 -0.00000000000E+00 -0.15165451957E+03  0.15165451957E+03  0.00000000000E+00 0.  1.
         -6    2    1    2    0  503  0.99241064804E+02  0.19297385353E+03  0.53554628031E+02  0.28257294491E+03  0.17289208751E+03 0.  0.
        -24    2    3    3    0    0  0.11128990902E+03  0.83484071318E+02  0.57339134962E+02  0.17225703696E+03  0.83843165307E+02 0.  0.
          6    2    1    2  501    0 -0.99241064804E+02 -0.19297385353E+03  0.48015317522E+03  0.55444389748E+03  0.17254931669E+03 0.  0.
         24    2    5    5    0    0 -0.50772425761E+02 -0.15499257634E+03  0.19907195279E+03  0.26665833497E+03  0.69831850056E+02 0.  0.
          5    1    5    5  501    0 -0.48468639043E+02 -0.37981277182E+02  0.28108122242E+03  0.28778556251E+03  0.47000000000E+01 0. -1.
        -11    1    6    6    0    0 -0.65128377959E+01 -0.73332897804E+02  0.43626577849E+02  0.85576920086E+02  0.00000000000E+00 0.  1.
         12    1    6    6    0    0 -0.44259587965E+02 -0.81659678539E+02  0.15544537494E+03  0.18108141489E+03  0.00000000000E+00 0. -1.
         -5    1    3    3    0  503 -0.12048844221E+02  0.10948978221E+03 -0.37845069313E+01  0.11031590795E+03  0.47000000000E+01 0.  1.
         11    1    4    4    0    0 -0.77147161118E+00  0.42953297691E+02  0.19923872558E+02  0.47355481717E+02  0.00000000000E+00 0. -1.
        -12    1    4    4    0    0  0.11206138064E+03  0.40530773627E+02  0.37415262404E+02  0.12490155524E+03  0.00000000000E+00 0.  1.
</event>
<event>
12    1  0.1681255E-001  0.3222612E+03  0.7818608E-02  0.1074713E+00
         21   -1    0    0  503  502  0.00000000000E+00  0.00000000000E+00  0.33654236607E+03  0.33654236607E+03  0.00000000000E+00 0.  1.
         21   -1    0    0  501  503 -0.00000000000E+00 -0.00000000000E+00 -0.93109942615E+03  0.93109942615E+03  0.00000000000E+00 0. -1.
          6    2    1    2  501    0 -0.12920159614E+03 -0.23993983685E+03 -0.81574779239E+03  0.87677402730E+03  0.17036448104E+03 0.  0.
         24    2    3    3    0    0 -0.10626207396E+03 -0.15008150265E+03 -0.70153109677E+03  0.72957251418E+03  0.79461235359E+02 0.  0.
         -6    2    1    2    0  502  0.12920159614E+03  0.23993983685E+03  0.22119073231E+03  0.39086776492E+03  0.17201189448E+03 0.  0.
        -24    2    5    5    0    0  0.12951695298E+02  0.51910056537E+02  0.40269986033E+02  0.10516924521E+03  0.81095610134E+02 0.  0.
          5    1    3    3  501    0 -0.22939522183E+02 -0.89858334199E+02 -0.11421669562E+03  0.14720151311E+03  0.47000000000E+01 0. -1.
        -13    1    4    4    0    0 -0.82184971624E+01  0.11251979997E+01 -0.13087372980E+03  0.13113635239E+03  0.00000000000E+00 0.  1.
         14    1    4    4    0    0 -0.98043576794E+02 -0.15120670065E+03 -0.57065736696E+03  0.59843616179E+03  0.00000000000E+00 0. -1.
         -5    1    5    5    0  502  0.11624990084E+03  0.18802978031E+03  0.18092074627E+03  0.28569851971E+03  0.47000000000E+01 0.  1.
         13    1    6    6    0    0  0.42896432228E+02  0.51153152127E+02  0.23097495149E+02  0.70641653099E+02  0.00000000000E+00 0. -1.
        -14    1    6    6    0    0 -0.29944736930E+02  0.75690440986E+00  0.17172490885E+02  0.34527592115E+02  0.00000000000E+00 0.  1.
</event>
<event>
12    1  0.1681255E-001  0.1740731E+03  0.7818608E-02  0.1174280E+00
         21   -1    0    0  501  502  0.00000000000E+00  0.00000000000E+00  0.14940995343E+03  0.14940995343E+03  0.00000000000E+00 0.  1.
         21   -1    0    0  502  503 -0.00000000000E+00 -0.00000000000E+00 -0.26112762147E+03  0.26112762147E+03  0.00000000000E+00 0.  1.
         -6    2    1    2    0  503 -0.35217171426E+01  0.43527394673E+00 -0.15546362521E+03  0.23338889157E+03  0.17403690410E+03 0.  0.
        -24    2    3    3    0    0 -0.15755255129E+02 -0.42829763475E+02 -0.16354230496E+03  0.18746637007E+03  0.79466582232E+02 0.  0.
          6    2    1    2  501    0  0.35217171426E+01 -0.43527394673E+00  0.43745957170E+02  0.17714868333E+03  0.17162562537E+03 0.  0.
         24    2    5    5    0    0  0.38356120551E+01 -0.42299835874E+02 -0.26370155984E+02  0.95349542757E+02  0.81192131038E+02 0.  0.
          5    1    5    5  501    0 -0.31389491246E+00  0.41864561927E+02  0.70116113154E+02  0.81799140577E+02  0.47000000000E+01 0. -1.
        -13    1    6    6    0    0  0.70982919353E+01 -0.58138145081E+02  0.62886499470E+01  0.58906508808E+02  0.00000000000E+00 0.  1.
         14    1    6    6    0    0 -0.32626798802E+01  0.15838309207E+02 -0.32658805931E+02  0.36443033949E+02  0.00000000000E+00 0. -1.
         -5    1    3    3    0  503  0.12233537986E+02  0.43265037422E+02  0.80786797456E+01  0.45922521503E+02  0.47000000000E+01 0.  1.
         13    1    4    4    0    0 -0.30110975180E+02  0.63710549496E+01 -0.24690056973E+02  0.39457066297E+02  0.00000000000E+00 0. -1.
        -14    1    4    4    0    0  0.14355720051E+02 -0.49200818425E+02 -0.13885224799E+03  0.14800930377E+03  0.00000000000E+00 0.  1.
</event>
<event>
12    1  0.1681255E-001  0.1791849E+03  0.7818608E-02  0.1170180E+00
         21   -1    0    0  503  502  0.00000000000E+00  0.00000000000E+00  0.59335333665E+03  0.59335333665E+03  0.00000000000E+00 0.  1.
         21   -1    0    0  501  503 -0.00000000000E+00 -0.00000000000E+00 -0.52214038291E+02  0.52214038291E+02  0.00000000000E+00 0.  1.
          6    2    1    2  501    0  0.18130901790E+01 -0.17549242479E+02  0.27006217584E+03  0.32410000193E+03  0.17831424291E+03 0.  0.
         24    2    3    3    0    0  0.69460777678E+02 -0.23289535132E+02  0.19623859777E+03  0.22369496589E+03  0.78502537703E+02 0.  0.
         -6    2    1    2    0  502 -0.18130901790E+01  0.17549242479E+02  0.27107712252E+03  0.32146737302E+03  0.17189299680E+03 0.  0.
        -24    2    5    5    0    0  0.43877123131E+02  0.25563627323E+02  0.76782175156E+02  0.12165635598E+03  0.79536567390E+02 0.  0.
          5    1    3    3  501    0 -0.67647687499E+02  0.57402926537E+01  0.73823578070E+02  0.10040503604E+03  0.47000000000E+01 0. -1.
        -11    1    4    4    0    0  0.70519241621E+02 -0.25597349035E+02  0.20302857777E+03  0.21644581564E+03  0.00000000000E+00 0.  1.
         12    1    4    4    0    0 -0.10584639430E+01  0.23078139026E+01 -0.67899799993E+01  0.72491502480E+01  0.00000000000E+00 0. -1.
         -5    1    5    5    0  502 -0.45690213310E+02 -0.80143848449E+01  0.19429494737E+03  0.19981101704E+03  0.47000000000E+01 0.  1.
         11    1    6    6    0    0 -0.22296805050E+02 -0.24371628928E+01  0.16151318097E+02  0.27639688035E+02  0.00000000000E+00 0. -1.
        -12    1    6    6    0    0  0.66173928181E+02  0.28000790216E+02  0.60630857058E+02  0.94016667944E+02  0.00000000000E+00 0.  1.
</event>
<event>
12    1  0.1681255E-001  0.1884409E+03  0.7818608E-02  0.1160095E+00
         21   -1    0    0  501  502  0.00000000000E+00  0.00000000000E+00  0.47902360087E+02  0.47902360087E+02  0.00000000000E+00 0. -1.
         21   -1    0    0  502  503 -0.00000000000E+00 -0.00000000000E+00 -0.12621502829E+04  0.12621502829E+04  0.00000000000E+00 0. -1.
         -6    2    1    2    0  503  0.66344949471E+02  0.32661071772E+02 -0.10285237483E+04  0.10454710115E+04  0.17227924202E+03 0.  0.
        -24    2    3    3    0    0  0.34026716039E+02 -0.24268594997E+02 -0.85805313716E+03  0.86280252923E+03  0.80163808130E+02 0.  0.
          6    2    1    2  501    0 -0.66344949471E+02 -0.32661071772E+02 -0.18572417457E+03  0.26458163150E+03  0.17332504948E+03 0.  0.
         24    2    5    5    0    0 -0.38381062592E+02  0.44404892525E+02 -0.66700117191E+02  0.11997887199E+03  0.80629545735E+02 0.  0.
          5    1    5    5  501    0 -0.27963886879E+02 -0.77065964297E+02 -0.11902405738E+03  0.14460275951E+03  0.47000000000E+01 0. -1.
        -11    1    6    6    0    0 -0.62167928897E+02  0.19827358703E+02 -0.47921767698E+02  0.80959689697E+02  0.00000000000E+00 0.  1.
         12    1    6    6    0    0  0.23786866305E+02  0.24577533822E+02 -0.18778349493E+02  0.39019182296E+02  0.00000000000E+00 0. -1.
         -5    1    3    3    0  503  0.32318233432E+02  0.56929666770E+02 -0.17047061112E+03  0.18266848231E+03  0.47000000000E+01 0.  1.
         13    1    4    4    0    0 -0.24916929382E+02  0.26416043740E+01 -0.19882622465E+03  0.20039884993E+03  0.00000000000E+00 0. -1.
        -14    1    4    4    0    0  0.58943645422E+02 -0.26910199371E+02 -0.65922691251E+03  0.66240367930E+03  0.00000000000E+00 0.  1.
</event>
<event>
12    1  0.1681255E-001  0.2286150E+03  0.7818608E-02  0.1128974E+00
         21   -1    0    0  501  502  0.00000000000E+00  0.00000000000E+00  0.47197451221E+03  0.47197451221E+03  0.00000000000E+00 0.  1.
         21   -1    0    0  502  503 -0.00000000000E+00 -0.00000000000E+00 -0.15255598920E+04  0.15255598920E+04  0.00000000000E+00 0.  1.
         -6    2    1    2    0  503 -0.93457515615E+02  0.10020583684E+03 -0.14892264327E+04  0.15055507087E+04  0.17352824485E+03 0.  0.
        -24    2    3    3    0    0 -0.79886511971E+02  0.60102111554E+02 -0.14081218234E+04  0.14139399639E+04  0.80156305560E+02 0.  0.
          6    2    1    2  501    0  0.93457515615E+02 -0.10020583684E+03  0.43564105289E+03  0.49198369549E+03  0.18300085439E+03 0.  0.
         24    2    5    5    0    0  0.43782738669E+02 -0.68386877822E+02  0.41393254276E+03  0.42894895087E+03  0.77867574968E+02 0.  0.
          5    1    5    5  501    0  0.49674776946E+02 -0.31818959019E+02  0.21708510125E+02  0.63034744622E+02  0.47000000000E+01 0. -1.
        -13    1    6    6    0    0  0.38854960105E+02 -0.74834529701E+01  0.77545705540E+02  0.87057719019E+02  0.00000000000E+00 0.  1.
         14    1    6    6    0    0  0.49277785638E+01 -0.60903424852E+02  0.33638683722E+03  0.34189123185E+03  0.00000000000E+00 0. -1.
         -5    1    3    3    0  503 -0.13571003643E+02  0.40103725287E+02 -0.81104609248E+02  0.91610744801E+02  0.47000000000E+01 0.  1.
         13    1    4    4    0    0 -0.58326877316E+02  0.26739122794E+02 -0.40667816496E+03  0.41170879898E+03  0.00000000000E+00 0. -1.
        -14    1    4    4    0    0 -0.21559634656E+02  0.33362988760E+02 -0.10014436585E+04  0.10022311649E+04  0.00000000000E+00 0.  1.
</event>
<event>
12    1  0.1681255E-001  0.2087136E+03  0.7818608E-02  0.1145558E+00
         21   -1    0    0  501  502  0.00000000000E+00  0.00000000000E+00  0.74699149992E+02  0.74699149992E+02  0.00000000000E+00 0. -1.
         21   -1    0    0  502  503 -0.00000000000E+00 -0.00000000000E+00 -0.70729118405E+03  0.70729118405E+03  0.00000000000E+00 0. -1.
         -6    2    1    2    0  503 -0.70757821819E+02 -0.58222625082E+02 -0.49553492816E+03  0.53229851113E+03  0.17143598369E+03 0.  0.
        -24    2    3    3    0    0 -0.50935887529E+02 -0.10192757322E+03 -0.42510092546E+03  0.44694002997E+03  0.77851774138E+02 0.  0.
          6    2    1    2  501    0  0.70757821819E+02  0.58222625082E+02 -0.13705710589E+03  0.24969182291E+03  0.18752283256E+03 0.  0.
         24    2    5    5    0    0  0.63520451393E+02 -0.33755509533E+02 -0.10457490166E+03  0.15176562432E+03  0.83202238547E+02 0.  0.
          5    1    5    5  501    0  0.72373704265E+01  0.91978134615E+02 -0.32482204235E+02  0.97926198588E+02  0.47000000000E+01 0. -1.
        -11    1    6    6    0    0 -0.10844350661E+01 -0.12291679815E+02 -0.77541988469E+02  0.78517650040E+02  0.00000000000E+00 0.  1.
         12    1    6    6    0    0  0.64604886459E+02 -0.21463829718E+02 -0.27032913189E+02  0.73247974280E+02  0.00000000000E+00 0. -1.
         -5    1    3    3    0  503 -0.19821934291E+02  0.43704948137E+02 -0.70434002699E+02  0.85358481165E+02  0.47000000000E+01 0.  1.
         13    1    4    4    0    0 -0.21640515490E+02  0.88681867281E+01 -0.74258239260E+02  0.77853983485E+02  0.00000000000E+00 0. -1.
        -14    1    4    4    0    0 -0.29295372038E+02 -0.11079575995E+03 -0.35084268620E+03  0.36908604648E+03  0.00000000000E+00 0.  1.
</event>
<event>
12    1  0.1681255E-001  0.1756543E+03  0.7818608E-02  0.1172176E+00
         21   -1    0    0  503  502  0.00000000000E+00  0.00000000000E+00  0.89359215888E+03  0.89359215888E+03  0.00000000000E+00 0.  1.
         21   -1    0    0  501  503 -0.00000000000E+00 -0.00000000000E+00 -0.49534963344E+02  0.49534963344E+02  0.00000000000E+00 0.  1.
          6    2    1    2  501    0 -0.30064645709E+02  0.22912219029E+02  0.16213597111E+03  0.23904498415E+03  0.17153885454E+03 0.  0.
         24    2    3    3    0    0 -0.25237532093E+02  0.78452860941E+02  0.83510048144E+02  0.14254529663E+03  0.80953375681E+02 0.  0.
         -6    2    1    2    0  502  0.30064645709E+02 -0.22912219029E+02  0.68192122443E+03  0.70408213808E+03  0.17113225331E+03 0.  0.
        -24    2    5    5    0    0 -0.22204449638E+02 -0.50554137300E+02  0.24596553780E+03  0.26410988363E+03  0.78779606909E+02 0.  0.
          5    1    3    3  501    0 -0.48271136158E+01 -0.55540641912E+02  0.78625922962E+02  0.96499687520E+02  0.47000000000E+01 0. -1.
        -13    1    4    4    0    0  0.78921995378E+01  0.32754462622E+02 -0.83670214483E+01  0.34715251448E+02  0.00000000000E+00 0.  1.
         14    1    4    4    0    0 -0.33129731631E+02  0.45698398319E+02  0.91877069593E+02  0.10783004518E+03  0.00000000000E+00 0. -1.
         -5    1    5    5    0  502  0.52269095347E+02  0.27641918272E+02  0.43595568663E+03  0.43997225444E+03  0.47000000000E+01 0.  1.
         13    1    6    6    0    0  0.22517250859E+02 -0.45327877400E+02  0.11582698224E+03  0.12640226608E+03  0.00000000000E+00 0. -1.
        -14    1    6    6    0    0 -0.44721700497E+02 -0.52262599006E+01  0.13013855557E+03  0.13770761756E+03  0.00000000000E+00 0.  1.
</event>
<event>
12    1  0.1681255E-001  0.1767169E+03  0.7818608E-02  0.1173358E+00
         21   -1    0    0  501  502  0.00000000000E+00  0.00000000000E+00  0.15603436150E+03  0.15603436150E+03  0.00000000000E+00 0. -1.
         21   -1    0    0  502  503 -0.00000000000E+00 -0.00000000000E+00 -0.20765481341E+03  0.20765481341E+03  0.00000000000E+00 0.  1.
         -6    2    1    2    0  503  0.73708325266E+01  0.37815908745E+02 -0.78357371311E+02  0.18496112056E+03  0.16305326233E+03 0.  0.
        -24    2    3    3    0    0 -0.14694853332E+02  0.82004977722E+02 -0.69964694625E+02  0.13464119080E+03  0.79324880586E+02 0.  0.
          6    2    1    2  501    0 -0.73708325266E+01 -0.37815908745E+02  0.26736919404E+02  0.17872805434E+03  0.17246588771E+03 0.  0.
         24    2    5    5    0    0 -0.28096543806E+02  0.14603608327E+02  0.66224389933E+02  0.10974464179E+03  0.81581464993E+02 0.  0.
          5    1    5    5  501    0  0.20725711280E+02 -0.52419517072E+02 -0.39487470529E+02  0.68983412549E+02  0.47000000000E+01 0. -1.
        -13    1    6    6    0    0 -0.56872110441E+02  0.51451547935E+01  0.45940826443E+02  0.73290306986E+02  0.00000000000E+00 0.  1.
         14    1    6    6    0    0  0.28775566635E+02  0.94584535339E+01  0.20283563490E+02  0.36454334807E+02  0.00000000000E+00 0. -1.
         -5    1    3    3    0  503  0.22065685859E+02 -0.44189068978E+02 -0.83926766856E+01  0.50319929764E+02  0.47000000000E+01 0.  1.
         11    1    4    4    0    0 -0.27959363759E+01  0.72266074556E+02 -0.10327703427E+02  0.73053844868E+02  0.00000000000E+00 0. -1.
        -12    1    4    4    0    0 -0.11898916956E+02  0.97389031666E+01 -0.59636991198E+02  0.61587345931E+02  0.00000000000E+00 0.  1.
</event>
<event>
12    1  0.1681255E-001  0.2448764E+03  0.7818608E-02  0.1117650E+00
         21   -1    0    0  501  502  0.00000000000E+00  0.00000000000E+00  0.10438497387E+03  0.10438497387E+03  0.00000000000E+00 0. -1.
         21   -1    0    0  502  503 -0.00000000000E+00 -0.00000000000E+00 -0.56880062595E+03  0.56880062595E+03  0.00000000000E+00 0.  1.
         -6    2    1    2    0  503  0.10299255059E+03  0.12887720153E+03 -0.18589312826E+03  0.30232273147E+03  0.17212199242E+03 0.  0.
        -24    2    3    3    0    0  0.11691621081E+03  0.14717360785E+03 -0.18941995622E+03  0.27859183782E+03  0.80025127888E+02 0.  0.
          6    2    1    2  501    0 -0.10299255059E+03 -0.12887720153E+03 -0.27852252382E+03  0.37086286835E+03  0.18096317938E+03 0.  0.
         24    2    5    5    0    0 -0.19242323515E+02 -0.17509172503E+02 -0.18410256897E+03  0.20247594397E+03  0.80161797963E+02 0.  0.
          5    1    5    5  501    0 -0.83750227073E+02 -0.11136802903E+03 -0.94419954849E+02  0.16838692437E+03  0.47000000000E+01 0. -1.
        -11    1    6    6    0    0  0.20377862476E+02 -0.30971083949E+02 -0.12264012432E+03  0.12812129180E+03  0.00000000000E+00 0.  1.
         12    1    6    6    0    0 -0.39620185992E+02  0.13461911446E+02 -0.61462444648E+02  0.74354652174E+02  0.00000000000E+00 0. -1.
         -5    1    3    3    0  503 -0.13923660217E+02 -0.18296406312E+02  0.35268279511E+01  0.23730893645E+02  0.47000000000E+01 0.  1.
         13    1    4    4    0    0  0.63122629604E+02  0.40282528045E+02 -0.33467457134E+02  0.82019626437E+02  0.00000000000E+00 0. -1.
        -14    1    4    4    0    0  0.53793581201E+02  0.10689107980E+03 -0.15595249908E+03  0.19657221139E+03  0.00000000000E+00 0.  1.
</event>
<event>
12    1  0.1681255E-001  0.2856849E+03  0.7818608E-02  0.1092634E+00
         21   -1    0    0  503  502  0.00000000000E+00  0.00000000000E+00  0.56934507449E+03  0.56934507449E+03  0.00000000000E+00 0.  1.
         21   -1    0    0  501  503 -0.00000000000E+00 -0.00000000000E+00 -0.18134436108E+03  0.18134436108E+03  0.00000000000E+00 0. -1.
          6    2    1    2  501    0  0.60683227406E+02 -0.21967659203E+03  0.22128884187E+02  0.28654061898E+03  0.17226601416E+03 0.  0.
         24    2    3    3    0    0 -0.28417710177E+02 -0.14700858916E+03  0.16403878496E+01  0.16965826701E+03  0.79763056323E+02 0.  0.
         -6    2    1    2    0  502 -0.60683227406E+02  0.21967659203E+03  0.36587182922E+03  0.46414881659E+03  0.17213851792E+03 0.  0.
        -24    2    5    5    0    0 -0.24623155950E+02  0.87009401342E+02  0.26892225434E+03  0.29585674219E+03  0.83875486817E+02 0.  0.
          5    1    3    3  501    0  0.89100937583E+02 -0.72668002864E+02  0.20488496337E+02  0.11688235196E+03  0.47000000000E+01 0. -1.
        -11    1    4    4    0    0 -0.38575516909E+02 -0.22475607186E+02 -0.15257024012E+01  0.44671592662E+02  0.00000000000E+00 0.  1.
         12    1    4    4    0    0  0.10157806732E+02 -0.12453298198E+03  0.31660902508E+01  0.12498667435E+03  0.00000000000E+00 0. -1.
         -5    1    5    5    0  502 -0.36060071456E+02  0.13266719068E+03  0.96949574887E+02  0.16829207441E+03  0.47000000000E+01 0.  1.
         11    1    6    6    0    0 -0.21801491589E+02 -0.11502866143E+02  0.48452741499E+02  0.54362570982E+02  0.00000000000E+00 0. -1.
        -12    1    6    6    0    0 -0.28216643604E+01  0.98512267484E+02  0.22046951284E+03  0.24149417120E+03  0.00000000000E+00 0.  1.
</event>
<event>
12    1  0.1681255E-001  0.1847342E+03  0.7818608E-02  0.1163869E+00
         21   -1    0    0  501  502  0.00000000000E+00  0.00000000000E+00  0.51330311484E+03  0.51330311484E+03  0.00000000000E+00 0.  1.
         21   -1    0    0  502  503 -0.00000000000E+00 -0.00000000000E+00 -0.70259348466E+02  0.70259348466E+02  0.00000000000E+00 0.  1.
         -6    2    1    2    0  503 -0.31479110166E+02 -0.59794750298E+02  0.14787027166E+03  0.23662701960E+03  0.17193133114E+03 0.  0.
        -24    2    3    3    0    0  0.26032248020E+02 -0.84327926899E+02  0.11207965564E+03  0.16442943468E+03  0.81769875791E+02 0.  0.
          6    2    1    2  501    0  0.31479110166E+02  0.59794750298E+02  0.29517349472E+03  0.34693544371E+03  0.16932354702E+03 0.  0.
         24    2    5    5    0    0  0.27837721882E+02  0.10341509994E+03  0.25240608476E+03  0.28555844503E+03  0.79782029636E+02 0.  0.
          5    1    5    5  501    0  0.36413882840E+01 -0.43620349639E+02  0.42767409965E+02  0.61376998675E+02  0.47000000000E+01 0. -1.
        -13    1    6    6    0    0 -0.47565367605E+01  0.72320498737E+02  0.21537934551E+03  0.22724687380E+03  0.00000000000E+00 0.  1.
         14    1    6    6    0    0  0.32594258643E+02  0.31094601200E+02  0.37026739242E+02  0.58311571229E+02  0.00000000000E+00 0. -1.
         -5    1    3    3    0  503 -0.57511358186E+02  0.24533176600E+02  0.35790616013E+02  0.72197584926E+02  0.47000000000E+01 0.  1.
         13    1    4    4    0    0 -0.12625871154E+02  0.27095856640E+01  0.47840728088E+02  0.49552898410E+02  0.00000000000E+00 0. -1.
        -14    1    4    4    0    0  0.38658119174E+02 -0.87037512563E+02  0.64238927557E+02  0.11487653627E+03  0.00000000000E+00 0.  1.
</event>
<event>
12    1  0.1681255E-001  0.1879529E+03  0.7818608E-02  0.1160658E+00
         21   -1    0    0  503  502  0.00000000000E+00  0.00000000000E+00  0.23770088367E+02  0.23770088367E+02  0.00000000000E+00 0.  1.
         21   -1    0    0  501  503 -0.00000000000E+00 -0.00000000000E+00 -0.17073975068E+04  0.17073975068E+04  0.00000000000E+00 0.  1.
          6    2    1    2  501    0 -0.77160559515E+02 -0.54003631933E+01 -0.51931696354E+03  0.55178422333E+03  0.16968442660E+03 0.  0.
         24    2    3    3    0    0 -0.64768982940E+02  0.60077943343E+02 -0.35029909497E+03  0.37004240181E+03  0.80109567260E+02 0.  0.
         -6    2    1    2    0  502  0.77160559515E+02  0.54003631933E+01 -0.11643104549E+04  0.11793833718E+04  0.17129911418E+03 0.  0.
        -24    2    5    5    0    0  0.45167977859E+01 -0.48605402232E+02 -0.56530348790E+03  0.57355734456E+03  0.83768177004E+02 0.  0.
          5    1    3    3  501    0 -0.12391576574E+02 -0.65478306536E+02 -0.16901786857E+03  0.18174182153E+03  0.47000000000E+01 0. -1.
        -11    1    4    4    0    0 -0.25847704675E+02 -0.11359077733E+01 -0.22421117729E+02  0.34235955422E+02  0.00000000000E+00 0.  1.
         12    1    4    4    0    0 -0.38921278265E+02  0.61213851116E+02 -0.32787797725E+03  0.33580644638E+03  0.00000000000E+00 0. -1.
         -5    1    5    5    0  502  0.72643761729E+02  0.54005765426E+02 -0.59900696696E+03  0.60582602724E+03  0.47000000000E+01 0.  1.
         13    1    6    6    0    0  0.38121427072E+02 -0.50180235267E+02 -0.34677460104E+03  0.35245414331E+03  0.00000000000E+00 0. -1.
        -14    1    6    6    0    0 -0.33604629286E+02  0.15748330343E+01 -0.21852888686E+03  0.22110320125E+03  0.00000000000E+00 0.  1.
</event>
<event>
12    1  0.1681255E-001  0.2030001E+03  0.7818608E-02  0.1147714E+00
         21   -1    0    0  501  502  0.00000000000E+00  0.00000000000E+00  0.12861142299E+03  0.12861142299E+03  0.00000000000E+00 0. -1.
         21   -1    0    0  502  503 -0.00000000000E+00 -0.00000000000E+00 -0.34878511094E+03  0.34878511094E+03  0.00000000000E+00 0.  1.
         -6    2    1    2    0  503  0.90788569296E+02  0.49744094986E+02 -0.18182625853E+03  0.27080619682E+03  0.17192489244E+03 0.  0.
        -24    2    3    3    0    0  0.64539718380E+02  0.64782026878E+02 -0.35719668578E+02  0.12152670325E+03  0.71629314010E+02 0.  0.
          6    2    1    2  501    0 -0.90788569296E+02 -0.49744094986E+02 -0.38347429420E+02  0.20659033711E+03  0.17461959439E+03 0.  0.
         24    2    5    5    0    0 -0.49224779373E+02 -0.87420827159E+02 -0.64163870890E+02  0.14465760400E+03  0.82117843025E+02 0.  0.
          5    1    5    5  501    0 -0.41563789923E+02  0.37676732173E+02  0.25816441470E+02  0.61932733107E+02  0.47000000000E+01 0. -1.
        -11    1    6    6    0    0  0.93773689214E+01 -0.41303195988E+02 -0.55157801789E+02  0.69543311288E+02  0.00000000000E+00 0.  1.
         12    1    6    6    0    0 -0.58602148295E+02 -0.46117631171E+02 -0.90060691008E+01  0.75114292716E+02  0.00000000000E+00 0. -1.
         -5    1    3    3    0  503  0.26248850916E+02 -0.15037931892E+02 -0.14610658995E+03  0.14927949356E+03  0.47000000000E+01 0.  1.
         11    1    4    4    0    0  0.13882107554E+02  0.63956098471E+02 -0.18381110384E+02  0.67977648244E+02  0.00000000000E+00 0. -1.
        -12    1    4    4    0    0  0.50657610826E+02  0.82592840702E+00 -0.17338558194E+02  0.53549055011E+02  0.00000000000E+00 0.  1.
</event>
<event>
12    1  0.1681255E-001  0.2783258E+03  0.7818608E-02  0.1096609E+00
         21   -1    0    0  503  502  0.00000000000E+00  0.00000000000E+00  0.46935755557E+03  0.46935755557E+03  0.00000000000E+00 0.  1.
         21   -1    0    0  501  503 -0.00000000000E+00 -0.00000000000E+00 -0.16511354428E+03  0.16511354428E+03  0.00000000000E+00 0.  1.
          6    2    1    2  501    0 -0.49372418539E+02 -0.21291322908E+03  0.14533338051E+03  0.31397483712E+03  0.17230417298E+03 0.  0.
         24    2    3    3    0    0 -0.23226552942E+02 -0.16175976045E+03  0.29228337209E+02  0.18434939702E+03  0.80154298850E+02 0.  0.
         -6    2    1    2    0  502  0.49372418539E+02  0.21291322908E+03  0.15891063078E+03  0.32049626272E+03  0.17232407554E+03 0.  0.
        -24    2    5    5    0    0 -0.19971587985E+02  0.52435307489E+02  0.92150244722E+02  0.13330439936E+03  0.78294760295E+02 0.  0.
          5    1    3    3  501    0 -0.26145865597E+02 -0.51153468629E+02  0.11610504330E+03  0.12962544010E+03  0.47000000000E+01 0. -1.
        -13    1    4    4    0    0  0.67936657552E+01 -0.81532245390E+02  0.50424635579E+02  0.96105696012E+02  0.00000000000E+00 0.  1.
         14    1    4    4    0    0 -0.30020218697E+02 -0.80227515062E+02 -0.21196298370E+02  0.88243701012E+02  0.00000000000E+00 0. -1.
         -5    1    5    5    0  502  0.69344006524E+02  0.16047792159E+03  0.66760386057E+02  0.18719186335E+03  0.47000000000E+01 0.  1.
         11    1    6    6    0    0 -0.18641648340E+01  0.63956601109E+02  0.91727091743E+02  0.11183819247E+03  0.00000000000E+00 0. -1.
        -12    1    6    6    0    0 -0.18107423151E+02 -0.11521293621E+02  0.42315297854E+00  0.21466206891E+02  0.00000000000E+00 0.  1.
</event>
<event>
12    1  0.1681255E-001  0.2041633E+03  0.7818608E-02  0.1146445E+00
         21   -1    0    0  501  502  0.00000000000E+00  0.00000000000E+00  0.52416194372E+02  0.52416194372E+02  0.00000000000E+00 0. -1.
         21   -1    0    0  502  503 -0.00000000000E+00 -0.00000000000E+00 -0.15437088747E+04  0.15437088747E+04  0.00000000000E+00 0. -1.
         -6    2    1    2    0  503  0.68013479477E+02  0.85339034161E+02 -0.13017726021E+04  0.13175563962E+04  0.17156446413E+03 0.  0.
        -24    2    3    3    0    0  0.42834013864E+02  0.88345417784E+02 -0.52082058036E+03  0.53617864239E+03  0.81202180038E+02 0.  0.
          6    2    1    2  501    0 -0.68013479477E+02 -0.85339034161E+02 -0.18952007823E+03  0.27856867291E+03  0.17255161933E+03 0.  0.
         24    2    5    5    0    0  0.56023722933E+01 -0.16810355251E+02 -0.25217329548E+02  0.85869537756E+02  0.80147920659E+02 0.  0.
          5    1    5    5  501    0 -0.73615851770E+02 -0.68528678910E+02 -0.16430274868E+03  0.19269913516E+03  0.47000000000E+01 0. -1.
        -11    1    6    6    0    0 -0.16336607440E+02  0.17168469029E+02 -0.36824135143E+02  0.43791072155E+02  0.00000000000E+00 0.  1.
         12    1    6    6    0    0  0.21938979733E+02 -0.33978824280E+02  0.11606805595E+02  0.42078465601E+02  0.00000000000E+00 0. -1.
         -5    1    3    3    0  503  0.25179465613E+02 -0.30063836223E+01 -0.78095202178E+03  0.78137775381E+03  0.47000000000E+01 0.  1.
         13    1    4    4    0    0  0.58908740422E+02  0.42263149644E+02 -0.22596615234E+03  0.23731227427E+03  0.00000000000E+00 0. -1.
        -14    1    4    4    0    0 -0.16074726558E+02  0.46082268140E+02 -0.29485442802E+03  0.29886636812E+03  0.00000000000E+00 0.  1.
</event>
<event>
12    1  0.1681255E-001  0.1817431E+03  0.7818608E-02  0.1166394E+00
         21   -1    0    0  501  502  0.00000000000E+00  0.00000000000E+00  0.90738950277E+03  0.90738950277E+03  0.00000000000E+00 0.  1.
         21   -1    0    0  502  503 -0.00000000000E+00 -0.00000000000E+00 -0.42085042747E+02  0.42085042747E+02  0.00000000000E+00 0.  1.
         -6    2    1    2    0  503 -0.82267557613E+01  0.54751574743E+02  0.25365327467E+03  0.31139327322E+03  0.17193130142E+03 0.  0.
        -24    2    3    3    0    0  0.52814298592E+02  0.69578562298E+02  0.15677440001E+03  0.19583611753E+03  0.78377585838E+02 0.  0.
          6    2    1    2  501    0  0.82267557613E+01 -0.54751574743E+02  0.61165118535E+03  0.63808127229E+03  0.17310437044E+03 0.  0.
         24    2    5    5    0    0 -0.57921482821E+02 -0.61246695871E+02  0.41714074012E+03  0.43247441597E+03  0.76952371437E+02 0.  0.
          5    1    5    5  501    0  0.66148238583E+02  0.64951211275E+01  0.19451044523E+03  0.20560685633E+03  0.47000000000E+01 0. -1.
        -11    1    6    6    0    0 -0.62800305900E+02 -0.51972017794E+02  0.21301307847E+03  0.22807792672E+03  0.00000000000E+00 0.  1.
         12    1    6    6    0    0  0.48788230783E+01 -0.92746780766E+01  0.20412766165E+03  0.20439648925E+03  0.00000000000E+00 0. -1.
         -5    1    3    3    0  503 -0.61041054353E+02 -0.14826987555E+02  0.96878874664E+02  0.11555715570E+03  0.47000000000E+01 0.  1.
         13    1    4    4    0    0 -0.18034992023E+02  0.14229117463E+02  0.13372600525E+02  0.26581105429E+02  0.00000000000E+00 0. -1.
        -14    1    4    4    0    0  0.70849290615E+02  0.55349444835E+02  0.14340179949E+03  0.16925501210E+03  0.00000000000E+00 0.  1.
</event>
<event>
12    1  0.1681255E-001  0.1948084E+03  0.7818608E-02  0.1154360E+00
         21   -1    0    0  503  502  0.00000000000E+00  0.00000000000E+00  0.21041911001E+03  0.21041911001E+03  0.00000000000E+00 0.  1.
         21   -1    0    0  501  503 -0.00000000000E+00 -0.00000000000E+00 -0.21527408462E+03  0.21527408462E+03  0.00000000000E+00 0.  1.
          6    2    1    2  501    0 -0.19783713451E+02  0.88380526323E+02 -0.89010972987E+02  0.21418048532E+03  0.17247554675E+03 0.  0.
         24    2    3    3    0    0  0.48801927280E+02  0.87428465405E+02 -0.58356790915E+02  0.13890322838E+03  0.76571712387E+02 0.  0.
         -6    2    1    2    0  502  0.19783713451E+02 -0.88380526323E+02  0.84155998381E+02  0.21151270931E+03  0.17161841797E+03 0.  0.
        -24    2    5    5    0    0 -0.14976791078E+02 -0.10722688394E+02  0.94557804967E+02  0.12566796546E+03  0.80696832311E+02 0.  0.
          5    1    3    3  501    0 -0.68585640731E+02  0.95206091761E+00 -0.30654182071E+02  0.75277256943E+02  0.47000000000E+01 0. -1.
        -11    1    4    4    0    0 -0.82896697692E+01  0.20132527514E+02  0.13048173608E+02  0.25382910067E+02  0.00000000000E+00 0.  1.
         12    1    4    4    0    0  0.57091597049E+02  0.67295937891E+02 -0.71404964523E+02  0.11352031831E+03  0.00000000000E+00 0. -1.
         -5    1    5    5    0  502  0.34760504529E+02 -0.77657837929E+02 -0.10401806586E+02  0.85844743853E+02  0.47000000000E+01 0.  1.
         13    1    6    6    0    0 -0.18947875489E+02 -0.84885768808E+01 -0.85540382096E+01  0.22455500277E+02  0.00000000000E+00 0. -1.
        -14    1    6    6    0    0  0.39710844102E+01 -0.22341115132E+01  0.10311184318E+03  0.10321246518E+03  0.00000000000E+00 0.  1.
</event>
<event>
12    1  0.1681255E-001  0.1741896E+03  0.7818608E-02  0.1173555E+00
         21   -1    0    0  503  502  0.00000000000E+00  0.00000000000E+00  0.31692544068E+03  0.31692544068E+03  0.00000000000E+00 0. -1.
         21   -1    0    0  501  503 -0.00000000000E+00 -0.00000000000E+00 -0.18330217035E+03  0.18330217035E+03  0.00000000000E+00 0. -1.
          6    2    1    2  501    0  0.20210827800E+02  0.21213121740E+02 -0.10607410240E+03  0.20392229635E+03  0.17168026577E+03 0.  0.
         24    2    3    3    0    0  0.29922690010E+02  0.46043127619E+01 -0.14097961335E+03  0.16378929872E+03  0.77686008530E+02 0.  0.
         -6    2    1    2    0  502 -0.20210827800E+02 -0.21213121740E+02  0.23969737273E+03  0.29630531468E+03  0.17170770199E+03 0.  0.
        -24    2    5    5    0    0  0.27044315520E+01 -0.63571629479E+02  0.76622248474E+02  0.12620258560E+03  0.77507790752E+02 0.  0.
          5    1    3    3  501    0 -0.97118622102E+01  0.16608808979E+02  0.34905510956E+02  0.40132997625E+02  0.47000000000E+01 0. -1.
        -13    1    4    4    0    0 -0.16527419563E+02  0.26910615136E+02 -0.47313197837E+02  0.56884756253E+02  0.00000000000E+00 0.  1.
         14    1    4    4    0    0  0.46450109574E+02 -0.22306302374E+02 -0.93666415515E+02  0.10690454247E+03  0.00000000000E+00 0. -1.
         -5    1    5    5    0  502 -0.22915259352E+02  0.42358507738E+02  0.16307512426E+03  0.17010272908E+03  0.47000000000E+01 0.  1.
         11    1    6    6    0    0 -0.21629231779E+02  0.92293013365E+01  0.18457785119E+02  0.29894706923E+02  0.00000000000E+00 0. -1.
        -12    1    6    6    0    0  0.24333663331E+02 -0.72800930815E+02  0.58164463355E+02  0.96307878681E+02  0.00000000000E+00 0.  1.
</event>
<event>
12    1  0.1681255E-001  0.3397982E+03  0.7818608E-02  0.1066906E+00
         21   -1    0    0  503  502  0.00000000000E+00  0.00000000000E+00  0.52231557512E+03  0.52231557512E+03  0.00000000000E+00 0.  1.
         21   -1    0    0  501  503 -0.00000000000E+00 -0.00000000000E+00 -0.47727765593E+03  0.47727765593E+03  0.00000000000E+00 0.  1.
          6    2    1    2  501    0  0.28140355553E+03 -0.85294361071E+02 -0.34378499537E+03  0.48321541389E+03  0.16984087872E+03 0.  0.
         24    2    3    3    0    0  0.13346961519E+03 -0.12701771241E+02 -0.24568362497E+03  0.29138188273E+03  0.81040019947E+02 0.  0.
         -6    2    1    2    0  502 -0.28140355553E+03  0.85294361071E+02  0.38882291457E+03  0.51637781716E+03  0.17029298889E+03 0.  0.
        -24    2    5    5    0    0 -0.21053587367E+03  0.12568895583E+03  0.30188562260E+03  0.39707092569E+03  0.80045756736E+02 0.  0.
          5    1    3    3  501    0  0.14793394034E+03 -0.72592589830E+02 -0.98101370398E+02  0.19183353116E+03  0.47000000000E+01 0. -1.
        -11    1    4    4    0    0  0.14367509665E+03 -0.10754906570E+02 -0.21352906051E+03  0.25759049108E+03  0.00000000000E+00 0.  1.
         12    1    4    4    0    0 -0.10205481461E+02 -0.19468646710E+01 -0.32154564464E+02  0.33791391652E+02  0.00000000000E+00 0. -1.
         -5    1    5    5    0  502 -0.70867681859E+02 -0.40394594764E+02  0.86937291965E+02  0.11930689147E+03  0.47000000000E+01 0.  1.
         11    1    6    6    0    0 -0.15005004645E+02  0.23227282756E+02  0.77570922412E+02  0.82352321355E+02  0.00000000000E+00 0. -1.
        -12    1    6    6    0    0 -0.19553086902E+03  0.10246167308E+03  0.22431470019E+03  0.31471860433E+03  0.00000000000E+00 0.  1.
</event>
<event>
12    1  0.1681255E-001  0.2351023E+03  0.7818608E-02  0.1123141E+00
         21   -1    0    0  503  502  0.00000000000E+00  0.00000000000E+00  0.80807694812E+02  0.80807694812E+02  0.00000000000E+00 0.  1.
         21   -1    0    0  501  503 -0.00000000000E+00 -0.00000000000E+00 -0.71605904267E+03  0.71605904267E+03  0.00000000000E+00 0. -1.
          6    2    1    2  501    0 -0.71021246895E+02  0.14370489975E+03 -0.40269462897E+03  0.46617699034E+03  0.17164762277E+03 0.  0.
         24    2    3    3    0    0 -0.16409428557E+02  0.85616279556E+02 -0.10519452721E+03  0.15814267562E+03  0.79647979434E+02 0.  0.
         -6    2    1    2    0  502  0.71021246895E+02 -0.14370489975E+03 -0.23255671889E+03  0.33068974713E+03  0.17198245736E+03 0.  0.
        -24    2    5    5    0    0  0.80559008322E+02 -0.17126154390E+03 -0.20823675243E+03  0.29242895391E+03  0.79573097091E+02 0.  0.
          5    1    3    3  501    0 -0.54611818338E+02  0.58088620194E+02 -0.29750010176E+03  0.30803431472E+03  0.47000000000E+01 0. -1.
        -13    1    4    4    0    0  0.23435057598E+02  0.62815808383E+01 -0.59432456154E+01  0.24979638726E+02  0.00000000000E+00 0.  1.
         14    1    4    4    0    0 -0.39844486155E+02  0.79334698718E+02 -0.99251281593E+02  0.13316303690E+03  0.00000000000E+00 0. -1.
         -5    1    5    5    0  502 -0.95377614276E+01  0.27556644150E+02 -0.24319966460E+02  0.38260793229E+02  0.47000000000E+01 0.  1.
         11    1    6    6    0    0  0.58841587877E+02 -0.70680480233E+02 -0.14483020822E+03  0.17156296792E+03  0.00000000000E+00 0. -1.
        -12    1    6    6    0    0  0.21717420445E+02 -0.10058106367E+03 -0.63406544207E+02  0.12086598598E+03  0.00000000000E+00 0.  1.
</event>
<event>
12    1  0.1681255E-001  0.2030574E+03  0.7818608E-02  0.1147644E+00
         21   -1    0    0  503  502  0.00000000000E+00  0.00000000000E+00  0.11297538291E+04  0.11297538291E+04  0.00000000000E+00 0. -1.
         21   -1    0    0  501  503 -0.00000000000E+00 -0.00000000000E+00 -0.40191875286E+02  0.40191875286E+02  0.00000000000E+00 0. -1.
          6    2    1    2  501    0 -0.32332232964E+02 -0.10286750860E+03  0.35548891532E+03  0.40830567196E+03  0.16945222105E+03 0.  0.
         24    2    3    3    0    0 -0.17250965215E+02 -0.14467520127E+03  0.28211571555E+03  0.32239266800E+03  0.55850208210E+02 0.  0.
         -6    2    1    2    0  502  0.32332232964E+02  0.10286750860E+03  0.73407303844E+03  0.76164003238E+03  0.17206166204E+03 0.  0.
        -24    2    5    5    0    0  0.50025946369E+02  0.33734745388E+02  0.60745658545E+03  0.61622262417E+03  0.84179516334E+02 0.  0.
          5    1    3    3  501    0 -0.15081267749E+02  0.41807692670E+02  0.73373199773E+02  0.85913003953E+02  0.47000000000E+01 0. -1.
        -13    1    4    4    0    0  0.19637301479E+02 -0.35244621922E+02  0.80570356871E+02  0.90107654448E+02  0.00000000000E+00 0.  1.
         14    1    4    4    0    0 -0.36888266695E+02 -0.10943057935E+03  0.20154535868E+03  0.23228501356E+03  0.00000000000E+00 0. -1.
         -5    1    5    5    0  502 -0.17693713405E+02  0.69132763216E+02  0.12661645299E+03  0.14541740821E+03  0.47000000000E+01 0.  1.
         11    1    6    6    0    0  0.21114062189E+02 -0.13297116348E+02  0.48463192160E+02  0.54509613094E+02  0.00000000000E+00 0. -1.
        -12    1    6    6    0    0  0.28911884180E+02  0.47031861736E+02  0.55899339329E+03  0.56171301107E+03  0.00000000000E+00 0.  1.
</event>
<event>
12    1  0.1681255E-001  0.2110743E+03  0.7818608E-02  0.1140832E+00
         21   -1    0    0  503  502  0.00000000000E+00  0.00000000000E+00  0.82646898429E+02  0.82646898429E+02  0.00000000000E+00 0. -1.
         21   -1    0    0  501  503 -0.00000000000E+00 -0.00000000000E+00 -0.69357192562E+03  0.69357192562E+03  0.00000000000E+00 0. -1.
          6    2    1    2  501    0 -0.61608551931E+01 -0.12133510852E+03 -0.48919104677E+03  0.53255612219E+03  0.17189525400E+03 0.  0.
         24    2    3    3    0    0 -0.55686475780E+02 -0.11948552621E+03 -0.40570473209E+03  0.43535394738E+03  0.86942252670E+02 0.  0.
         -6    2    1    2    0  502  0.61608551931E+01  0.12133510852E+03 -0.12173398042E+03  0.24366270186E+03  0.17260412971E+03 0.  0.
        -24    2    5    5    0    0  0.19282678391E+02  0.15210505066E+03 -0.75376056645E+02  0.18630314572E+03  0.74293634093E+02 0.  0.
          5    1    3    3  501    0  0.49525620587E+02 -0.18495823100E+01 -0.83486314674E+02  0.97202174806E+02  0.47000000000E+01 0. -1.
        -13    1    4    4    0    0 -0.16879346073E+02 -0.16634663586E+02 -0.11947829941E+02  0.26540063993E+02  0.00000000000E+00 0.  1.
         14    1    4    4    0    0 -0.38807129707E+02 -0.10285086263E+03 -0.39375690215E+03  0.40881388339E+03  0.00000000000E+00 0. -1.
         -5    1    5    5    0  502 -0.13121823198E+02 -0.30769942143E+02 -0.46357923777E+02  0.57359556139E+02  0.47000000000E+01 0.  1.
         13    1    6    6    0    0  0.30703656972E+02  0.12230600178E+03 -0.86037949171E+02  0.15265648142E+03  0.00000000000E+00 0. -1.
        -14    1    6    6    0    0 -0.11420978581E+02  0.29799048882E+02  0.10661892526E+02  0.33646664296E+02  0.00000000000E+00 0.  1.
</event>
<event>
12    1  0.1681255E-001  0.1746120E+03  0.7818608E-02  0.1173369E+00
         21   -1    0    0  503  502  0.00000000000E+00  0.00000000000E+00  0.64580146256E+02  0.64580146256E+02  0.00000000000E+00 0. -1.
         21   -1    0    0  501  503 -0.00000000000E+00 -0.00000000000E+00 -0.56633602197E+03  0.56633602197E+03  0.00000000000E+00 0. -1.
          6    2    1    2  501    0 -0.57832627543E+00 -0.17091032771E+02 -0.38075635376E+03  0.41847741609E+03  0.17278746768E+03 0.  0.
         24    2    3    3    0    0 -0.47585623845E+02  0.18070878609E+02 -0.13085790036E+03  0.16173362737E+03  0.80268473785E+02 0.  0.
         -6    2    1    2    0  502  0.57832627543E+00  0.17091032771E+02 -0.12099952195E+03  0.21243875213E+03  0.17377255604E+03 0.  0.
        -24    2    5    5    0    0 -0.16311971576E+02 -0.52922144185E+01 -0.15054729167E+03  0.17143323285E+03  0.80192133941E+02 0.  0.
          5    1    3    3  501    0  0.47007297569E+02 -0.35161911380E+02 -0.24989845340E+03  0.25674378872E+03  0.47000000000E+01 0. -1.
        -13    1    4    4    0    0 -0.66825091878E+02  0.13688215733E+02 -0.12269055976E+03  0.14037782449E+03  0.00000000000E+00 0.  1.
         14    1    4    4    0    0  0.19239468034E+02  0.43826628759E+01 -0.81673406075E+01  0.21355802881E+02  0.00000000000E+00 0. -1.
         -5    1    5    5    0  502  0.16890297851E+02  0.22383247189E+02  0.29547769720E+02  0.41005519283E+02  0.47000000000E+01 0.  1.
         11    1    6    6    0    0  0.20178588363E+02  0.26001437007E+02 -0.48279984157E+02  0.58431216185E+02  0.00000000000E+00 0. -1.
        -12    1    6    6    0    0 -0.36490559938E+02 -0.31293651426E+02 -0.10226730751E+03  0.11300201666E+03  0.00000000000E+00 0.  1.
</event>
<event>
12    1  0.1681255E-001  0.1735479E+03  0.7818608E-02  0.1174493E+00
         21   -1    0    0  503  502  0.00000000000E+00  0.00000000000E+00  0.30706054229E+03  0.30706054229E+03  0.00000000000E+00 0.  1.
         21   -1    0    0  501  503 -0.00000000000E+00 -0.00000000000E+00 -0.14420723227E+03  0.14420723227E+03  0.00000000000E+00 0.  1.
          6    2    1    2  501    0 -0.43141265280E+01 -0.59287921892E+01 -0.47260913705E+02  0.17874829002E+03  0.17223122526E+03 0.  0.
         24    2    3    3    0    0  0.65069204360E+02  0.55528977058E+01 -0.28432995876E+02  0.10579312366E+03  0.78223485802E+02 0.  0.
         -6    2    1    2    0  502  0.43141265280E+01  0.59287921892E+01  0.21011422372E+03  0.27251948454E+03  0.17339296461E+03 0.  0.
        -24    2    5    5    0    0  0.64714795035E+02 -0.41306019296E+01  0.16812936245E+03  0.19812693960E+03  0.82351290871E+02 0.  0.
          5    1    3    3  501    0 -0.69383330888E+02 -0.11481689895E+02 -0.18827917828E+02  0.72955166353E+02  0.47000000000E+01 0. -1.
        -11    1    4    4    0    0 -0.14715715296E+02 -0.10925250155E+02  0.28038535625E+01  0.18541169392E+02  0.00000000000E+00 0.  1.
         12    1    4    4    0    0  0.79784919656E+02  0.16478147860E+02 -0.31236849439E+02  0.87251954272E+02  0.00000000000E+00 0. -1.
         -5    1    5    5    0  502 -0.60400668507E+02  0.10059394119E+02  0.41984861270E+02  0.74392544936E+02  0.47000000000E+01 0.  1.
         13    1    6    6    0    0  0.38575221568E+02  0.26137658064E+01  0.13187343176E+02  0.40850771238E+02  0.00000000000E+00 0. -1.
        -14    1    6    6    0    0  0.26139573467E+02 -0.67443677359E+01  0.15494201928E+03  0.15727616836E+03  0.00000000000E+00 0.  1.
</event>
<event>
12    1  0.1681255E-001  0.1900361E+03  0.7818608E-02  0.1160924E+00
         21   -1    0    0  503  502  0.00000000000E+00  0.00000000000E+00  0.81011388488E+03  0.81011388488E+03  0.00000000000E+00 0.  1.
         21   -1    0    0  501  503 -0.00000000000E+00 -0.00000000000E+00 -0.69338364603E+02  0.69338364603E+02  0.00000000000E+00 0.  1.
          6    2    1    2  501    0  0.51735274026E+02 -0.23374868663E+02  0.10137215382E+03  0.21538346453E+03  0.18135820951E+03 0.  0.
         24    2    3    3    0    0  0.61814265564E+02  0.51370160754E+02  0.77060686642E+02  0.13600120625E+03  0.78090215983E+02 0.  0.
         -6    2    1    2    0  502 -0.51735274026E+02  0.23374868663E+02  0.63940336646E+03  0.66406878496E+03  0.17008163643E+03 0.  0.
        -24    2    5    5    0    0  0.15812997079E+02 -0.20757737524E+02  0.45685584730E+03  0.46442875237E+03  0.79346495044E+02 0.  0.
          5    1    3    3  501    0 -0.10078991537E+02 -0.74745029418E+02  0.24311467176E+02  0.79382258278E+02  0.47000000000E+01 0. -1.
        -11    1    4    4    0    0  0.58348789799E+02  0.68225383219E+01  0.68960479135E+02  0.90590705830E+02  0.00000000000E+00 0.  1.
         12    1    4    4    0    0  0.34654757646E+01  0.44547622432E+02  0.81002075068E+01  0.45410500419E+02  0.00000000000E+00 0. -1.
         -5    1    5    5    0  502 -0.67548271105E+02  0.44132606187E+02  0.18254751916E+03  0.19964003258E+03  0.47000000000E+01 0.  1.
         11    1    6    6    0    0  0.22233304196E+02  0.26695250782E+02  0.15928466758E+03  0.16302932729E+03  0.00000000000E+00 0. -1.
        -12    1    6    6    0    0 -0.64203071167E+01 -0.47452988305E+02  0.29757117972E+03  0.30139942508E+03  0.00000000000E+00 0.  1.
</event>
<event>
12    1  0.1681255E-001  0.1857768E+03  0.7818608E-02  0.1162336E+00
         21   -1    0    0  501  502  0.00000000000E+00  0.00000000000E+00  0.18767186648E+03  0.18767186648E+03  0.00000000000E+00 0. -1.
         21   -1    0    0  502  503 -0.00000000000E+00 -0.00000000000E+00 -0.23989116832E+03  0.23989116832E+03  0.00000000000E+00 0. -1.
         -6    2    1    2    0  503  0.42926693475E+02  0.55158434580E+02  0.77206885882E+02  0.20118134742E+03  0.17212750333E+03 0.  0.
        -24    2    3    3    0    0 -0.20517684485E+02  0.13359424341E+02  0.91957665739E+02  0.12364411857E+03  0.78944323247E+02 0.  0.
          6    2    1    2  501    0 -0.42926693475E+02 -0.55158434580E+02 -0.12942618773E+03  0.22638168738E+03  0.17208246974E+03 0.  0.
         24    2    5    5    0    0 -0.64715848083E+02  0.22879776789E+02 -0.82380913657E+02  0.13257295908E+03  0.77957356074E+02 0.  0.
          5    1    5    5  501    0  0.21789154608E+02 -0.78038211369E+02 -0.47045274071E+02  0.93808728297E+02  0.47000000000E+01 0. -1.
        -13    1    6    6    0    0 -0.21023204605E+02 -0.22417115231E+02 -0.24376784808E+01  0.30829279322E+02  0.00000000000E+00 0.  1.
         14    1    6    6    0    0 -0.43692643479E+02  0.45296892021E+02 -0.79943235176E+02  0.10174367976E+03  0.00000000000E+00 0. -1.
         -5    1    3    3    0  503  0.63444377960E+02  0.41799010239E+02 -0.14750779857E+02  0.77537228852E+02  0.47000000000E+01 0.  1.
         13    1    4    4    0    0  0.19393442942E+02 -0.20639893702E+02  0.20261385777E+02  0.34822903308E+02  0.00000000000E+00 0. -1.
        -14    1    4    4    0    0 -0.39911127426E+02  0.33999318044E+02  0.71696279962E+02  0.88821215260E+02  0.00000000000E+00 0.  1.
</event>
<event>
12    1  0.1681255E-001  0.2046256E+03  0.7818608E-02  0.1146079E+00
         21   -1    0    0  501  502  0.00000000000E+00  0.00000000000E+00  0.33413100010E+02  0.33413100010E+02  0.00000000000E+00 0. -1.
         21   -1    0    0  502  503 -0.00000000000E+00 -0.00000000000E+00 -0.13934344246E+04  0.13934344246E+04  0.00000000000E+00 0.  1.
         -6    2    1    2    0  503 -0.98414551197E+02  0.46900091279E+02 -0.91211011077E+03  0.93478152475E+03  0.17316640093E+03 0.  0.
        -24    2    3    3    0    0 -0.12008634924E+03  0.55819205439E+02 -0.54715252895E+03  0.56904207657E+03  0.83045048070E+02 0.  0.
          6    2    1    2  501    0  0.98414551197E+02 -0.46900091279E+02 -0.44791121379E+03  0.49206599982E+03  0.17210302232E+03 0.  0.
         24    2    5    5    0    0  0.40171828964E+02  0.36389927467E+02 -0.14989484585E+03  0.17716079587E+03  0.77327098206E+02 0.  0.
          5    1    5    5  501    0  0.58242722233E+02 -0.83290018746E+02 -0.29801636794E+03  0.31490520395E+03  0.47000000000E+01 0. -1.
        -11    1    6    6    0    0 -0.87001402042E+01 -0.16648201893E+02 -0.14407034962E+02  0.23673143480E+02  0.00000000000E+00 0.  1.
         12    1    6    6    0    0  0.48871969168E+02  0.53038129360E+02 -0.13548781089E+03  0.15348765239E+03  0.00000000000E+00 0. -1.
         -5    1    3    3    0  503  0.21671798046E+02 -0.89191141599E+01 -0.36495758182E+03  0.36573944818E+03  0.47000000000E+01 0.  1.
         11    1    4    4    0    0 -0.87945502206E+02  0.73113313370E+02 -0.34057172715E+03  0.35926183945E+03  0.00000000000E+00 0. -1.
        -12    1    4    4    0    0 -0.32140847037E+02 -0.17294107932E+02 -0.20658080180E+03  0.20978023713E+03  0.00000000000E+00 0.  1.
</event>
<event>
12    1  0.1681255E-001  0.1802175E+03  0.7818608E-02  0.1167864E+00
         21   -1    0    0  501  502  0.00000000000E+00  0.00000000000E+00  0.43057215682E+03  0.43057215682E+03  0.00000000000E+00 0. -1.
         21   -1    0    0  502  503 -0.00000000000E+00 -0.00000000000E+00 -0.22136405175E+03  0.22136405175E+03  0.00000000000E+00 0.  1.
         -6    2    1    2    0  503  0.24351814281E+02  0.42682236813E+02 -0.16059640334E+03  0.24055593911E+03  0.17222418784E+03 0.  0.
        -24    2    3    3    0    0  0.15750595556E+02  0.87908724573E+02 -0.15303530577E+03  0.19366589373E+03  0.78170636861E+02 0.  0.
          6    2    1    2  501    0 -0.24351814281E+02 -0.42682236813E+02  0.36980450840E+03  0.41138026946E+03  0.17338848713E+03 0.  0.
         24    2    5    5    0    0  0.20795504486E+02  0.17378522194E+02  0.28865554727E+03  0.30068781689E+03  0.79728741453E+02 0.  0.
          5    1    5    5  501    0 -0.45147318766E+02 -0.60060759007E+02  0.81148961130E+02  0.11069245257E+03  0.47000000000E+01 0. -1.
        -13    1    6    6    0    0 -0.22268758083E+01  0.40505996284E+02  0.23013910851E+03  0.23368719258E+03  0.00000000000E+00 0.  1.
         14    1    6    6    0    0  0.23022380294E+02 -0.23127474090E+02  0.58516438766E+02  0.67000624311E+02  0.00000000000E+00 0. -1.
         -5    1    3    3    0  503  0.86012187241E+01 -0.45226487761E+02 -0.75610975680E+01  0.46890045374E+02  0.47000000000E+01 0.  1.
         11    1    4    4    0    0 -0.28714575040E+01 -0.14373167916E+02 -0.16834767803E+02  0.22321349223E+02  0.00000000000E+00 0. -1.
        -12    1    4    4    0    0  0.18622053060E+02  0.10228189249E+03 -0.13620053796E+03  0.17134454451E+03  0.00000000000E+00 0.  1.
</event>
<event>
12    1  0.1681255E-001  0.1784484E+03  0.7818608E-02  0.1169587E+00
         21   -1    0    0  503  502  0.00000000000E+00  0.00000000000E+00  0.40078555377E+03  0.40078555377E+03  0.00000000000E+00 0. -1.
         21   -1    0    0  501  503 -0.00000000000E+00 -0.00000000000E+00 -0.14488685509E+03  0.14488685509E+03  0.00000000000E+00 0. -1.
          6    2    1    2  501    0 -0.30513479387E+02  0.29787209689E+02 -0.55877502716E+02  0.18699231516E+03  0.17327862053E+03 0.  0.
         24    2    3    3    0    0 -0.76408671468E+02 -0.19972741666E+02 -0.10830425631E+02  0.10554447560E+03  0.69174726061E+02 0.  0.
         -6    2    1    2    0  502  0.30513479387E+02 -0.29787209689E+02  0.31177620139E+03  0.35868009370E+03  0.17212977539E+03 0.  0.
        -24    2    5    5    0    0 -0.36807490427E+02 -0.25576881942E+01  0.24241710682E+03  0.25814983051E+03  0.80709034138E+02 0.  0.
          5    1    3    3  501    0  0.45895192080E+02  0.49759951355E+02 -0.45047077085E+02  0.81447839559E+02  0.47000000000E+01 0. -1.
        -11    1    4    4    0    0 -0.39916814963E+01 -0.15822763273E+02  0.20778749147E+02  0.26420631614E+02  0.00000000000E+00 0.  1.
         12    1    4    4    0    0 -0.72416989971E+02 -0.41499783930E+01 -0.31609174779E+02  0.79123843988E+02  0.00000000000E+00 0. -1.
         -5    1    5    5    0  502  0.67320969815E+02 -0.27229521495E+02  0.69359094573E+02  0.10053026319E+03  0.47000000000E+01 0.  1.
         11    1    6    6    0    0  0.13097251762E+02 -0.11361823227E+02  0.16314934318E+03  0.16406808711E+03  0.00000000000E+00 0. -1.
        -12    1    6    6    0    0 -0.49904742189E+02  0.88041350329E+01  0.79267763646E+02  0.94081743394E+02  0.00000000000E+00 0.  1.
</event>
<event>
12    1  0.1681255E-001  0.1944805E+03  0.7818608E-02  0.1154711E+00
         21   -1    0    0  501  502  0.00000000000E+00  0.00000000000E+00  0.11646468558E+04  0.11646468558E+04  0.00000000000E+00 0. -1.
         21   -1    0    0  502  503 -0.00000000000E+00 -0.00000000000E+00 -0.33806026377E+02  0.33806026377E+02  0.00000000000E+00 0. -1.
         -6    2    1    2    0  503  0.88759419752E+02  0.18168197558E+01  0.43753854363E+03  0.47838986884E+03  0.17185852907E+03 0.  0.
        -24    2    3    3    0    0  0.15672747772E+02 -0.25907196347E+02  0.10117201665E+03  0.13302801055E+03  0.80894108507E+02 0.  0.
          6    2    1    2  501    0 -0.88759419752E+02 -0.18168197558E+01  0.69330228578E+03  0.72006301333E+03  0.17303510704E+03 0.  0.
         24    2    5    5    0    0 -0.96302384838E+02 -0.74253520931E+01  0.30373456283E+03  0.33035356679E+03  0.86887912013E+02 0.  0.
          5    1    5    5  501    0  0.75429650867E+01  0.56085323373E+01  0.38956772295E+03  0.38970944654E+03  0.47000000000E+01 0. -1.
        -11    1    6    6    0    0 -0.17184808005E+02  0.17697918810E+02  0.12766903212E+02  0.27776388786E+02  0.00000000000E+00 0.  1.
         12    1    6    6    0    0 -0.79117576833E+02 -0.25123270903E+02  0.29096765962E+03  0.30257717801E+03  0.00000000000E+00 0. -1.
         -5    1    3    3    0  503  0.73086671979E+02  0.27724016103E+02  0.33636652698E+03  0.34536185829E+03  0.47000000000E+01 0.  1.
         13    1    4    4    0    0  0.17565924308E+02 -0.19001136265E+02 -0.52177434788E+01  0.26397532520E+02  0.00000000000E+00 0. -1.
        -14    1    4    4    0    0 -0.18931765354E+01 -0.69060600825E+01  0.10638976013E+03  0.10663047803E+03  0.00000000000E+00 0.  1.
</event>
<event>
12    1  0.1681255E-001  0.2308717E+03  0.7818608E-02  0.1126047E+00
         21   -1    0    0  503  502  0.00000000000E+00  0.00000000000E+00  0.19712909172E+03  0.19712909172E+03  0.00000000000E+00 0. -1.
         21   -1    0    0  501  503 -0.00000000000E+00 -0.00000000000E+00 -0.28131263051E+03  0.28131263051E+03  0.00000000000E+00 0. -1.
          6    2    1    2  501    0  0.99950015799E+02 -0.11710400821E+03 -0.89522290835E+02  0.24762063297E+03  0.17204180574E+03 0.  0.
         24    2    3    3    0    0  0.86588009592E+02 -0.15186899711E+03 -0.84140969694E+02  0.20969707459E+03  0.79570626615E+02 0.  0.
         -6    2    1    2    0  502 -0.99950015799E+02  0.11710400821E+03  0.53387520426E+01  0.23082108925E+03  0.17189100783E+03 0.  0.
        -24    2    5    5    0    0  0.23746259743E+02  0.69264015033E+02  0.35490584814E+00  0.98019122955E+02  0.65163132800E+02 0.  0.
          5    1    3    3  501    0  0.13362006207E+02  0.34764988907E+02 -0.53813211414E+01  0.37923558388E+02  0.47000000000E+01 0. -1.
        -13    1    4    4    0    0  0.32312316634E+02 -0.50451258084E+01 -0.16226251359E+01  0.32744037824E+02  0.00000000000E+00 0.  1.
         14    1    4    4    0    0  0.54275692958E+02 -0.14682387130E+03 -0.82518344558E+02  0.17695303676E+03  0.00000000000E+00 0. -1.
         -5    1    5    5    0  502 -0.12369627554E+03  0.47839993172E+02  0.49838461945E+01  0.13280196630E+03  0.47000000000E+01 0.  1.
         11    1    6    6    0    0  0.34724148037E+02  0.10151068088E+02 -0.87223161905E+01  0.37214102703E+02  0.00000000000E+00 0. -1.
        -12    1    6    6    0    0 -0.10977888294E+02  0.59112946945E+02  0.90772220386E+01  0.60805020252E+02  0.00000000000E+00 0.  1.
</event>
<event>
12    1  0.1681255E-001  0.1839235E+03  0.7818608E-02  0.1164604E+00
         21   -1    0    0  503  502  0.00000000000E+00  0.00000000000E+00  0.53791846348E+02  0.53791846348E+02  0.00000000000E+00 0. -1.
         21   -1    0    0  501  503 -0.00000000000E+00 -0.00000000000E+00 -0.76231786116E+03  0.76231786116E+03  0.00000000000E+00 0. -1.
          6    2    1    2  501    0  0.36584202824E+02 -0.36601310856E+02 -0.52811777957E+03  0.55847626944E+03  0.17409564780E+03 0.  0.
         24    2    3    3    0    0  0.51670851814E+02 -0.21478491220E+02 -0.52827604906E+03  0.53660341639E+03  0.75739289413E+02 0.  0.
         -6    2    1    2    0  502 -0.36584202824E+02  0.36601310856E+02 -0.18040823524E+03  0.25763343806E+03  0.17649305146E+03 0.  0.
        -24    2    5    5    0    0 -0.22443079440E+02 -0.48387020688E+02 -0.11119907506E+03  0.14702156834E+03  0.80031941614E+02 0.  0.
          5    1    3    3  501    0 -0.15086648990E+02 -0.15122819636E+02  0.15826948881E+00  0.21872853054E+02  0.47000000000E+01 0. -1.
        -13    1    4    4    0    0  0.36034453056E+02  0.25740760047E+02 -0.23408208755E+03  0.23823411227E+03  0.00000000000E+00 0.  1.
         14    1    4    4    0    0  0.15636398757E+02 -0.47219251267E+02 -0.29419396151E+03  0.29836930412E+03  0.00000000000E+00 0. -1.
         -5    1    5    5    0  502 -0.14141123385E+02  0.84988331545E+02 -0.69209160181E+02  0.11061186972E+03  0.47000000000E+01 0.  1.
         13    1    6    6    0    0 -0.83134336094E+01  0.18044287891E+02 -0.42299397180E+01  0.20312604311E+02  0.00000000000E+00 0. -1.
        -14    1    6    6    0    0 -0.14129645830E+02 -0.66431308579E+02 -0.10696913534E+03  0.12670896403E+03  0.00000000000E+00 0.  1.
</event>
<event>
12    1  0.1681255E-001  0.2315192E+03  0.7818608E-02  0.1125735E+00
         21   -1    0    0  501  502  0.00000000000E+00  0.00000000000E+00  0.65542358242E+03  0.65542358242E+03  0.00000000000E+00 0. -1.
         21   -1    0    0  502  503 -0.00000000000E+00 -0.00000000000E+00 -0.12247055886E+03  0.12247055886E+03  0.00000000000E+00 0. -1.
         -6    2    1    2    0  503  0.57737803210E+02 -0.14440458541E+03  0.41046207488E+02  0.23422745876E+03  0.17026853227E+03 0.  0.
        -24    2    3    3    0    0  0.91872832993E+01 -0.37412685473E+02  0.70773199591E+02  0.11294183020E+03  0.79138461063E+02 0.  0.
          6    2    1    2  501    0 -0.57737803210E+02  0.14440458541E+03  0.49190681607E+03  0.54366668253E+03  0.17150745695E+03 0.  0.
         24    2    5    5    0    0 -0.48691351210E+02  0.82328899104E+02  0.14673888891E+03  0.19281312752E+03  0.80595938573E+02 0.  0.
          5    1    5    5  501    0 -0.90464520003E+01  0.62075686302E+02  0.34516792716E+03  0.35085355501E+03  0.47000000000E+01 0. -1.
        -11    1    6    6    0    0 -0.46478748580E+02  0.98333517432E+02  0.12437954496E+03  0.16522719487E+03  0.00000000000E+00 0.  1.
         12    1    6    6    0    0 -0.22126026299E+01 -0.16004618328E+02  0.22359343947E+02  0.27585932646E+02  0.00000000000E+00 0. -1.
         -5    1    3    3    0  503  0.48550519911E+02 -0.10699189993E+03 -0.29726992104E+02  0.12128562856E+03  0.47000000000E+01 0.  1.
         13    1    4    4    0    0  0.18340113287E+02 -0.72313279050E+01 -0.12874591542E+02  0.23545848169E+02  0.00000000000E+00 0. -1.
        -14    1    4    4    0    0 -0.91528299874E+01 -0.30181357568E+02  0.83647791134E+02  0.89395982029E+02  0.00000000000E+00 0.  1.
</event>
<event>
12    1  0.1681255E-001  0.1984715E+03  0.7818608E-02  0.1151641E+00
         21   -1    0    0  503  502  0.00000000000E+00  0.00000000000E+00  0.15959650079E+03  0.15959650079E+03  0.00000000000E+00 0.  1.
         21   -1    0    0  501  503 -0.00000000000E+00 -0.00000000000E+00 -0.87024305921E+03  0.87024305921E+03  0.00000000000E+00 0.  1.
          6    2    1    2  501    0  0.97725854410E+02 -0.12847088939E+02 -0.79165450856E+03  0.81547252596E+03  0.16900647726E+03 0.  0.
         24    2    3    3    0    0  0.98233272748E+02  0.27693463519E+02 -0.74142155677E+03  0.75074823908E+03  0.59163247356E+02 0.  0.
         -6    2    1    2    0  502 -0.97725854410E+02  0.12847088939E+02  0.81007950143E+02  0.21436703404E+03  0.17226591938E+03 0.  0.
        -24    2    5    5    0    0 -0.38317260265E+02 -0.67405637755E+01  0.11230213197E+03  0.14426373159E+03  0.81771680759E+02 0.  0.
          5    1    3    3  501    0 -0.50741833808E+00 -0.40540552458E+02 -0.50232951793E+02  0.64724286885E+02  0.47000000000E+01 0. -1.
        -13    1    4    4    0    0  0.55745978107E+02  0.13789194181E+01 -0.22076727214E+03  0.22770090896E+03  0.00000000000E+00 0.  1.
         14    1    4    4    0    0  0.42487294641E+02  0.26314544101E+02 -0.52065428463E+03  0.52304733012E+03  0.00000000000E+00 0. -1.
         -5    1    5    5    0  502 -0.59408594145E+02  0.19587652714E+02 -0.31294181826E+02  0.70103302442E+02  0.47000000000E+01 0.  1.
         13    1    6    6    0    0 -0.11849795475E+02  0.27502647082E+02  0.91438952487E+02  0.96217957166E+02  0.00000000000E+00 0. -1.
        -14    1    6    6    0    0 -0.26467464790E+02 -0.34243210857E+02  0.20863179482E+02  0.48045774427E+02  0.00000000000E+00 0.  1.
</event>
<event>
12    1  0.1681255E-001  0.1914676E+03  0.7818608E-02  0.1157226E+00
         21   -1    0    0  501  502  0.00000000000E+00  0.00000000000E+00  0.63966761926E+02  0.63966761926E+02  0.00000000000E+00 0. -1.
         21   -1    0    0  502  503 -0.00000000000E+00 -0.00000000000E+00 -0.59039705641E+03  0.59039705641E+03  0.00000000000E+00 0. -1.
         -6    2    1    2    0  503  0.59059675525E+02 -0.57066289568E+02 -0.20571900045E+03  0.28103405634E+03  0.17296018907E+03 0.  0.
        -24    2    3    3    0    0  0.88868404070E+02 -0.85177297967E+02 -0.18098250327E+03  0.23294275377E+03  0.79717593498E+02 0.  0.
          6    2    1    2  501    0 -0.59059675525E+02  0.57066289568E+02 -0.32071129404E+03  0.37332976199E+03  0.17255367394E+03 0.  0.
         24    2    5    5    0    0 -0.18547822177E+01  0.12659873861E+02 -0.56590708093E+02  0.99420829146E+02  0.80735868128E+02 0.  0.
          5    1    5    5  501    0 -0.57204893307E+02  0.44406415706E+02 -0.26412058595E+03  0.27390893285E+03  0.47000000000E+01 0. -1.
        -13    1    6    6    0    0  0.10018503798E+02  0.37407332286E+02 -0.60360118504E+02  0.71714871770E+02  0.00000000000E+00 0.  1.
         14    1    6    6    0    0 -0.11873286016E+02 -0.24747458424E+02  0.37694104111E+01  0.27705957376E+02  0.00000000000E+00 0. -1.
         -5    1    3    3    0  503 -0.29808728545E+02  0.28111008400E+02 -0.24736497182E+02  0.48091302577E+02  0.47000000000E+01 0.  1.
         13    1    4    4    0    0  0.61156646052E+02 -0.75348578153E+02 -0.17882583245E+03  0.20346061520E+03  0.00000000000E+00 0. -1.
        -14    1    4    4    0    0  0.27711758018E+02 -0.98287198136E+01 -0.21566708194E+01  0.29482138570E+02  0.00000000000E+00 0.  1.
</event>
<event>
12    1  0.1681255E-001  0.2581954E+03  0.7818608E-02  0.1108343E+00
         21   -1    0    0  501  502  0.00000000000E+00  0.00000000000E+00  0.15531409323E+04  0.15531409323E+04  0.00000000000E+00 0.  1.
         21   -1    0    0  502  503 -0.00000000000E+00 -0.00000000000E+00 -0.54292519737E+02  0.54292519737E+02  0.00000000000E+00 0. -1.
         -6    2    1    2    0  503  0.61515239103E+02  0.18097639961E+03  0.38050563028E+03  0.45983625152E+03  0.17357494544E+03 0.  0.
        -24    2    3    3    0    0  0.42534971909E+01  0.18088621092E+03  0.29229749428E+03  0.35456669050E+03  0.86843533521E+02 0.  0.
          6    2    1    2  501    0 -0.61515239103E+02 -0.18097639961E+03  0.11183427823E+04  0.11475972005E+04  0.17248818533E+03 0.  0.
         24    2    5    5    0    0 -0.64189704745E+02 -0.17836726722E+03  0.11218734855E+04  0.11406318432E+04  0.80657820110E+02 0.  0.
          5    1    5    5  501    0  0.26744656422E+01 -0.26091323904E+01 -0.35307031958E+01  0.69653573748E+01  0.47000000000E+01 0. -1.
        -13    1    6    6    0    0 -0.34034102559E+02 -0.40366688806E+02  0.50696893172E+03  0.50971098422E+03  0.00000000000E+00 0.  1.
         14    1    6    6    0    0 -0.30155602186E+02 -0.13800057842E+03  0.61490455377E+03  0.63092085893E+03  0.00000000000E+00 0. -1.
         -5    1    3    3    0  503  0.57261741912E+02  0.90188694574E-01  0.88208135997E+02  0.10526956102E+03  0.47000000000E+01 0.  1.
         13    1    4    4    0    0  0.31540423534E+02  0.11391093683E+03  0.12359046027E+03  0.17101199290E+03  0.00000000000E+00 0. -1.
        -14    1    4    4    0    0 -0.27286926343E+02  0.66975274092E+02  0.16870703401E+03  0.18355469761E+03  0.00000000000E+00 0.  1.
</event>
<event>
12    1  0.1681255E-001  0.1966451E+03  0.7818608E-02  0.1156235E+00
         21   -1    0    0  503  502  0.00000000000E+00  0.00000000000E+00  0.31110103884E+03  0.31110103884E+03  0.00000000000E+00 0. -1.
         21   -1    0    0  501  503 -0.00000000000E+00 -0.00000000000E+00 -0.32630356082E+03  0.32630356082E+03  0.00000000000E+00 0. -1.
          6    2    1    2  501    0 -0.15925675765E+02 -0.53779356638E+02 -0.26427849692E+03  0.32005916686E+03  0.17160681807E+03 0.  0.
         24    2    3    3    0    0 -0.86467508588E+00  0.30247484068E+02 -0.82682019220E+02  0.11934366070E+03  0.80566339695E+02 0.  0.
         -6    2    1    2    0  502  0.15925675765E+02  0.53779356638E+02  0.24907597494E+03  0.31734543280E+03  0.18847661944E+03 0.  0.
        -24    2    5    5    0    0  0.44517083335E+02  0.10143774876E+03  0.14265495659E+03  0.19719421943E+03  0.79143767630E+02 0.  0.
          5    1    3    3  501    0 -0.15061000679E+02 -0.84026840706E+02 -0.18159647770E+03  0.20071550616E+03  0.47000000000E+01 0. -1.
        -11    1    4    4    0    0 -0.63974958808E+01  0.43545052026E+02 -0.92140723354E+02  0.10211274362E+03  0.00000000000E+00 0.  1.
         12    1    4    4    0    0  0.55328207949E+01 -0.13297567958E+02  0.94587041341E+01  0.17230917081E+02  0.00000000000E+00 0. -1.
         -5    1    5    5    0  502 -0.28591407570E+02 -0.47658392122E+02  0.10642101836E+03  0.12015121337E+03  0.47000000000E+01 0.  1.
         11    1    6    6    0    0  0.14650429151E+02  0.63254051219E+01  0.75083487001E+02  0.76760509668E+02  0.00000000000E+00 0. -1.
        -12    1    6    6    0    0  0.29866654184E+02  0.95112343639E+02  0.67571469588E+02  0.12043370976E+03  0.00000000000E+00 0.  1.
</event>
<event>
12    1  0.1681255E-001  0.1787763E+03  0.7818608E-02  0.1169123E+00
         21   -1    0    0  503  502  0.00000000000E+00  0.00000000000E+00  0.45366424273E+03  0.45366424273E+03  0.00000000000E+00 0.  1.
         21   -1    0    0  501  503 -0.00000000000E+00 -0.00000000000E+00 -0.91504381443E+02  0.91504381443E+02  0.00000000000E+00 0.  1.
          6    2    1    2  501    0 -0.17192553723E+02 -0.43895578124E+02  0.49887338565E+02  0.18560628825E+03  0.17244866484E+03 0.  0.
         24    2    3    3    0    0 -0.11828914872E+02 -0.90353080548E+02  0.69958517489E+01  0.12197580975E+03  0.80780900155E+02 0.  0.
         -6    2    1    2    0  502  0.17192553723E+02  0.43895578124E+02  0.31227252273E+03  0.35956233593E+03  0.17189688562E+03 0.  0.
        -24    2    5    5    0    0 -0.29069846078E+02 -0.58399486656E+01  0.82009387856E+02  0.11944354545E+03  0.81621442660E+02 0.  0.
          5    1    3    3  501    0 -0.53636388511E+01  0.46457502424E+02  0.42891486816E+02  0.63630478503E+02  0.47000000000E+01 0. -1.
        -11    1    4    4    0    0 -0.36199196310E+02 -0.69429110121E+02 -0.19094912023E+02  0.80594037068E+02  0.00000000000E+00 0.  1.
         12    1    4    4    0    0  0.24370281438E+02 -0.20923970427E+02  0.26090763772E+02  0.41381772678E+02  0.00000000000E+00 0. -1.
         -5    1    5    5    0  502  0.46262399801E+02  0.49735526790E+02  0.23026313487E+03  0.24011879048E+03  0.47000000000E+01 0.  1.
         11    1    6    6    0    0  0.13124427974E+02 -0.82359848241E+01 -0.98279369221E+01  0.18348580321E+02  0.00000000000E+00 0. -1.
        -12    1    6    6    0    0 -0.42194274052E+02  0.23960361585E+01  0.91837324779E+02  0.10109496513E+03  0.00000000000E+00 0.  1.
</event>
<event>
12    1  0.1681255E-001  0.2352744E+03  0.7818608E-02  0.1123834E+00
         21   -1    0    0  501  502  0.00000000000E+00  0.00000000000E+00  0.19595857213E+03  0.19595857213E+03  0.00000000000E+00 0. -1.
         21   -1    0    0  502  503 -0.00000000000E+00 -0.00000000000E+00 -0.47977898946E+03  0.47977898946E+03  0.00000000000E+00 0.  1.
         -6    2    1    2    0  503  0.15959725082E+03  0.85315612996E+01 -0.36264574494E+03  0.43227998632E+03  0.17265566961E+03 0.  0.
        -24    2    3    3    0    0  0.16632529982E+03  0.50588410814E+02 -0.31653149525E+03  0.36933032978E+03  0.77391293724E+02 0.  0.
          6    2    1    2  501    0 -0.15959725082E+03 -0.85315612996E+01  0.78825327604E+02  0.24345757526E+03  0.16587371303E+03 0.  0.
         24    2    5    5    0    0 -0.66361458351E+02 -0.63301246739E+02  0.31579421798E+02  0.12536059369E+03  0.79417426156E+02 0.  0.
          5    1    5    5  501    0 -0.93235792465E+02  0.54769685439E+02  0.47245905807E+02  0.11809698157E+03  0.47000000000E+01 0. -1.
        -13    1    6    6    0    0 -0.92462367873E+01  0.40486543382E+01 -0.20492863607E+02  0.22843860345E+02  0.00000000000E+00 0.  1.
         14    1    6    6    0    0 -0.57115221564E+02 -0.67349901077E+02  0.52072285404E+02  0.10251673335E+03  0.00000000000E+00 0. -1.
         -5    1    3    3    0  503 -0.67280490016E+01 -0.42056849514E+02 -0.46114249688E+02  0.62949656541E+02  0.47000000000E+01 0.  1.
         13    1    4    4    0    0  0.72176487602E+02  0.35060277599E+02 -0.21740184848E+03  0.23173742069E+03  0.00000000000E+00 0. -1.
        -14    1    4    4    0    0  0.94148812216E+02  0.15528133215E+02 -0.99129646774E+02  0.13759290909E+03  0.00000000000E+00 0.  1.
</event>
<event>
12    1  0.1681255E-001  0.1942539E+03  0.7818608E-02  0.1154789E+00
         21   -1    0    0  501  502  0.00000000000E+00  0.00000000000E+00  0.66236371978E+02  0.66236371978E+02  0.00000000000E+00 0.  1.
         21   -1    0    0  502  503 -0.00000000000E+00 -0.00000000000E+00 -0.73449899461E+03  0.73449899461E+03  0.00000000000E+00 0. -1.
         -6    2    1    2    0  503 -0.21259227104E+02  0.87835325679E+02 -0.52428473749E+03  0.55894160576E+03  0.17138912892E+03 0.  0.
        -24    2    3    3    0    0 -0.52804852522E+02  0.26853513955E+02 -0.15933176116E+03  0.18755680158E+03  0.79255788703E+02 0.  0.
          6    2    1    2  501    0  0.21259227104E+02 -0.87835325679E+02 -0.14397788514E+03  0.24179376083E+03  0.17195229626E+03 0.  0.
         24    2    5    5    0    0  0.47307000716E+02 -0.26816674669E+01 -0.32759513608E+02  0.99241145335E+02  0.80811357732E+02 0.  0.
          5    1    5    5  501    0 -0.26047773612E+02 -0.85153658212E+02 -0.11121837153E+03  0.14255261549E+03  0.47000000000E+01 0. -1.
        -11    1    6    6    0    0  0.43336439516E+02 -0.22090801948E+02  0.12166873033E+02  0.50140635417E+02  0.00000000000E+00 0.  1.
         12    1    6    6    0    0  0.39705611999E+01  0.19409134481E+02 -0.44926386641E+02  0.49100509918E+02  0.00000000000E+00 0. -1.
         -5    1    3    3    0  503  0.31545625417E+02  0.60981811724E+02 -0.36495297633E+03  0.37138480418E+03  0.47000000000E+01 0.  1.
         13    1    4    4    0    0 -0.64061661780E+02  0.20460531017E+02 -0.16102236089E+03  0.17450137692E+03  0.00000000000E+00 0. -1.
        -14    1    4    4    0    0  0.11256809259E+02  0.63929829384E+01  0.16905997350E+01  0.13055424658E+02  0.00000000000E+00 0.  1.
</event>
<event>
12    1  0.1681255E-001  0.1848138E+03  0.7818608E-02  0.1163383E+00
         21   -1    0    0  501  502  0.00000000000E+00  0.00000000000E+00  0.42814044537E+03  0.42814044537E+03  0.00000000000E+00 0. -1.
         21   -1    0    0  502  503 -0.00000000000E+00 -0.00000000000E+00 -0.21168777131E+03  0.21168777131E+03  0.00000000000E+00 0. -1.
         -6    2    1    2    0  503  0.51625292602E+02  0.42364892139E+02 -0.14451485372E+03  0.23460749807E+03  0.17232579691E+03 0.  0.
        -24    2    3    3    0    0 -0.25911542989E+02 -0.10625798771E+02 -0.39270079329E+02  0.93474487279E+02  0.80068876488E+02 0.  0.
          6    2    1    2  501    0 -0.51625292602E+02 -0.42364892139E+02  0.36096752778E+03  0.40522071862E+03  0.17159930000E+03 0.  0.
         24    2    5    5    0    0 -0.24227313035E+02 -0.46175249411E+02  0.74502530712E+02  0.11738491012E+03  0.74225828968E+02 0.  0.
          5    1    5    5  501    0 -0.27397979567E+02  0.38103572721E+01  0.28646499707E+03  0.28783580850E+03  0.47000000000E+01 0. -1.
        -13    1    6    6    0    0  0.48717434905E+01 -0.57374035699E+02  0.59444259784E+02  0.82759494188E+02  0.00000000000E+00 0.  1.
         14    1    6    6    0    0 -0.29099056526E+02  0.11198786288E+02  0.15058270928E+02  0.34625415930E+02  0.00000000000E+00 0. -1.
         -5    1    3    3    0  503  0.77536835591E+02  0.52990690910E+02 -0.10524477439E+03  0.14113301079E+03  0.47000000000E+01 0.  1.
         11    1    4    4    0    0 -0.63438450895E+01  0.14319190661E+02 -0.55633996718E+02  0.57796411502E+02  0.00000000000E+00 0. -1.
        -12    1    4    4    0    0 -0.19567697899E+02 -0.24944989432E+02  0.16363917389E+02  0.35678075777E+02  0.00000000000E+00 0.  1.
</event>
<event>
12    1  0.1681255E-001  0.2492279E+03  0.7818608E-02  0.1114027E+00
         21   -1    0    0  503  502  0.00000000000E+00  0.00000000000E+00  0.40925132052E+02  0.40925132052E+02  0.00000000000E+00 0.  1.
         21   -1    0    0  501  503 -0.00000000000E+00 -0.00000000000E+00 -0.15188401698E+04  0.15188401698E+04  0.00000000000E+00 0.  1.
          6    2    1    2  501    0  0.16509241308E+03 -0.70450034073E+02 -0.80000334668E+03  0.83749194956E+03  0.17078846189E+03 0.  0.
         24    2    3    3    0    0  0.17755361493E+03 -0.94284808192E+02 -0.64973752346E+03  0.68476577093E+03  0.79563813493E+02 0.  0.
         -6    2    1    2    0  502 -0.16509241308E+03  0.70450034073E+02 -0.67791169104E+03  0.72227335226E+03  0.17290408437E+03 0.  0.
        -24    2    5    5    0    0 -0.10567601570E+03 -0.13572979203E+02 -0.26150868302E+03  0.29331679255E+03  0.79349249758E+02 0.  0.
          5    1    3    3  501    0 -0.12461201854E+02  0.23834774119E+02 -0.15026582322E+03  0.15272617862E+03  0.47000000000E+01 0. -1.
        -11    1    4    4    0    0  0.99833005029E+02 -0.94646415459E+02 -0.38411351418E+03  0.40800461349E+03  0.00000000000E+00 0.  1.
         12    1    4    4    0    0  0.77720609904E+02  0.36160726722E+00 -0.26562400928E+03  0.27676115745E+03  0.00000000000E+00 0. -1.
         -5    1    5    5    0  502 -0.59416397374E+02  0.84023013276E+02 -0.41640300802E+03  0.42895655972E+03  0.47000000000E+01 0.  1.
         11    1    6    6    0    0 -0.10081115713E+03  0.12890277469E+02 -0.23254434120E+03  0.25378321315E+03  0.00000000000E+00 0. -1.
        -12    1    6    6    0    0 -0.48648585719E+01 -0.26463256672E+02 -0.28964341820E+02  0.39533579394E+02  0.00000000000E+00 0.  1.
</event>
<event>
12    1  0.1681255E-001  0.1753313E+03  0.7818608E-02  0.1173261E+00
         21   -1    0    0  503  502  0.00000000000E+00  0.00000000000E+00  0.52936426635E+02  0.52936426635E+02  0.00000000000E+00 0. -1.
         21   -1    0    0  501  503 -0.00000000000E+00 -0.00000000000E+00 -0.66386280564E+03  0.66386280564E+03  0.00000000000E+00 0. -1.
          6    2    1    2  501    0 -0.30695737780E+01  0.71343167876E+01 -0.43801433713E+03  0.47054805421E+03  0.17175153867E+03 0.  0.
         24    2    3    3    0    0 -0.48644047021E+02  0.19498545890E+02 -0.40070394309E+03  0.41018198530E+03  0.70279260488E+02 0.  0.
         -6    2    1    2    0  502  0.30695737780E+01 -0.71343167876E+01 -0.17291204187E+03  0.24625117806E+03  0.17515920676E+03 0.  0.
        -24    2    5    5    0    0 -0.42995823000E+01  0.63853704285E+02 -0.73313711726E+02  0.12363176294E+03  0.76250446036E+02 0.  0.
          5    1    3    3  501    0  0.45574473243E+02 -0.12364229103E+02 -0.37310394040E+02  0.60366068914E+02  0.47000000000E+01 0. -1.
        -11    1    4    4    0    0 -0.53647929796E+02  0.24055975771E+02 -0.17968605389E+03  0.18906048848E+03  0.00000000000E+00 0.  1.
         12    1    4    4    0    0  0.50038827744E+01 -0.45574298803E+01 -0.22101788919E+03  0.22112149682E+03  0.00000000000E+00 0. -1.
         -5    1    5    5    0  502  0.73691560780E+01 -0.70988021073E+02 -0.99598330149E+02  0.12261941513E+03  0.47000000000E+01 0.  1.
         11    1    6    6    0    0  0.27437507111E+02  0.50338913115E+02 -0.67649281140E+02  0.88674958183E+02  0.00000000000E+00 0. -1.
        -12    1    6    6    0    0 -0.31737089411E+02  0.13514791170E+02 -0.56644305858E+01  0.34956804752E+02  0.00000000000E+00 0.  1.
</event>
<event>
12    1  0.1681255E-001  0.2279337E+03  0.7818608E-02  0.1128183E+00
         21   -1    0    0  501  502  0.00000000000E+00  0.00000000000E+00  0.28752400997E+03  0.28752400997E+03  0.00000000000E+00 0. -1.
         21   -1    0    0  502  503 -0.00000000000E+00 -0.00000000000E+00 -0.36153182269E+03  0.36153182269E+03  0.00000000000E+00 0. -1.
         -6    2    1    2    0  503  0.13983900001E+03  0.52746341582E+02 -0.26677177669E+03  0.35088597413E+03  0.17209492594E+03 0.  0.
        -24    2    3    3    0    0  0.14362716422E+02 -0.14229682049E+02 -0.68263421746E+02  0.10663662927E+03  0.79389574125E+02 0.  0.
          6    2    1    2  501    0 -0.13983900001E+03 -0.52746341582E+02  0.19276396397E+03  0.29816985852E+03  0.17149401229E+03 0.  0.
         24    2    5    5    0    0 -0.67548724090E+02 -0.92226380906E+02  0.86732346010E+02  0.16382198357E+03  0.79035479345E+02 0.  0.
          5    1    5    5  501    0 -0.72290275917E+02  0.39480039324E+02  0.10603161796E+03  0.13434787495E+03  0.47000000000E+01 0. -1.
        -13    1    6    6    0    0 -0.29722130020E+01  0.12067514533E+02 -0.17796842326E+01  0.12554928638E+02  0.00000000000E+00 0.  1.
         14    1    6    6    0    0 -0.64576511088E+02 -0.10429389544E+03  0.88512030242E+02  0.15126705493E+03  0.00000000000E+00 0. -1.
         -5    1    3    3    0  503  0.12547628359E+03  0.66976023631E+02 -0.19850835494E+03  0.24424934486E+03  0.47000000000E+01 0.  1.
         13    1    4    4    0    0  0.97566000017E+01  0.32539940593E+02 -0.36789276647E+02  0.50074842523E+02  0.00000000000E+00 0. -1.
        -14    1    4    4    0    0  0.46061164202E+01 -0.46769622642E+02 -0.31474145098E+02  0.56561786749E+02  0.00000000000E+00 0.  1.
</event>
<event>
12    1  0.1681255E-001  0.2062353E+03  0.7818608E-02  0.1144722E+00
         21   -1    0    0  501  502  0.00000000000E+00  0.00000000000E+00  0.51791851284E+03  0.51791851284E+03  0.00000000000E+00 0. -1.
         21   -1    0    0  502  503 -0.00000000000E+00 -0.00000000000E+00 -0.90871552897E+02  0.90871552897E+02  0.00000000000E+00 0. -1.
         -6    2    1    2    0  503 -0.22068056373E+02 -0.11358658853E+03  0.11792792381E+03  0.23757102122E+03  0.17071638089E+03 0.  0.
        -24    2    3    3    0    0  0.21410987551E+02 -0.37821379689E+02 -0.47051293374E-01  0.90700401691E+02  0.79609506365E+02 0.  0.
          6    2    1    2  501    0  0.22068056373E+02  0.11358658853E+03  0.30911903614E+03  0.37121904452E+03  0.16988257211E+03 0.  0.
         24    2    5    5    0    0 -0.29506020820E+02  0.11926890402E+03  0.27488448707E+03  0.30887910149E+03  0.68914014349E+02 0.  0.
          5    1    5    5  501    0  0.51574077193E+02 -0.56823154902E+01  0.34234549073E+02  0.62339943037E+02  0.47000000000E+01 0. -1.
        -13    1    6    6    0    0 -0.24749750247E+02  0.82504482970E+02  0.10912282933E+03  0.13902277414E+03  0.00000000000E+00 0.  1.
         14    1    6    6    0    0 -0.47562705728E+01  0.36764421047E+02  0.16576165774E+03  0.16985632735E+03  0.00000000000E+00 0. -1.
         -5    1    3    3    0  503 -0.43479043924E+02 -0.75765208838E+02  0.11797497510E+03  0.14687061953E+03  0.47000000000E+01 0.  1.
         13    1    4    4    0    0 -0.43099949902E+01 -0.28169205006E+01 -0.34733062346E+02  0.35112629037E+02  0.00000000000E+00 0. -1.
        -14    1    4    4    0    0  0.25720982542E+02 -0.35004459188E+02  0.34686011053E+02  0.55587772655E+02  0.00000000000E+00 0.  1.
</event>
<event>
12    1  0.1681255E-001  0.2158978E+03  0.7818608E-02  0.1136984E+00
         21   -1    0    0  501  502  0.00000000000E+00  0.00000000000E+00  0.53242774870E+02  0.53242774870E+02  0.00000000000E+00 0.  1.
         21   -1    0    0  502  503 -0.00000000000E+00 -0.00000000000E+00 -0.18261693776E+04  0.18261693776E+04  0.00000000000E+00 0. -1.
         -6    2    1    2    0  503 -0.72228164592E+02 -0.10801112314E+03 -0.15645480011E+04  0.15793740185E+04  0.17241963932E+03 0.  0.
        -24    2    3    3    0    0 -0.11062825636E+02 -0.59482585901E+02 -0.12857244620E+04  0.12897865989E+04  0.82471294471E+02 0.  0.
          6    2    1    2  501    0  0.72228164592E+02  0.10801112314E+03 -0.20837860163E+03  0.30003813399E+03  0.17238889102E+03 0.  0.
         24    2    5    5    0    0  0.79594878168E+02  0.14167570971E+03 -0.17883266817E+03  0.25440234713E+03  0.79574365653E+02 0.  0.
          5    1    5    5  501    0 -0.73667135764E+01 -0.33664586572E+02 -0.29545933462E+02  0.45635786858E+02  0.47000000000E+01 0. -1.
        -11    1    6    6    0    0 -0.10497659478E+02  0.18213361487E+02 -0.26882240954E+01  0.21193252227E+02  0.00000000000E+00 0.  1.
         12    1    6    6    0    0  0.90092537646E+02  0.12346234822E+03 -0.17614444407E+03  0.23320909490E+03  0.00000000000E+00 0. -1.
         -5    1    3    3    0  503 -0.61165338956E+02 -0.48528537238E+02 -0.27882353910E+03  0.28958741957E+03  0.47000000000E+01 0.  1.
         13    1    4    4    0    0 -0.25131501542E+02 -0.47328864708E+02 -0.36871881819E+03  0.37259251293E+03  0.00000000000E+00 0. -1.
        -14    1    4    4    0    0  0.14068675906E+02 -0.12153721192E+02 -0.91700564381E+03  0.91719408598E+03  0.00000000000E+00 0.  1.
</event>
<event>
12    1  0.1681255E-001  0.1834133E+03  0.7818608E-02  0.1165211E+00
         21   -1    0    0  503  502  0.00000000000E+00  0.00000000000E+00  0.16192019164E+04  0.16192019164E+04  0.00000000000E+00 0. -1.
         21   -1    0    0  501  503 -0.00000000000E+00 -0.00000000000E+00 -0.77882814953E+02  0.77882814953E+02  0.00000000000E+00 0.  1.
          6    2    1    2  501    0 -0.42134593900E+02 -0.34513518527E+02  0.43609736821E+02  0.18852650767E+03  0.17513973845E+03 0.  0.
         24    2    3    3    0    0 -0.85844883245E+02 -0.39913035653E+02  0.64904504138E+02  0.13938079275E+03  0.79069692901E+02 0.  0.
         -6    2    1    2    0  502  0.42134593900E+02  0.34513518527E+02  0.14977093646E+04  0.15085582236E+04  0.17218613880E+03 0.  0.
        -24    2    5    5    0    0  0.69969993510E+02 -0.23917866446E+02  0.11247499618E+04  0.11299953592E+04  0.79744409735E+02 0.  0.
          5    1    3    3  501    0  0.43710289345E+02  0.53995171259E+01 -0.21294767316E+02  0.49145714919E+02  0.47000000000E+01 0. -1.
        -11    1    4    4    0    0 -0.39721943924E+02 -0.20343991435E+02 -0.13242430960E+02  0.46551829119E+02  0.00000000000E+00 0.  1.
         12    1    4    4    0    0 -0.46122939321E+02 -0.19569044218E+02  0.78146935098E+02  0.92828963629E+02  0.00000000000E+00 0. -1.
         -5    1    5    5    0  502 -0.27835399610E+02  0.58431384973E+02  0.37295940276E+03  0.37856286443E+03  0.47000000000E+01 0.  1.
         11    1    6    6    0    0  0.28290398598E+02  0.79936216166E+00  0.95501755535E+02  0.99607082796E+02  0.00000000000E+00 0. -1.
        -12    1    6    6    0    0  0.41679594911E+02 -0.24717228608E+02  0.10292482063E+04  0.10303882764E+04  0.00000000000E+00 0.  1.
</event>
<event>
12    1  0.1681255E-001  0.2126216E+03  0.7818608E-02  0.1142483E+00
         21   -1    0    0  501  502  0.00000000000E+00  0.00000000000E+00  0.79254310708E+02  0.79254310708E+02  0.00000000000E+00 0.  1.
         21   -1    0    0  502  503 -0.00000000000E+00 -0.00000000000E+00 -0.53459446805E+03  0.53459446805E+03  0.00000000000E+00 0.  1.
         -6    2    1    2    0  503 -0.58125253362E+02 -0.76668813076E+02 -0.19680237726E+03  0.27911045193E+03  0.17295900296E+03 0.  0.
        -24    2    3    3    0    0 -0.53868544778E+02 -0.11913055366E+03 -0.14366717523E+03  0.21079823723E+03  0.81864098666E+02 0.  0.
          6    2    1    2  501    0  0.58125253362E+02  0.76668813076E+02 -0.25853778009E+03  0.33473832683E+03  0.18960831137E+03 0.  0.
         24    2    5    5    0    0  0.76896875645E+02  0.11174740387E+03 -0.24590975564E+03  0.29273310886E+03  0.82586036036E+02 0.  0.
          5    1    5    5  501    0 -0.18771622284E+02 -0.35078590795E+02 -0.12628024445E+02  0.42005217970E+02  0.47000000000E+01 0. -1.
        -13    1    6    6    0    0  0.29058291202E+02  0.88649332718E+02 -0.20647738729E+03  0.22657449093E+03  0.00000000000E+00 0.  1.
         14    1    6    6    0    0  0.47838584444E+02  0.23098071153E+02 -0.39432368351E+02  0.66158617930E+02  0.00000000000E+00 0. -1.
         -5    1    3    3    0  503 -0.42567085833E+01  0.42461740587E+02 -0.53135202031E+02  0.68312214695E+02  0.47000000000E+01 0.  1.
         13    1    4    4    0    0 -0.13996219322E+02  0.80206597687E+01 -0.19144054970E+01  0.16244694113E+02  0.00000000000E+00 0. -1.
        -14    1    4    4    0    0 -0.39872325457E+02 -0.12715121343E+03 -0.14175276973E+03  0.19455354312E+03  0.00000000000E+00 0.  1.
</event>
<event>
12    1  0.1681255E-001  0.2224151E+03  0.7818608E-02  0.1132100E+00
         21   -1    0    0  501  502  0.00000000000E+00  0.00000000000E+00  0.20233717034E+03  0.20233717034E+03  0.00000000000E+00 0. -1.
         21   -1    0    0  502  503 -0.00000000000E+00 -0.00000000000E+00 -0.42515636444E+03  0.42515636444E+03  0.00000000000E+00 0.  1.
         -6    2    1    2    0  503 -0.12810202900E+03 -0.58721854253E+02 -0.31595381905E+03  0.38638749475E+03  0.17207583888E+03 0.  0.
        -24    2    3    3    0    0 -0.86149721950E+00 -0.61314306729E+01 -0.15831324364E+03  0.17703481004E+03  0.78993064466E+02 0.  0.
          6    2    1    2  501    0  0.12810202900E+03  0.58721854253E+02  0.93134624958E+02  0.24110604003E+03  0.17204557004E+03 0.  0.
         24    2    5    5    0    0  0.44773371737E+02  0.76158354726E+02  0.68401353097E+01  0.11979435216E+03  0.80617303022E+02 0.  0.
          5    1    5    5  501    0  0.83328657267E+02 -0.17436500473E+02  0.86294489648E+02  0.12131168787E+03  0.47000000000E+01 0. -1.
        -13    1    6    6    0    0 -0.14730993491E+02  0.24518106425E+02 -0.21799086438E+02  0.35963034930E+02  0.00000000000E+00 0.  1.
         14    1    6    6    0    0  0.59504365227E+02  0.51640248301E+02  0.28639221748E+02  0.83831317227E+02  0.00000000000E+00 0. -1.
         -5    1    3    3    0  503 -0.12724053178E+03 -0.52590423580E+02 -0.15764057541E+03  0.20935268472E+03  0.47000000000E+01 0.  1.
         11    1    4    4    0    0 -0.14387251266E+02  0.33710737816E+02 -0.83751511952E+02  0.91420580819E+02  0.00000000000E+00 0. -1.
        -12    1    4    4    0    0  0.13525754046E+02 -0.39842168488E+02 -0.74561731687E+02  0.85614229218E+02  0.00000000000E+00 0.  1.
</event>
<event>
12    1  0.1681255E-001  0.2953340E+03  0.7818608E-02  0.1088356E+00
         21   -1    0    0  501  502  0.00000000000E+00  0.00000000000E+00  0.68693485516E+03  0.68693485516E+03  0.00000000000E+00 0. -1.
         21   -1    0    0  502  503 -0.00000000000E+00 -0.00000000000E+00 -0.14740029228E+03  0.14740029228E+03  0.00000000000E+00 0.  1.
         -6    2    1    2    0  503 -0.22636216966E+03  0.57813186370E+02  0.43665553242E+03  0.52715296903E+03  0.18066544324E+03 0.  0.
        -24    2    3    3    0    0 -0.26264037724E+02  0.22866859564E+02  0.15605007571E+03  0.18071102512E+03  0.84214936469E+02 0.  0.
          6    2    1    2  501    0  0.22636216966E+03 -0.57813186370E+02  0.10287903046E+03  0.30718217841E+03  0.17086427202E+03 0.  0.
         24    2    5    5    0    0  0.14434295052E+03 -0.10417224564E+03  0.66731172546E+02  0.20616202044E+03  0.79768321749E+02 0.  0.
          5    1    5    5  501    0  0.82019219147E+02  0.46359059274E+02  0.36147857910E+02  0.10102015798E+03  0.47000000000E+01 0. -1.
        -11    1    6    6    0    0  0.92502527721E+02 -0.24395934504E+02  0.12034272214E+02  0.96419411753E+02  0.00000000000E+00 0.  1.
         12    1    6    6    0    0  0.51840422796E+02 -0.79776311140E+02  0.54696900331E+02  0.10974260868E+03  0.00000000000E+00 0. -1.
         -5    1    3    3    0  503 -0.20009813194E+03  0.34946326806E+02  0.28060545671E+03  0.34644194391E+03  0.47000000000E+01 0.  1.
         13    1    4    4    0    0 -0.43438147320E+02 -0.81183533223E+01  0.12833929403E+03  0.13573413239E+03  0.00000000000E+00 0. -1.
        -14    1    4    4    0    0  0.17174109596E+02  0.30985212886E+02  0.27710781689E+02  0.44976892732E+02  0.00000000000E+00 0.  1.
</event>
<event>
12    1  0.1681255E-001  0.2094176E+03  0.7818608E-02  0.1142162E+00
         21   -1    0    0  501  502  0.00000000000E+00  0.00000000000E+00  0.40092747361E+03  0.40092747361E+03  0.00000000000E+00 0. -1.
         21   -1    0    0  502  503 -0.00000000000E+00 -0.00000000000E+00 -0.14151600584E+03  0.14151600584E+03  0.00000000000E+00 0. -1.
         -6    2    1    2    0  503  0.11432022524E+03 -0.32102951096E+02 -0.39275375428E+00  0.20874609553E+03  0.17168303579E+03 0.  0.
        -24    2    3    3    0    0  0.50463989741E+02  0.10989300412E+02 -0.58555965100E+02  0.11210443730E+03  0.80443923507E+02 0.  0.
          6    2    1    2  501    0 -0.11432022524E+03  0.32102951096E+02  0.25980422153E+03  0.33369738392E+03  0.17249926709E+03 0.  0.
         24    2    5    5    0    0 -0.76810557093E+02  0.86270688962E+02  0.14191213359E+03  0.19856132867E+03  0.77104177125E+02 0.  0.
          5    1    5    5  501    0 -0.37509668143E+02 -0.54167737865E+02  0.11789208794E+03  0.13513605525E+03  0.47000000000E+01 0. -1.
        -13    1    6    6    0    0  0.14635067365E+02  0.13024832721E+02  0.95568688618E+01  0.21798284488E+02  0.00000000000E+00 0.  1.
         14    1    6    6    0    0 -0.91445624457E+02  0.73245856240E+02  0.13235526473E+03  0.17676304419E+03  0.00000000000E+00 0. -1.
         -5    1    3    3    0  503  0.63856235494E+02 -0.43092251509E+02  0.58163211346E+02  0.96641658231E+02  0.47000000000E+01 0.  1.
         13    1    4    4    0    0  0.21749303613E+02 -0.31036521538E+02 -0.50120527498E+01  0.38228504412E+02  0.00000000000E+00 0. -1.
        -14    1    4    4    0    0  0.28714686128E+02  0.42025821951E+02 -0.53543912350E+02  0.73875932887E+02  0.00000000000E+00 0.  1.
</event>
<event>
12    1  0.1681255E-001  0.2770483E+03  0.7818608E-02  0.1097345E+00
         21   -1    0    0  503  502  0.00000000000E+00  0.00000000000E+00  0.49290584790E+03  0.49290584790E+03  0.00000000000E+00 0.  1.
         21   -1    0    0  501  503 -0.00000000000E+00 -0.00000000000E+00 -0.15560903783E+03  0.15560903783E+03  0.00000000000E+00 0. -1.
          6    2    1    2  501    0 -0.20082972728E+03  0.81678234148E+02  0.16489762780E+03  0.32220639283E+03  0.17210990277E+03 0.  0.
         24    2    3    3    0    0 -0.16681897217E+03  0.11413147008E+03  0.10068277226E+03  0.24248449084E+03  0.88358054114E+02 0.  0.
         -6    2    1    2    0  502  0.20082972728E+03 -0.81678234148E+02  0.17239918227E+03  0.32630849291E+03  0.17248722040E+03 0.  0.
        -24    2    5    5    0    0  0.96151590410E+02 -0.42241351617E+02  0.15522644537E+02  0.13357780481E+03  0.81071680136E+02 0.  0.
          5    1    3    3  501    0 -0.34010755108E+02 -0.32453235933E+02  0.64214855532E+02  0.79721901988E+02  0.47000000000E+01 0. -1.
        -13    1    4    4    0    0  0.68930058111E+01 -0.39379198071E+01 -0.26951640300E+01  0.83835941378E+01  0.00000000000E+00 0.  1.
         14    1    4    4    0    0 -0.17371197798E+03  0.11806938989E+03  0.10337793629E+03  0.23410089670E+03  0.00000000000E+00 0. -1.
         -5    1    5    5    0  502  0.10467813687E+03 -0.39436882531E+02  0.15687653774E+03  0.19273068810E+03  0.47000000000E+01 0.  1.
         13    1    6    6    0    0  0.99994603395E+01 -0.39738650781E+02 -0.12676660313E+02  0.42893441103E+02  0.00000000000E+00 0. -1.
        -14    1    6    6    0    0  0.86152130071E+02 -0.25027008359E+01  0.28199304850E+02  0.90684363708E+02  0.00000000000E+00 0.  1.
</event>
<event>
12    1  0.1681255E-001  0.1876190E+03  0.7818608E-02  0.1161556E+00
         21   -1    0    0  501  502  0.00000000000E+00  0.00000000000E+00  0.63435925123E+03  0.63435925123E+03  0.00000000000E+00 0.  1.
         21   -1    0    0  502  503 -0.00000000000E+00 -0.00000000000E+00 -0.70711772655E+02  0.70711772655E+02  0.00000000000E+00 0.  1.
         -6    2    1    2    0  503 -0.31912081396E+02  0.61490989575E+02  0.10971623209E+03  0.21389442667E+03  0.17004014654E+03 0.  0.
        -24    2    3    3    0    0 -0.47822222275E+02  0.95496435324E+02  0.50595424459E+02  0.14370281165E+03  0.81756143482E+02 0.  0.
          6    2    1    2  501    0  0.31912081396E+02 -0.61490989575E+02  0.45393124649E+03  0.49117659722E+03  0.17435983019E+03 0.  0.
         24    2    5    5    0    0 -0.34285286383E+01  0.20081312831E+02  0.31677555737E+03  0.32766276816E+03  0.81247288925E+02 0.  0.
          5    1    5    5  501    0  0.35340610035E+02 -0.81572302406E+02  0.13715568911E+03  0.16351382906E+03  0.47000000000E+01 0. -1.
        -11    1    6    6    0    0 -0.12740011190E+02  0.22689162389E+02  0.26199529448E+02  0.36925889541E+02  0.00000000000E+00 0.  1.
         12    1    6    6    0    0  0.93114825513E+01 -0.26078495590E+01  0.29057602792E+03  0.29073687862E+03  0.00000000000E+00 0. -1.
         -5    1    3    3    0  503  0.15910140879E+02 -0.34005445749E+02  0.59120807632E+02  0.70191615015E+02  0.47000000000E+01 0.  1.
         13    1    4    4    0    0 -0.55878467938E+02  0.43246512242E+02  0.19270849018E+00  0.70659048513E+02  0.00000000000E+00 0. -1.
        -14    1    4    4    0    0  0.80562456624E+01  0.52249923082E+02  0.50402715969E+02  0.73043763137E+02  0.00000000000E+00 0.  1.
</event>
<event>
12    1  0.1681255E-001  0.1946655E+03  0.7818608E-02  0.1154555E+00
         21   -1    0    0  501  502  0.00000000000E+00  0.00000000000E+00  0.90105980129E+02  0.90105980129E+02  0.00000000000E+00 0. -1.
         21   -1    0    0  502  503 -0.00000000000E+00 -0.00000000000E+00 -0.69282859024E+03  0.69282859024E+03  0.00000000000E+00 0. -1.
         -6    2    1    2    0  503 -0.73865474814E+02  0.54101603658E+02 -0.54730514190E+03  0.58053462893E+03  0.17057093877E+03 0.  0.
        -24    2    3    3    0    0 -0.21752273929E+02  0.56838816765E+02 -0.15448763094E+03  0.18423806705E+03  0.79833731753E+02 0.  0.
          6    2    1    2  501    0  0.73865474814E+02 -0.54101603658E+02 -0.55417468217E+02  0.20239994144E+03  0.17178925643E+03 0.  0.
         24    2    5    5    0    0  0.29869500718E+02 -0.34234587812E+02 -0.97812369986E+02  0.13798129700E+03  0.86066163643E+02 0.  0.
          5    1    5    5  501    0  0.43995974096E+02 -0.19867015846E+02  0.42394901769E+02  0.64418644438E+02  0.47000000000E+01 0. -1.
        -13    1    6    6    0    0 -0.19030255967E+02 -0.30895932067E+02 -0.10370167604E+02  0.37739232062E+02  0.00000000000E+00 0.  1.
         14    1    6    6    0    0  0.48899756685E+02 -0.33386557450E+01 -0.87442202382E+02  0.10024206494E+03  0.00000000000E+00 0. -1.
         -5    1    3    3    0  503 -0.52113200884E+02 -0.27372131070E+01 -0.39281751096E+03  0.39629656188E+03  0.47000000000E+01 0.  1.
         13    1    4    4    0    0 -0.16870648743E+02  0.42921850067E+02 -0.16146528836E+03  0.16792243253E+03  0.00000000000E+00 0. -1.
        -14    1    4    4    0    0 -0.48816251868E+01  0.13916966699E+02  0.69776574250E+01  0.16315634517E+02  0.00000000000E+00 0.  1.
</event>
<event>
12    1  0.1681255E-001  0.4206516E+03  0.7818608E-02  0.1036959E+00
         21   -1    0    0  501  502  0.00000000000E+00  0.00000000000E+00  0.53661597128E+03  0.53661597128E+03  0.00000000000E+00 0.  1.
         21   -1    0    0  502  503 -0.00000000000E+00 -0.00000000000E+00 -0.43295557473E+03  0.43295557473E+03  0.00000000000E+00 0. -1.
         -6    2    1    2    0  503  0.28468383047E+03  0.25712633703E+03 -0.18595539042E+03  0.45992086836E+03  0.17259478961E+03 0.  0.
        -24    2    3    3    0    0  0.21745125885E+03  0.23388431004E+03 -0.92074516110E+02  0.34203906710E+03  0.80784196798E+02 0.  0.
          6    2    1    2  501    0 -0.28468383047E+03 -0.25712633703E+03  0.28961578697E+03  0.50965067765E+03  0.16943338704E+03 0.  0.
         24    2    5    5    0    0 -0.20910012805E+03 -0.24960264216E+03  0.18319913346E+03  0.37882217846E+03  0.62609726660E+02 0.  0.
          5    1    5    5  501    0 -0.75583702416E+02 -0.75236948694E+01  0.10641665351E+03  0.13082849918E+03  0.47000000000E+01 0. -1.
        -11    1    6    6    0    0 -0.12460018792E+03 -0.15480653041E+03  0.76432459235E+02  0.21291357288E+03  0.00000000000E+00 0.  1.
         12    1    6    6    0    0 -0.84499940125E+02 -0.94796111743E+02  0.10676667423E+03  0.16590860559E+03  0.00000000000E+00 0. -1.
         -5    1    3    3    0  503  0.67232571619E+02  0.23242026988E+02 -0.93880874312E+02  0.11788180125E+03  0.47000000000E+01 0.  1.
         11    1    4    4    0    0  0.53753708754E+02  0.11409119290E+03 -0.26684966653E+02  0.12891217533E+03  0.00000000000E+00 0. -1.
        -12    1    4    4    0    0  0.16369755009E+03  0.11979311714E+03 -0.65389549457E+02  0.21312689178E+03  0.00000000000E+00 0.  1.
</event>
<event>
12    1  0.1681255E-001  0.2092441E+03  0.7818608E-02  0.1142250E+00
         21   -1    0    0  503  502  0.00000000000E+00  0.00000000000E+00  0.13083192451E+04  0.13083192451E+04  0.00000000000E+00 0. -1.
         21   -1    0    0  501  503 -0.00000000000E+00 -0.00000000000E+00 -0.37852939024E+02  0.37852939024E+02  0.00000000000E+00 0. -1.
          6    2    1    2  501    0  0.10637451480E+03  0.50811300749E+02  0.40487842316E+03  0.45575172244E+03  0.17287501057E+03 0.  0.
         24    2    3    3    0    0  0.94810091421E+02  0.86578479122E+01  0.39004455455E+03  0.40935362838E+03  0.79823096712E+02 0.  0.
         -6    2    1    2    0  502 -0.10637451480E+03 -0.50811300749E+02  0.86558788289E+03  0.89042046166E+03  0.17236266956E+03 0.  0.
        -24    2    5    5    0    0 -0.59255998564E+01 -0.40839990089E+02  0.59283971510E+03  0.59955440213E+03  0.79394809658E+02 0.  0.
          5    1    3    3  501    0  0.11564423376E+02  0.42153452837E+02  0.14833868611E+02  0.46398094056E+02  0.47000000000E+01 0. -1.
        -11    1    4    4    0    0 -0.97247592146E+01 -0.77887760393E+01  0.14177061828E+02  0.18873925295E+02  0.00000000000E+00 0.  1.
         12    1    4    4    0    0  0.10453485064E+03  0.16446623952E+02  0.37586749272E+03  0.39047970309E+03  0.00000000000E+00 0. -1.
         -5    1    5    5    0  502 -0.10044891494E+03 -0.99713106599E+01  0.27274816779E+03  0.29086605952E+03  0.47000000000E+01 0.  1.
         11    1    6    6    0    0 -0.32202422008E+02 -0.38146083900E+02  0.21194222487E+03  0.21774210980E+03  0.00000000000E+00 0. -1.
        -12    1    6    6    0    0  0.26276822152E+02 -0.26939061889E+01  0.38089749023E+03  0.38181229233E+03  0.00000000000E+00 0.  1.
</event>
<event>
12    1  0.1681255E-001  0.2385021E+03  0.7818608E-02  0.1120895E+00
         21   -1    0    0  501  502  0.00000000000E+00  0.00000000000E+00  0.26343118351E+03  0.26343118351E+03  0.00000000000E+00 0.  1.
         21   -1    0    0  502  503 -0.00000000000E+00 -0.00000000000E+00 -0.30077168576E+03  0.30077168576E+03  0.00000000000E+00 0.  1.
         -6    2    1    2    0  503  0.91868615100E+02 -0.13668411801E+03 -0.16895276888E+03  0.29179682872E+03  0.17169146916E+03 0.  0.
        -24    2    3    3    0    0  0.19138130553E+02 -0.20034440982E+02 -0.16664731294E+02  0.86588137564E+02  0.80325247782E+02 0.  0.
          6    2    1    2  501    0 -0.91868615100E+02  0.13668411801E+03  0.13161226663E+03  0.27240604056E+03  0.17251339556E+03 0.  0.
         24    2    5    5    0    0 -0.53698215888E+02 -0.58244527079E+00  0.45989113293E+02  0.10611562244E+03  0.79130835658E+02 0.  0.
          5    1    5    5  501    0 -0.38170399212E+02  0.13726656328E+03  0.85623153337E+02  0.16629041812E+03  0.47000000000E+01 0. -1.
        -11    1    6    6    0    0 -0.61164961157E+02 -0.12075101408E+02  0.45983577433E+01  0.62514841768E+02  0.00000000000E+00 0.  1.
         12    1    6    6    0    0  0.74667452698E+01  0.11492656137E+02  0.41390755549E+02  0.43600780669E+02  0.00000000000E+00 0. -1.
         -5    1    3    3    0  503  0.72730484547E+02 -0.11664967703E+03 -0.15228803758E+03  0.20520869115E+03  0.47000000000E+01 0.  1.
         13    1    4    4    0    0 -0.23335270467E+02 -0.87639972131E+01  0.17893252235E+02  0.30684050750E+02  0.00000000000E+00 0. -1.
        -14    1    4    4    0    0  0.42473401020E+02 -0.11270443769E+02 -0.34557983529E+02  0.55904086814E+02  0.00000000000E+00 0.  1.
</event>
<event>
12    1  0.1681255E-001  0.2332491E+03  0.7818608E-02  0.1124999E+00
         21   -1    0    0  501  502  0.00000000000E+00  0.00000000000E+00  0.33402612889E+03  0.33402612889E+03  0.00000000000E+00 0. -1.
         21   -1    0    0  502  503 -0.00000000000E+00 -0.00000000000E+00 -0.17366552129E+03  0.17366552129E+03  0.00000000000E+00 0.  1.
         -6    2    1    2    0  503 -0.15545314682E+03 -0.15825418793E+02  0.10548075924E+02  0.23348746991E+03  0.17317335813E+03 0.  0.
        -24    2    3    3    0    0 -0.17819278292E+03 -0.28484514948E+01 -0.15515095962E+02  0.19624674410E+03  0.80692532527E+02 0.  0.
          6    2    1    2  501    0  0.15545314682E+03  0.15825418793E+02  0.14981253168E+03  0.27420418026E+03  0.16830927809E+03 0.  0.
         24    2    5    5    0    0  0.93921339081E+02  0.65777114892E+02  0.57031256764E+02  0.15209033878E+03  0.82043038246E+02 0.  0.
          5    1    5    5  501    0  0.61531807736E+02 -0.49951696100E+02  0.92781274913E+02  0.12211384148E+03  0.47000000000E+01 0. -1.
        -13    1    6    6    0    0  0.60673714695E+02 -0.43798190499E+01  0.10953481267E+02  0.61809879644E+02  0.00000000000E+00 0.  1.
         14    1    6    6    0    0  0.33247624386E+02  0.70156933942E+02  0.46077775497E+02  0.90280459139E+02  0.00000000000E+00 0. -1.
         -5    1    3    3    0  503  0.22739636106E+02 -0.12976967298E+02  0.26063171886E+02  0.37240725815E+02  0.47000000000E+01 0.  1.
         13    1    4    4    0    0 -0.10723547140E+03 -0.13911149008E+02  0.28744085190E+02  0.11188918100E+03  0.00000000000E+00 0. -1.
        -14    1    4    4    0    0 -0.70957311525E+02  0.11062697514E+02 -0.44259181152E+02  0.84357563095E+02  0.00000000000E+00 0.  1.
</event>
<event>
12    1  0.1681255E-001  0.1773667E+03  0.7818608E-02  0.1170528E+00
         21   -1    0    0  503  502  0.00000000000E+00  0.00000000000E+00  0.20524905131E+03  0.20524905131E+03  0.00000000000E+00 0.  1.
         21   -1    0    0  501  503 -0.00000000000E+00 -0.00000000000E+00 -0.16297344589E+03  0.16297344589E+03  0.00000000000E+00 0.  1.
          6    2    1    2  501    0  0.41633027588E+02  0.10245293287E+02 -0.24958274150E+02  0.17911407779E+03  0.17210654373E+03 0.  0.
         24    2    3    3    0    0 -0.31746899424E+02  0.28606432704E+02 -0.45165395764E+02  0.10067835320E+03  0.79183484468E+02 0.  0.
         -6    2    1    2    0  502 -0.41633027588E+02 -0.10245293287E+02  0.67233879572E+02  0.18910841941E+03  0.17147397677E+03 0.  0.
        -24    2    5    5    0    0  0.30048539748E+02  0.15545505556E+02  0.51618660590E+01  0.90729370513E+02  0.84027354645E+02 0.  0.
          5    1    3    3  501    0  0.73379927012E+02 -0.18361139417E+02  0.20207121613E+02  0.78435724596E+02  0.47000000000E+01 0. -1.
        -11    1    4    4    0    0 -0.46246937365E+02  0.22233490480E+02  0.15640407669E+01  0.51337642506E+02  0.00000000000E+00 0.  1.
         12    1    4    4    0    0  0.14500037940E+02  0.63729422243E+01 -0.46729436531E+02  0.49340710689E+02  0.00000000000E+00 0. -1.
         -5    1    5    5    0  502 -0.71681567335E+02 -0.25790798842E+02  0.62072013513E+02  0.98379048898E+02  0.47000000000E+01 0.  1.
         13    1    6    6    0    0  0.39211412921E+02  0.33778941071E+02  0.29019267127E+02  0.59335230914E+02  0.00000000000E+00 0. -1.
        -14    1    6    6    0    0 -0.91628731727E+01 -0.18233435515E+02 -0.23857401068E+02  0.31394139599E+02  0.00000000000E+00 0.  1.
</event>
<event>
12    1  0.1681255E-001  0.2969495E+03  0.7818608E-02  0.1086833E+00
         21   -1    0    0  503  502  0.00000000000E+00  0.00000000000E+00  0.32736672189E+03  0.32736672189E+03  0.00000000000E+00 0.  1.
         21   -1    0    0  501  503 -0.00000000000E+00 -0.00000000000E+00 -0.47802825457E+03  0.47802825457E+03  0.00000000000E+00 0.  1.
          6    2    1    2  501    0 -0.13103631925E+03 -0.20361674092E+03 -0.34168514949E+03  0.45268947630E+03  0.17189742997E+03 0.  0.
         24    2    3    3    0    0 -0.12012896796E+03 -0.61643806808E+02 -0.23036921331E+03  0.27188955379E+03  0.51215497276E+02 0.  0.
         -6    2    1    2    0  502  0.13103631925E+03  0.20361674092E+03  0.19102361682E+03  0.35270550016E+03  0.17111649107E+03 0.  0.
        -24    2    5    5    0    0  0.12973238997E+03  0.90966813861E+02  0.90648991843E+02  0.20174569877E+03  0.85898969825E+02 0.  0.
          5    1    3    3  501    0 -0.10907351293E+02 -0.14197293411E+03 -0.11131593618E+03  0.18079992251E+03  0.47000000000E+01 0. -1.
        -11    1    4    4    0    0 -0.39897051363E+02 -0.23857426842E+02 -0.37924483980E+02  0.59993483047E+02  0.00000000000E+00 0.  1.
         12    1    4    4    0    0 -0.80231916594E+02 -0.37786379966E+02 -0.19244472933E+03  0.21189607074E+03  0.00000000000E+00 0. -1.
         -5    1    5    5    0  502  0.13039292794E+01  0.11264992706E+03  0.10037462497E+03  0.15095980139E+03  0.47000000000E+01 0.  1.
         13    1    6    6    0    0  0.63707983258E+02  0.94127169334E+01  0.69417211127E+02  0.94689257952E+02  0.00000000000E+00 0. -1.
        -14    1    6    6    0    0  0.66024406713E+02  0.81554096928E+02  0.21231780717E+02  0.10705644081E+03  0.00000000000E+00 0.  1.
</event>
<event>
12    1  0.1681255E-001  0.2293225E+03  0.7818608E-02  0.1127210E+00
         21   -1    0    0  503  502  0.00000000000E+00  0.00000000000E+00  0.22647670116E+02  0.22647670116E+02  0.00000000000E+00 0. -1.
         21   -1    0    0  501  503 -0.00000000000E+00 -0.00000000000E+00 -0.42077487255E+04  0.42077487255E+04  0.00000000000E+00 0.  1.
          6    2    1    2  501    0  0.12698806241E+03  0.83101013607E+02 -0.35092213782E+04  0.35166722595E+04  0.17122310810E+03 0.  0.
         24    2    3    3    0    0  0.65077458646E+02  0.96602584161E+02 -0.30277595460E+04  0.30310357688E+04  0.79264291992E+02 0.  0.
         -6    2    1    2    0  502 -0.12698806241E+03 -0.83101013607E+02 -0.67587967714E+03  0.71372413612E+03  0.17192166253E+03 0.  0.
        -24    2    5    5    0    0 -0.13274653063E+03 -0.69540157208E+02 -0.67728106222E+03  0.69819639763E+03  0.79442416679E+02 0.  0.
          5    1    3    3  501    0  0.61910603768E+02 -0.13501570554E+02 -0.48146183218E+03  0.48563649072E+03  0.47000000000E+01 0. -1.
        -11    1    4    4    0    0  0.95450645975E+01  0.70944109709E+02 -0.11132045266E+04  0.11155036948E+04  0.00000000000E+00 0.  1.
         12    1    4    4    0    0  0.55532394049E+02  0.25658474452E+02 -0.19145550194E+04  0.19155320740E+04  0.00000000000E+00 0. -1.
         -5    1    5    5    0  502  0.57584682203E+01 -0.13560856398E+02  0.14013850720E+01  0.15527738490E+02  0.47000000000E+01 0.  1.
         13    1    6    6    0    0 -0.11232802085E+03 -0.67885152219E+02 -0.41831868836E+03  0.43842502573E+03  0.00000000000E+00 0. -1.
        -14    1    6    6    0    0 -0.20418509787E+02 -0.16550049895E+01 -0.25896237386E+03  0.25977137190E+03  0.00000000000E+00 0.  1.
</event>
<event>
12    1  0.1681255E-001  0.2005999E+03  0.7818608E-02  0.1149650E+00
         21   -1    0    0  501  502  0.00000000000E+00  0.00000000000E+00  0.12346533575E+03  0.12346533575E+03  0.00000000000E+00 0.  1.
         21   -1    0    0  502  503 -0.00000000000E+00 -0.00000000000E+00 -0.42913296611E+03  0.42913296611E+03  0.00000000000E+00 0.  1.
         -6    2    1    2    0  503  0.82843273098E+02  0.53525555529E+02 -0.29098108284E+03  0.35342654249E+03  0.17467781019E+03 0.  0.
        -24    2    3    3    0    0  0.58153956732E+02 -0.35203999035E+02 -0.12673589360E+03  0.16506235167E+03  0.81008573492E+02 0.  0.
          6    2    1    2  501    0 -0.82843273098E+02 -0.53525555529E+02 -0.14686547524E+02  0.19917175938E+03  0.17241143252E+03 0.  0.
         24    2    5    5    0    0 -0.11745354374E+03 -0.72741416779E+02 -0.24486965608E+01  0.15747073837E+03  0.75527403475E+02 0.  0.
          5    1    5    5  501    0  0.34610270639E+02  0.19215861250E+02 -0.12237850963E+02  0.41701021012E+02  0.47000000000E+01 0. -1.
        -13    1    6    6    0    0 -0.10303122528E+03 -0.71603647181E+02 -0.27587519325E+02  0.12846628700E+03  0.00000000000E+00 0.  1.
         14    1    6    6    0    0 -0.14422318459E+02 -0.11377695979E+01  0.25138822764E+02  0.29004451371E+02  0.00000000000E+00 0. -1.
         -5    1    3    3    0  503  0.24689316366E+02  0.88729554564E+02 -0.16424518924E+03  0.18836419082E+03  0.47000000000E+01 0.  1.
         11    1    4    4    0    0  0.29887022954E+02  0.21841467812E+02 -0.23732125607E+02  0.43971554932E+02  0.00000000000E+00 0. -1.
        -12    1    4    4    0    0  0.28266933778E+02 -0.57045466847E+02 -0.10300376799E+03  0.12109079673E+03  0.00000000000E+00 0.  1.
</event>
<event>
12    1  0.1681255E-001  0.3083534E+03  0.7818608E-02  0.1081140E+00
         21   -1    0    0  501  502  0.00000000000E+00  0.00000000000E+00  0.95558337088E+02  0.95558337088E+02  0.00000000000E+00 0. -1.
         21   -1    0    0  502  503 -0.00000000000E+00 -0.00000000000E+00 -0.10454079696E+04  0.10454079696E+04  0.00000000000E+00 0. -1.
         -6    2    1    2    0  503 -0.22242065073E+03 -0.12659801148E+03 -0.60027075306E+03  0.67483834648E+03  0.17199946079E+03 0.  0.
        -24    2    3    3    0    0 -0.18265155140E+03 -0.77560275048E+02 -0.30300630222E+03  0.37090657027E+03  0.79885412853E+02 0.  0.
          6    2    1    2  501    0  0.22242065073E+03  0.12659801148E+03 -0.34957887950E+03  0.46612796026E+03  0.17196476372E+03 0.  0.
         24    2    5    5    0    0  0.18772988347E+03  0.10731264655E+03 -0.35849849632E+03  0.42517647436E+03  0.74130622730E+02 0.  0.
          5    1    5    5  501    0  0.34690767254E+02  0.19285364936E+02  0.89196168199E+01  0.40951485902E+02  0.47000000000E+01 0. -1.
        -11    1    6    6    0    0  0.48306414490E+01 -0.28839312754E+01 -0.48075219669E+02  0.48403294337E+02  0.00000000000E+00 0.  1.
         12    1    6    6    0    0  0.18289924203E+03  0.11019657782E+03 -0.31042327665E+03  0.37677318002E+03  0.00000000000E+00 0. -1.
         -5    1    3    3    0  503 -0.39769099325E+02 -0.49037736436E+02 -0.29726445084E+03  0.30393177621E+03  0.47000000000E+01 0.  1.
         13    1    4    4    0    0 -0.47712528705E+02 -0.61617165508E+02 -0.11607872082E+03  0.13981212361E+03  0.00000000000E+00 0. -1.
        -14    1    4    4    0    0 -0.13493902270E+03 -0.15943109540E+02 -0.18692758140E+03  0.23109444666E+03  0.00000000000E+00 0.  1.
</event>
<event>
12    1  0.1681255E-001  0.1779303E+03  0.7818608E-02  0.1169984E+00
         21   -1    0    0  501  502  0.00000000000E+00  0.00000000000E+00  0.13046171208E+04  0.13046171208E+04  0.00000000000E+00 0.  1.
         21   -1    0    0  502  503 -0.00000000000E+00 -0.00000000000E+00 -0.33236948287E+02  0.33236948287E+02  0.00000000000E+00 0.  1.
         -6    2    1    2    0  503  0.33992149427E+01 -0.41859564448E+02  0.28558575365E+03  0.33613063403E+03  0.17222311879E+03 0.  0.
        -24    2    3    3    0    0  0.57254671900E+02  0.12823973410E+02  0.15298909076E+03  0.18285094012E+03  0.81155730917E+02 0.  0.
          6    2    1    2  501    0 -0.33992149427E+01  0.41859564448E+02  0.98579441887E+03  0.10017234351E+04  0.17290293892E+03 0.  0.
         24    2    5    5    0    0  0.42248144932E+02  0.63160412297E+02  0.42930499070E+03  0.44293905693E+03  0.78218218360E+02 0.  0.
          5    1    5    5  501    0 -0.45647359875E+02 -0.21300847850E+02  0.55648942817E+03  0.55878437814E+03  0.47000000000E+01 0. -1.
        -13    1    6    6    0    0  0.29284662285E+01  0.48730654106E+02  0.34870947443E+03  0.35211013920E+03  0.00000000000E+00 0.  1.
         14    1    6    6    0    0  0.39319678704E+02  0.14429758191E+02  0.80595516261E+02  0.90828917731E+02  0.00000000000E+00 0. -1.
         -5    1    3    3    0  503 -0.53855456957E+02 -0.54683537857E+02  0.13259666288E+03  0.15327969391E+03  0.47000000000E+01 0.  1.
         11    1    4    4    0    0  0.96430692540E+01  0.10114013787E+02  0.12847082165E+03  0.12922861167E+03  0.00000000000E+00 0. -1.
        -12    1    4    4    0    0  0.47611602646E+02  0.27099596229E+01  0.24518269117E+02  0.53622328448E+02  0.00000000000E+00 0.  1.
</event>
<event>
12    1  0.1681255E-001  0.1941729E+03  0.7818608E-02  0.1155484E+00
         21   -1    0    0  501  502  0.00000000000E+00  0.00000000000E+00  0.25680657329E+03  0.25680657329E+03  0.00000000000E+00 0. -1.
         21   -1    0    0  502  503 -0.00000000000E+00 -0.00000000000E+00 -0.15954460231E+03  0.15954460231E+03  0.00000000000E+00 0.  1.
         -6    2    1    2    0  503 -0.84997760356E+02  0.24021919028E+02  0.11331576108E+03  0.22481897679E+03  0.17292032488E+03 0.  0.
        -24    2    3    3    0    0 -0.47101824700E+02 -0.26407083748E+02  0.12964245165E+03  0.15949029178E+03  0.75591480593E+02 0.  0.
          6    2    1    2  501    0  0.84997760356E+02 -0.24021919028E+02 -0.16053790103E+02  0.19153219882E+03  0.16918979623E+03 0.  0.
         24    2    5    5    0    0 -0.14468591122E+02 -0.15334629000E+02 -0.36240383653E+02  0.89558610850E+02  0.79138412888E+02 0.  0.
          5    1    5    5  501    0  0.99466351478E+02 -0.86872900280E+01  0.20186593549E+02  0.10197358797E+03  0.47000000000E+01 0. -1.
        -13    1    6    6    0    0  0.38359444362E+01 -0.36351670664E+02 -0.47123249388E+02  0.59638570260E+02  0.00000000000E+00 0.  1.
         14    1    6    6    0    0 -0.18304535558E+02  0.21017041664E+02  0.10882865735E+02  0.29920040590E+02  0.00000000000E+00 0. -1.
         -5    1    3    3    0  503 -0.37895935656E+02  0.50429002775E+02 -0.16326690572E+02  0.65328685011E+02  0.47000000000E+01 0.  1.
         13    1    4    4    0    0  0.20082177134E+02  0.94282281835E+00  0.23453763672E+02  0.30891127912E+02  0.00000000000E+00 0. -1.
        -14    1    4    4    0    0 -0.67184001834E+02 -0.27349906566E+02  0.10618868798E+03  0.12859916387E+03  0.00000000000E+00 0.  1.
</event>
<event>
12    1  0.1681255E-001  0.2050684E+03  0.7818608E-02  0.1145848E+00
         21   -1    0    0  501  502  0.00000000000E+00  0.00000000000E+00  0.13747163360E+04  0.13747163360E+04  0.00000000000E+00 0. -1.
         21   -1    0    0  502  503 -0.00000000000E+00 -0.00000000000E+00 -0.10377968421E+03  0.10377968421E+03  0.00000000000E+00 0.  1.
         -6    2    1    2    0  503 -0.42290345660E+02 -0.99640669116E+02  0.14389392968E+02  0.20557263722E+03  0.17417324210E+03 0.  0.
        -24    2    3    3    0    0  0.43044676625E+02 -0.65097552447E+02  0.15489457347E+02  0.11338482306E+03  0.80781552912E+02 0.  0.
          6    2    1    2  501    0  0.42290345660E+02  0.99640669116E+02  0.12565472588E+04  0.12729233830E+04  0.17235483468E+03 0.  0.
         24    2    5    5    0    0 -0.17888488442E+02  0.29952874980E+02  0.31577911392E+03  0.32764846362E+03  0.80124242200E+02 0.  0.
          5    1    5    5  501    0  0.60178834102E+02  0.69687794136E+02  0.94076814493E+03  0.94527491939E+03  0.47000000000E+01 0. -1.
        -13    1    6    6    0    0 -0.43109513445E+02  0.40360365354E+02  0.19098681061E+03  0.19990835668E+03  0.00000000000E+00 0.  1.
         14    1    6    6    0    0  0.25221025003E+02 -0.10407490373E+02  0.12479230331E+03  0.12774010695E+03  0.00000000000E+00 0. -1.
         -5    1    3    3    0  503 -0.85335022285E+02 -0.34543116669E+02 -0.11000643788E+01  0.92187814158E+02  0.47000000000E+01 0.  1.
         13    1    4    4    0    0  0.15880044166E+02  0.14897346084E+02  0.18902988960E+02  0.28834522966E+02  0.00000000000E+00 0. -1.
        -14    1    4    4    0    0  0.27164632459E+02 -0.79994898531E+02 -0.34135316137E+01  0.84550300093E+02  0.00000000000E+00 0.  1.
</event>
<event>
12    1  0.1681255E-001  0.2168018E+03  0.7818608E-02  0.1136402E+00
         21   -1    0    0  501  502  0.00000000000E+00  0.00000000000E+00  0.17031127343E+03  0.17031127343E+03  0.00000000000E+00 0.  1.
         21   -1    0    0  502  503 -0.00000000000E+00 -0.00000000000E+00 -0.27991964139E+03  0.27991964139E+03  0.00000000000E+00 0. -1.
         -6    2    1    2    0  503  0.56654881936E+02 -0.11703869834E+03 -0.83858035016E+02  0.23190528728E+03  0.17274275579E+03 0.  0.
        -24    2    3    3    0    0  0.38495522294E+02 -0.15235941116E+03 -0.76890178932E+02  0.19131026154E+03  0.77409438379E+02 0.  0.
          6    2    1    2  501    0 -0.56654881936E+02  0.11703869834E+03 -0.25750332947E+02  0.21832562754E+03  0.17347958795E+03 0.  0.
         24    2    5    5    0    0  0.29668909391E+01  0.12836797436E+03  0.25453383435E+01  0.15120004888E+03  0.79798726508E+02 0.  0.
          5    1    5    5  501    0 -0.59621772875E+02 -0.11329276018E+02 -0.28295671291E+02  0.67125578654E+02  0.47000000000E+01 0. -1.
        -11    1    6    6    0    0 -0.33224135624E+02  0.97487423347E+02 -0.45750635087E+01  0.10309496644E+03  0.00000000000E+00 0.  1.
         12    1    6    6    0    0  0.36191026563E+02  0.30880551011E+02  0.71204018522E+01  0.48105082445E+02  0.00000000000E+00 0. -1.
         -5    1    3    3    0  503  0.18159359642E+02  0.35320712818E+02 -0.69678560847E+01  0.40595025742E+02  0.47000000000E+01 0.  1.
         11    1    4    4    0    0  0.66077840189E+00 -0.17732950565E+00 -0.26628929291E+02  0.26637716663E+02  0.00000000000E+00 0. -1.
        -12    1    4    4    0    0  0.37834743892E+02 -0.15218208165E+03 -0.50261249641E+02  0.16467254488E+03  0.00000000000E+00 0.  1.
</event>
<event>
12    1  0.1681255E-001  0.1738854E+03  0.7818608E-02  0.1174024E+00
         21   -1    0    0  503  502  0.00000000000E+00  0.00000000000E+00  0.48602421108E+02  0.48602421108E+02  0.00000000000E+00 0.  1.
         21   -1    0    0  501  503 -0.00000000000E+00 -0.00000000000E+00 -0.10342803465E+04  0.10342803465E+04  0.00000000000E+00 0.  1.
          6    2    1    2  501    0 -0.15561441792E+02  0.17696881037E+02 -0.83618443497E+03  0.85407291089E+03  0.17228113581E+03 0.  0.
         24    2    3    3    0    0  0.15622920294E+02  0.27739878247E+02 -0.21395750515E+03  0.23096636428E+03  0.80957216697E+02 0.  0.
         -6    2    1    2    0  502  0.15561441792E+02 -0.17696881037E+02 -0.14949349042E+03  0.22880985671E+03  0.17161092268E+03 0.  0.
        -24    2    5    5    0    0  0.35787294538E+02 -0.69996334271E+02 -0.12364148727E+03  0.16688462765E+03  0.79893956659E+02 0.  0.
          5    1    3    3  501    0 -0.31184362086E+02 -0.10042997210E+02 -0.62222692982E+03  0.62310654661E+03  0.47000000000E+01 0. -1.
        -13    1    4    4    0    0 -0.30322925139E+02  0.24194122369E+02 -0.12346786254E+03  0.12941850110E+03  0.00000000000E+00 0.  1.
         14    1    4    4    0    0  0.45945845433E+02  0.35457558779E+01 -0.90489642611E+02  0.10154786318E+03  0.00000000000E+00 0. -1.
         -5    1    5    5    0  502 -0.20225852746E+02  0.52299453233E+02 -0.25852003147E+02  0.61925229063E+02  0.47000000000E+01 0.  1.
         13    1    6    6    0    0  0.34773494785E+02 -0.90324421488E+01 -0.90757479325E+02  0.97609943162E+02  0.00000000000E+00 0. -1.
        -14    1    6    6    0    0  0.10137997524E+01 -0.60963892122E+02 -0.32884007944E+02  0.69274684489E+02  0.00000000000E+00 0.  1.
</event>
<event>
12    1  0.1681255E-001  0.1785490E+03  0.7818608E-02  0.1169473E+00
         21   -1    0    0  503  502  0.00000000000E+00  0.00000000000E+00  0.27970885718E+03  0.27970885718E+03  0.00000000000E+00 0. -1.
         21   -1    0    0  501  503 -0.00000000000E+00 -0.00000000000E+00 -0.11647710064E+03  0.11647710064E+03  0.00000000000E+00 0. -1.
          6    2    1    2  501    0  0.39181574334E+02 -0.19128178471E+02  0.48687980049E+02  0.18405388923E+03  0.17205880320E+03 0.  0.
         24    2    3    3    0    0  0.27165958528E+02 -0.47867957553E+02  0.89105851176E+02  0.13280894576E+03  0.81664145721E+02 0.  0.
         -6    2    1    2    0  502 -0.39181574334E+02  0.19128178471E+02  0.11454377649E+03  0.21213206859E+03  0.17314345155E+03 0.  0.
        -24    2    5    5    0    0 -0.23729910046E+02  0.76718390922E+02  0.47476848391E+02  0.12226856463E+03  0.79036261474E+02 0.  0.
          5    1    3    3  501    0  0.12015615806E+02  0.28739779082E+02 -0.40417871126E+02  0.51244943470E+02  0.47000000000E+01 0. -1.
        -11    1    4    4    0    0 -0.19941094384E+02 -0.11110429590E+02 -0.29959162813E+01  0.23023127617E+02  0.00000000000E+00 0.  1.
         12    1    4    4    0    0  0.47107052912E+02 -0.36757527963E+02  0.92101767457E+02  0.10978581814E+03  0.00000000000E+00 0. -1.
         -5    1    5    5    0  502 -0.15451664288E+02 -0.57590212451E+02  0.67066928099E+02  0.89863503961E+02  0.47000000000E+01 0.  1.
         13    1    6    6    0    0  0.30581511836E+01  0.51236661096E+02  0.63774360841E+02  0.81864014253E+02  0.00000000000E+00 0. -1.
        -14    1    6    6    0    0 -0.26788061230E+02  0.25481729826E+02 -0.16297512449E+02  0.40404550380E+02  0.00000000000E+00 0.  1.
</event>
<event>
12    1  0.1681255E-001  0.2037992E+03  0.7818608E-02  0.1146850E+00
         21   -1    0    0  503  502  0.00000000000E+00  0.00000000000E+00  0.72796068679E+03  0.72796068679E+03  0.00000000000E+00 0. -1.
         21   -1    0    0  501  503 -0.00000000000E+00 -0.00000000000E+00 -0.12068478296E+03  0.12068478296E+03  0.00000000000E+00 0. -1.
          6    2    1    2  501    0  0.95537356791E+02 -0.48350665391E+02 -0.49017087480E+01  0.20385811046E+03  0.17340394767E+03 0.  0.
         24    2    3    3    0    0  0.33820912908E+02 -0.32641760662E+02  0.66117054635E+02  0.10835185996E+03  0.71828420236E+02 0.  0.
         -6    2    1    2    0  502 -0.95537356791E+02  0.48350665391E+02  0.61217761258E+03  0.64478735929E+03  0.17182588853E+03 0.  0.
        -24    2    5    5    0    0 -0.69856239018E+02  0.50555111151E+02  0.60690564050E+03  0.61806165853E+03  0.78930627063E+02 0.  0.
          5    1    3    3  501    0  0.61716443883E+02 -0.15708904729E+02 -0.71018763383E+02  0.95506250507E+02  0.47000000000E+01 0. -1.
        -13    1    4    4    0    0  0.28000887332E+01 -0.31817231531E+02  0.70130684391E+02  0.77061596223E+02  0.00000000000E+00 0.  1.
         14    1    4    4    0    0  0.31020824175E+02 -0.82452913063E+00 -0.40136297561E+01  0.31290263735E+02  0.00000000000E+00 0. -1.
         -5    1    5    5    0  502 -0.25681117773E+02 -0.22044457599E+01  0.52719720794E+01  0.26725700754E+02  0.47000000000E+01 0.  1.
         11    1    6    6    0    0 -0.69476510944E+02  0.33460696209E+02  0.27200528008E+03  0.28272508936E+03  0.00000000000E+00 0. -1.
        -12    1    6    6    0    0 -0.37972807407E+00  0.17094414942E+02  0.33490036042E+03  0.33533656917E+03  0.00000000000E+00 0.  1.
</event>
<event>
12    1  0.1681255E-001  0.2194527E+03  0.7818608E-02  0.1134412E+00
         21   -1    0    0  501  502  0.00000000000E+00  0.00000000000E+00  0.16638641384E+03  0.16638641384E+03  0.00000000000E+00 0. -1.
         21   -1    0    0  502  503 -0.00000000000E+00 -0.00000000000E+00 -0.35075181845E+03  0.35075181845E+03  0.00000000000E+00 0. -1.
         -6    2    1    2    0  503 -0.61064379509E+02 -0.12200020251E+03 -0.20113866165E+03  0.29768478201E+03  0.17189112942E+03 0.  0.
        -24    2    3    3    0    0  0.42537065008E+01 -0.11142309026E+03 -0.74395453212E+02  0.15463144039E+03  0.77090854425E+02 0.  0.
          6    2    1    2  501    0  0.61064379509E+02  0.12200020251E+03  0.16773257036E+02  0.21945345028E+03  0.17107181776E+03 0.  0.
         24    2    5    5    0    0  0.48824704154E+02 -0.21763576167E+01  0.48171069974E+01  0.94015548274E+02  0.80169386483E+02 0.  0.
          5    1    5    5  501    0  0.12239675355E+02  0.12417656012E+03  0.11956150039E+02  0.12543790201E+03  0.47000000000E+01 0. -1.
        -11    1    6    6    0    0 -0.14804000855E+01 -0.24337158903E+02  0.25502195585E+02  0.35282444183E+02  0.00000000000E+00 0.  1.
         12    1    6    6    0    0  0.50305104240E+02  0.22160801286E+02 -0.20685088588E+02  0.58733104091E+02  0.00000000000E+00 0. -1.
         -5    1    3    3    0  503 -0.65318086010E+02 -0.10577112246E+02 -0.12674320844E+03  0.14305334162E+03  0.47000000000E+01 0.  1.
         11    1    4    4    0    0 -0.32921326791E+02 -0.73897233727E+02 -0.57210932751E+02  0.99084336483E+02  0.00000000000E+00 0. -1.
        -12    1    4    4    0    0  0.37175033292E+02 -0.37525856533E+02 -0.17184520461E+02  0.55547103905E+02  0.00000000000E+00 0.  1.
</event>
<event>
12    1  0.1681255E-001  0.1990118E+03  0.7818608E-02  0.1151309E+00
         21   -1    0    0  501  502  0.00000000000E+00  0.00000000000E+00  0.75989163401E+02  0.75989163401E+02  0.00000000000E+00 0.  1.
         21   -1    0    0  502  503 -0.00000000000E+00 -0.00000000000E+00 -0.55163848335E+03  0.55163848335E+03  0.00000000000E+00 0. -1.
         -6    2    1    2    0  503 -0.36446098885E+02  0.84664075904E+02 -0.32356243096E+03  0.37986619568E+03  0.17637844547E+03 0.  0.
        -24    2    3    3    0    0 -0.21757171591E+02  0.10180119024E+03 -0.33057630002E+03  0.35576786313E+03  0.80331970290E+02 0.  0.
          6    2    1    2  501    0  0.36446098885E+02 -0.84664075904E+02 -0.15208688899E+03  0.24776145106E+03  0.17250794462E+03 0.  0.
         24    2    5    5    0    0 -0.42652298547E+02 -0.16363627775E+02 -0.74070341855E+02  0.11726172187E+03  0.78593313897E+02 0.  0.
          5    1    5    5  501    0  0.79098397433E+02 -0.68300448130E+02 -0.78016547136E+02  0.13049972919E+03  0.47000000000E+01 0. -1.
        -13    1    6    6    0    0 -0.12528605051E+02 -0.43233932526E+02 -0.18707527836E+02  0.48745363512E+02  0.00000000000E+00 0.  1.
         14    1    6    6    0    0 -0.30123693496E+02  0.26870304751E+02 -0.55362814019E+02  0.68516358363E+02  0.00000000000E+00 0. -1.
         -5    1    3    3    0  503 -0.14688927294E+02 -0.17137114335E+02  0.70138690631E+01  0.24098332557E+02  0.47000000000E+01 0.  1.
         11    1    4    4    0    0 -0.11734751707E+01  0.98669792446E+02 -0.19441185989E+03  0.21802081610E+03  0.00000000000E+00 0. -1.
        -12    1    4    4    0    0 -0.20583696421E+02  0.31313977938E+01 -0.13616444013E+03  0.13774704703E+03  0.00000000000E+00 0.  1.
</event>
<event>
12    1  0.1681255E-001  0.1819432E+03  0.7818608E-02  0.1166803E+00
         21   -1    0    0  503  502  0.00000000000E+00  0.00000000000E+00  0.89721971305E+03  0.89721971305E+03  0.00000000000E+00 0. -1.
         21   -1    0    0  501  503 -0.00000000000E+00 -0.00000000000E+00 -0.41817691035E+02  0.41817691035E+02  0.00000000000E+00 0. -1.
          6    2    1    2  501    0  0.50059036949E+02  0.12518069001E+02  0.25884809967E+03  0.31639482405E+03  0.17447273928E+03 0.  0.
         24    2    3    3    0    0  0.90021283185E+02 -0.70674043674E+01  0.23796969368E+03  0.26701294754E+03  0.80700430054E+02 0.  0.
         -6    2    1    2    0  502 -0.50059036949E+02 -0.12518069001E+02  0.59655392234E+03  0.62264258003E+03  0.17071786953E+03 0.  0.
        -24    2    5    5    0    0 -0.42162192780E+02 -0.18855641468E+02  0.15186205251E+03  0.17781061843E+03  0.80133309660E+02 0.  0.
          5    1    3    3  501    0 -0.39962246236E+02  0.19585473369E+02  0.20878405988E+02  0.49381876512E+02  0.47000000000E+01 0. -1.
        -13    1    4    4    0    0  0.54320569526E+02  0.35293638169E+02  0.14456634624E+03  0.15841651945E+03  0.00000000000E+00 0.  1.
         14    1    4    4    0    0  0.35700713658E+02 -0.42361042536E+02  0.93403347445E+02  0.10859642809E+03  0.00000000000E+00 0. -1.
         -5    1    5    5    0  502 -0.78968441693E+01  0.63375724667E+01  0.44469186983E+03  0.44483196161E+03  0.47000000000E+01 0.  1.
         11    1    6    6    0    0 -0.57379536977E+02 -0.13087357653E+02  0.15035978097E+03  0.16146750115E+03  0.00000000000E+00 0. -1.
        -12    1    6    6    0    0  0.15217344197E+02 -0.57682838151E+01  0.15022715424E+01  0.16343117278E+02  0.00000000000E+00 0.  1.
</event>
<event>
12    1  0.1681255E-001  0.2659474E+03  0.7818608E-02  0.1103631E+00
         21   -1    0    0  501  502  0.00000000000E+00  0.00000000000E+00  0.19283132275E+03  0.19283132275E+03  0.00000000000E+00 0. -1.
         21   -1    0    0  502  503 -0.00000000000E+00 -0.00000000000E+00 -0.52990392500E+03  0.52990392500E+03  0.00000000000E+00 0.  1.
         -6    2    1    2    0  503  0.11670959876E+03 -0.16568581074E+03 -0.36906844902E+03  0.45487004397E+03  0.17211135500E+03 0.  0.
        -24    2    3    3    0    0  0.30674553255E+02 -0.10810392890E+03 -0.11244255799E+03  0.17810906385E+03  0.80325102666E+02 0.  0.
          6    2    1    2  501    0 -0.11670959876E+03  0.16568581074E+03  0.31995846769E+02  0.26786520377E+03  0.17220660516E+03 0.  0.
         24    2    5    5    0    0 -0.14682349761E+03  0.12530171021E+03  0.48025073142E+02  0.21479215433E+03  0.81065429632E+02 0.  0.
          5    1    5    5  501    0  0.30113898844E+02  0.40384100523E+02 -0.16029226373E+02  0.53073049439E+02  0.47000000000E+01 0. -1.
        -11    1    6    6    0    0 -0.31222100682E+02  0.73961368728E+02  0.23719773770E+01  0.80316436125E+02  0.00000000000E+00 0.  1.
         12    1    6    6    0    0 -0.11560139693E+03  0.51340341484E+02  0.45653095765E+02  0.13447571821E+03  0.00000000000E+00 0. -1.
         -5    1    3    3    0  503  0.86035045509E+02 -0.57581881838E+02 -0.25662589102E+03  0.27676098012E+03  0.47000000000E+01 0.  1.
         13    1    4    4    0    0  0.48740435920E+02 -0.10964532327E+03 -0.97092327837E+02  0.15435234735E+03  0.00000000000E+00 0. -1.
        -14    1    4    4    0    0 -0.18065882665E+02  0.15413943709E+01 -0.15350230155E+02  0.23756716500E+02  0.00000000000E+00 0.  1.
</event>
<event>
12    1  0.1681255E-001  0.2277301E+03  0.7818608E-02  0.1128540E+00
         21   -1    0    0  503  502  0.00000000000E+00  0.00000000000E+00  0.23455409784E+03  0.23455409784E+03  0.00000000000E+00 0.  1.
         21   -1    0    0  501  503 -0.00000000000E+00 -0.00000000000E+00 -0.41862375728E+03  0.41862375728E+03  0.00000000000E+00 0. -1.
          6    2    1    2  501    0 -0.47660210119E+02  0.13677012567E+03 -0.31709107991E+03  0.38944373745E+03  0.17361482878E+03 0.  0.
         24    2    3    3    0    0  0.35533339237E+02  0.76798538969E+02 -0.21673332551E+03  0.24587658684E+03  0.79506778222E+02 0.  0.
         -6    2    1    2    0  502  0.47660210119E+02 -0.13677012567E+03  0.13302142047E+03  0.26373411767E+03  0.17573680210E+03 0.  0.
        -24    2    5    5    0    0 -0.30877262885E+02 -0.34388966819E+02  0.23811318508E+02  0.94621809646E+02  0.79058848774E+02 0.  0.
          5    1    3    3  501    0 -0.83193549356E+02  0.59971586698E+02 -0.10035775440E+03  0.14356715061E+03  0.47000000000E+01 0. -1.
        -13    1    4    4    0    0  0.33215542586E+02  0.91833179764E+02 -0.16284060619E+03  0.18987803506E+03  0.00000000000E+00 0.  1.
         14    1    4    4    0    0  0.23177966507E+01 -0.15034640795E+02 -0.53892719323E+02  0.55998551778E+02  0.00000000000E+00 0. -1.
         -5    1    5    5    0  502  0.78537473004E+02 -0.10238115885E+03  0.10921010196E+03  0.16911230802E+03  0.47000000000E+01 0.  1.
         13    1    6    6    0    0 -0.33438685089E+02  0.17684064847E+02  0.18812623182E+02  0.42246734796E+02  0.00000000000E+00 0. -1.
        -14    1    6    6    0    0  0.25614222041E+01 -0.52073031666E+02  0.49986953262E+01  0.52375074850E+02  0.00000000000E+00 0.  1.
</event>
<event>
12    1  0.1681255E-001  0.2134770E+03  0.7818608E-02  0.1138971E+00
         21   -1    0    0  501  502  0.00000000000E+00  0.00000000000E+00  0.86394114176E+03  0.86394114176E+03  0.00000000000E+00 0. -1.
         21   -1    0    0  502  503 -0.00000000000E+00 -0.00000000000E+00 -0.52598779106E+02  0.52598779106E+02  0.00000000000E+00 0. -1.
         -6    2    1    2    0  503 -0.25342908296E+02  0.12116961940E+03  0.41234262335E+03  0.46402117661E+03  0.17310365001E+03 0.  0.
        -24    2    3    3    0    0  0.16565198771E+02  0.19682198006E+02  0.27496970387E+03  0.28809677482E+03  0.82034254353E+02 0.  0.
          6    2    1    2  501    0  0.25342908296E+02 -0.12116961940E+03  0.39899973930E+03  0.45251874425E+03  0.17391975814E+03 0.  0.
         24    2    5    5    0    0  0.49892506121E+02 -0.96304133985E+02  0.39513812944E+03  0.41705077069E+03  0.77675321710E+02 0.  0.
          5    1    5    5  501    0 -0.24549597825E+02 -0.24865485412E+02  0.38616098583E+01  0.35467973565E+02  0.47000000000E+01 0. -1.
        -11    1    6    6    0    0  0.10139138152E+02 -0.73933066725E+02  0.32445589495E+03  0.33292721163E+03  0.00000000000E+00 0.  1.
         12    1    6    6    0    0  0.39753367969E+02 -0.22371067260E+02  0.70682234490E+02  0.84123559053E+02  0.00000000000E+00 0. -1.
         -5    1    3    3    0  503 -0.41908107068E+02  0.10148742139E+03  0.13737291948E+03  0.17592440179E+03  0.47000000000E+01 0.  1.
         11    1    4    4    0    0  0.36146204046E+02  0.36046635755E+02  0.23640283024E+03  0.24185162014E+03  0.00000000000E+00 0. -1.
        -12    1    4    4    0    0 -0.19581005275E+02 -0.16364437749E+02  0.38566873629E+02  0.46245154685E+02  0.00000000000E+00 0.  1.
</event>
<event>
12    1  0.1681255E-001  0.1856956E+03  0.7818608E-02  0.1162441E+00
         21   -1    0    0  501  502  0.00000000000E+00  0.00000000000E+00  0.28912564717E+03  0.28912564717E+03  0.00000000000E+00 0. -1.
         21   -1    0    0  502  503 -0.00000000000E+00 -0.00000000000E+00 -0.12229889177E+03  0.12229889177E+03  0.00000000000E+00 0. -1.
         -6    2    1    2    0  503  0.53425780282E+02 -0.46189308116E+02  0.11642299108E+03  0.21917382288E+03  0.17174133340E+03 0.  0.
        -24    2    3    3    0    0  0.73393610949E+02 -0.56797859179E+02  0.14014443956E+03  0.18606713571E+03  0.79799098467E+02 0.  0.
          6    2    1    2  501    0 -0.53425780282E+02  0.46189308116E+02  0.50403764315E+02  0.19225071606E+03  0.17155766432E+03 0.  0.
         24    2    5    5    0    0 -0.50797025098E+02  0.18445853243E+02  0.97684706537E+02  0.13716725993E+03  0.79699234904E+02 0.  0.
          5    1    5    5  501    0 -0.26287551839E+01  0.27743454873E+02 -0.47280942222E+02  0.55083456133E+02  0.47000000000E+01 0. -1.
        -13    1    6    6    0    0 -0.29974450062E+02 -0.26309061195E+02  0.18753021153E+02  0.44071648028E+02  0.00000000000E+00 0.  1.
         14    1    6    6    0    0 -0.20822575036E+02  0.44754914439E+02  0.78931685384E+02  0.93095611900E+02  0.00000000000E+00 0. -1.
         -5    1    3    3    0  503 -0.19967830666E+02  0.10608551063E+02 -0.23721448479E+02  0.33106687166E+02  0.47000000000E+01 0.  1.
         13    1    4    4    0    0  0.68425456876E+02 -0.52845780828E+02  0.58988070197E+02  0.10466284979E+03  0.00000000000E+00 0. -1.
        -14    1    4    4    0    0  0.49681540723E+01 -0.39520783510E+01  0.81156369366E+02  0.81404285924E+02  0.00000000000E+00 0.  1.
</event>
<event>
12    1  0.1681255E-001  0.1767348E+03  0.7818608E-02  0.1171289E+00
         21   -1    0    0  501  502  0.00000000000E+00  0.00000000000E+00  0.32212786557E+03  0.32212786557E+03  0.00000000000E+00 0.  1.
         21   -1    0    0  502  503 -0.00000000000E+00 -0.00000000000E+00 -0.29260532770E+03  0.29260532770E+03  0.00000000000E+00 0. -1.
         -6    2    1    2    0  503 -0.16537427823E+02  0.48007456424E+02 -0.23695989435E+03  0.29560981726E+03  0.16928369721E+03 0.  0.
        -24    2    3    3    0    0 -0.52351866006E+02  0.78761642889E+02 -0.19990925882E+03  0.23541568498E+03  0.80701417037E+02 0.  0.
          6    2    1    2  501    0  0.16537427823E+02 -0.48007456424E+02  0.26648243222E+03  0.31912337600E+03  0.16807331745E+03 0.  0.
         24    2    5    5    0    0  0.36922919067E+02 -0.64677708698E+02  0.27102242719E+03  0.29199097621E+03  0.79114260360E+02 0.  0.
          5    1    5    5  501    0 -0.20385491244E+02  0.16670252275E+02 -0.45399949730E+01  0.27132399793E+02  0.47000000000E+01 0. -1.
        -11    1    6    6    0    0  0.15374853806E+02 -0.53192993476E+02  0.68865743113E+02  0.88364988875E+02  0.00000000000E+00 0.  1.
         12    1    6    6    0    0  0.21548065261E+02 -0.11484715223E+02  0.20215668408E+03  0.20362598733E+03  0.00000000000E+00 0. -1.
         -5    1    3    3    0  503  0.35814438183E+02 -0.30754186465E+02 -0.37050635533E+02  0.60194132280E+02  0.47000000000E+01 0.  1.
         11    1    4    4    0    0 -0.51654554781E+01 -0.13006143099E+02 -0.59757776927E+02  0.61374535370E+02  0.00000000000E+00 0. -1.
        -12    1    4    4    0    0 -0.47186410528E+02  0.91767785988E+02 -0.14015148189E+03  0.17404114962E+03  0.00000000000E+00 0.  1.
</event>
<event>
12    1  0.1681255E-001  0.1761151E+03  0.7818608E-02  0.1171940E+00
         21   -1    0    0  503  502  0.00000000000E+00  0.00000000000E+00  0.89340597701E+02  0.89340597701E+02  0.00000000000E+00 0.  1.
         21   -1    0    0  501  503 -0.00000000000E+00 -0.00000000000E+00 -0.53013585892E+03  0.53013585892E+03  0.00000000000E+00 0.  1.
          6    2    1    2  501    0  0.28211191683E+02 -0.14028842956E+02 -0.40309406253E+03  0.43937118044E+03  0.17195793433E+03 0.  0.
         24    2    3    3    0    0  0.10747962380E+02  0.88751047981E+01 -0.75456581399E+02  0.11043659083E+03  0.79424547442E+02 0.  0.
         -6    2    1    2    0  502 -0.28211191683E+02  0.14028842956E+02 -0.37701198684E+02  0.18010527618E+03  0.17327391712E+03 0.  0.
        -24    2    5    5    0    0 -0.21811454891E+02  0.28659509811E+02 -0.90677258204E+02  0.12457541101E+03  0.77456831886E+02 0.  0.
          5    1    3    3  501    0  0.17463229303E+02 -0.22903947754E+02 -0.32763748114E+03  0.32893458961E+03  0.47000000000E+01 0. -1.
        -13    1    4    4    0    0 -0.15799542071E+02 -0.14248081091E+02  0.56551424647E+01  0.22013949685E+02  0.00000000000E+00 0.  1.
         14    1    4    4    0    0  0.26547504451E+02  0.23123185889E+02 -0.81111723864E+02  0.88422641141E+02  0.00000000000E+00 0. -1.
         -5    1    5    5    0  502 -0.63997367921E+01 -0.14630666855E+02  0.52976059520E+02  0.55529865171E+02  0.47000000000E+01 0.  1.
         13    1    6    6    0    0  0.15698951580E+02  0.30392590712E+02 -0.77613266523E+02  0.84817367274E+02  0.00000000000E+00 0. -1.
        -14    1    6    6    0    0 -0.37510406471E+02 -0.17330809010E+01 -0.13063991681E+02  0.39758043736E+02  0.00000000000E+00 0.  1.
</event>
<event>
12    1  0.1681255E-001  0.1854066E+03  0.7818608E-02  0.1163538E+00
         21   -1    0    0  501  502  0.00000000000E+00  0.00000000000E+00  0.24958040841E+03  0.24958040841E+03  0.00000000000E+00 0. -1.
         21   -1    0    0  502  503 -0.00000000000E+00 -0.00000000000E+00 -0.13672949734E+03  0.13672949734E+03  0.00000000000E+00 0. -1.
         -6    2    1    2    0  503  0.18610251335E+01 -0.71312753727E+02  0.77524548331E+02  0.19756790841E+03  0.16713482755E+03 0.  0.
        -24    2    3    3    0    0  0.53361772770E+02 -0.84402009085E+02  0.69666710838E+02  0.14364675093E+03  0.76221785103E+02 0.  0.
          6    2    1    2  501    0 -0.18610251335E+01  0.71312753727E+02  0.35326362745E+02  0.18874199734E+03  0.17113333222E+03 0.  0.
         24    2    5    5    0    0  0.63698445096E+02  0.44626586833E+02  0.74996992004E+01  0.11254088945E+03  0.80994951385E+02 0.  0.
          5    1    5    5  501    0 -0.65559470229E+02  0.26686166894E+02  0.27826663544E+02  0.76201107894E+02  0.47000000000E+01 0. -1.
        -11    1    6    6    0    0  0.15525530212E+00  0.27781457160E+02  0.32007566727E+02  0.42382989440E+02  0.00000000000E+00 0.  1.
         12    1    6    6    0    0  0.63543189794E+02  0.16845129673E+02 -0.24507867526E+02  0.70157900008E+02  0.00000000000E+00 0. -1.
         -5    1    3    3    0  503 -0.51500747637E+02  0.13089255359E+02  0.78578374927E+01  0.53921157471E+02  0.47000000000E+01 0.  1.
         13    1    4    4    0    0  0.57200209648E+02 -0.35833961499E+02  0.66611462863E+02  0.94831554692E+02  0.00000000000E+00 0. -1.
        -14    1    4    4    0    0 -0.38384368782E+01 -0.48568047586E+02  0.30552479752E+01  0.48815196243E+02  0.00000000000E+00 0.  1.
</event>
<event>
12    1  0.1681255E-001  0.2176499E+03  0.7818608E-02  0.1135779E+00
         21   -1    0    0  501  502  0.00000000000E+00  0.00000000000E+00  0.45357369692E+03  0.45357369692E+03  0.00000000000E+00 0. -1.
         21   -1    0    0  502  503 -0.00000000000E+00 -0.00000000000E+00 -0.10453954560E+03  0.10453954560E+03  0.00000000000E+00 0. -1.
         -6    2    1    2    0  503 -0.74489027819E+02 -0.10923135349E+03  0.19217058709E+03  0.28982676035E+03  0.17201718699E+03 0.  0.
        -24    2    3    3    0    0 -0.12114722972E+03 -0.60480207978E+02  0.13796292694E+03  0.20314214572E+03  0.62437611544E+02 0.  0.
          6    2    1    2  501    0  0.74489027819E+02  0.10923135349E+03  0.15686356424E+03  0.26828648218E+03  0.17289116485E+03 0.  0.
         24    2    5    5    0    0  0.41595874766E+02  0.31092862848E+01  0.19978362450E+02  0.91924635015E+02  0.79442552185E+02 0.  0.
          5    1    5    5  501    0  0.32893153052E+02  0.10612206721E+03  0.13688520179E+03  0.17636184716E+03  0.47000000000E+01 0. -1.
        -11    1    6    6    0    0  0.33242898453E+02 -0.35321118022E+02  0.20337001140E+02  0.52595297236E+02  0.00000000000E+00 0.  1.
         12    1    6    6    0    0  0.83529763128E+01  0.38430404307E+02 -0.35863869026E+00  0.39329337780E+02  0.00000000000E+00 0. -1.
         -5    1    3    3    0  503  0.46658201898E+02 -0.48751145513E+02  0.54207660155E+02  0.86684614625E+02  0.47000000000E+01 0.  1.
         13    1    4    4    0    0 -0.44486192712E+02 -0.51256674111E+02  0.41384041639E+02  0.79491552289E+02  0.00000000000E+00 0. -1.
        -14    1    4    4    0    0 -0.76661037004E+02 -0.92235338676E+01  0.96578885296E+02  0.12365059343E+03  0.00000000000E+00 0.  1.
</event>
<event>
12    1  0.1681255E-001  0.1894433E+03  0.7818608E-02  0.1160171E+00
         21   -1    0    0  503  502  0.00000000000E+00  0.00000000000E+00  0.32373573455E+03  0.32373573455E+03  0.00000000000E+00 0. -1.
         21   -1    0    0  501  503 -0.00000000000E+00 -0.00000000000E+00 -0.13339854527E+03  0.13339854527E+03  0.00000000000E+00 0. -1.
          6    2    1    2  501    0 -0.68822865707E+02  0.30650571804E+02 -0.60146358213E+01  0.18429222738E+03  0.16808154221E+03 0.  0.
         24    2    3    3    0    0 -0.94444189337E+02  0.63586918265E+02 -0.15769140250E+02  0.14118195598E+03  0.81979740407E+02 0.  0.
         -6    2    1    2    0  502  0.68822865707E+02 -0.30650571804E+02  0.19635182510E+03  0.27284205244E+03  0.17381801392E+03 0.  0.
        -24    2    5    5    0    0  0.98004216753E+02  0.19342157740E+01  0.81883095335E+02  0.15021049156E+03  0.79055567672E+02 0.  0.
          5    1    3    3  501    0  0.25621323631E+02 -0.32936346461E+02  0.97545044291E+01  0.43110271392E+02  0.47000000000E+01 0. -1.
        -11    1    4    4    0    0 -0.19238641193E+02 -0.15307659174E+02  0.13869189935E+02  0.28227719954E+02  0.00000000000E+00 0.  1.
         12    1    4    4    0    0 -0.75205548145E+02  0.78894577439E+02 -0.29638330186E+02  0.11295423603E+03  0.00000000000E+00 0. -1.
         -5    1    5    5    0  502 -0.29181351047E+02 -0.32584787578E+02  0.11446872976E+03  0.12263156088E+03  0.47000000000E+01 0.  1.
         11    1    6    6    0    0  0.54708886332E+02  0.22742654343E+02  0.83219568843E+02  0.10215570081E+03  0.00000000000E+00 0. -1.
        -12    1    6    6    0    0  0.43295330422E+02 -0.20808438569E+02 -0.13364735078E+01  0.48054790744E+02  0.00000000000E+00 0.  1.
</event>
<event>
12    1  0.1681255E-001  0.2771642E+03  0.7818608E-02  0.1097308E+00
         21   -1    0    0  503  502  0.00000000000E+00  0.00000000000E+00  0.41992900094E+03  0.41992900094E+03  0.00000000000E+00 0. -1.
         21   -1    0    0  501  503 -0.00000000000E+00 -0.00000000000E+00 -0.22153460002E+03  0.22153460002E+03  0.00000000000E+00 0.  1.
          6    2    1    2  501    0 -0.96394981485E+02 -0.19483370852E+03 -0.35238431919E+02  0.27896631138E+03  0.17125504187E+03 0.  0.
         24    2    3    3    0    0 -0.32173406519E+02 -0.17551744306E+03  0.13180892728E+02  0.19611675011E+03  0.80290365766E+02 0.  0.
         -6    2    1    2    0  502  0.96394981485E+02  0.19483370852E+03  0.23363283284E+03  0.36249728959E+03  0.17195295271E+03 0.  0.
        -24    2    5    5    0    0  0.12306668446E+03  0.15533461293E+03  0.23093993405E+03  0.31452959217E+03  0.79506983428E+02 0.  0.
          5    1    3    3  501    0 -0.64221574965E+02 -0.19316265458E+02 -0.48419324648E+02  0.82849561264E+02  0.47000000000E+01 0. -1.
        -11    1    4    4    0    0 -0.57627234532E+02 -0.94007993469E+02  0.61540396186E+01  0.11043673845E+03  0.00000000000E+00 0.  1.
         12    1    4    4    0    0  0.25453828013E+02 -0.81509449596E+02  0.70268531097E+01  0.85680011663E+02  0.00000000000E+00 0. -1.
         -5    1    5    5    0  502 -0.26671702972E+02  0.39499095589E+02  0.26928987965E+01  0.47967697419E+02  0.47000000000E+01 0.  1.
         11    1    6    6    0    0  0.58673173142E+02  0.68970458532E+02  0.16502558251E+03  0.18823630967E+03  0.00000000000E+00 0. -1.
        -12    1    6    6    0    0  0.64393511315E+02  0.86364154402E+02  0.65914351537E+02  0.12629328250E+03  0.00000000000E+00 0.  1.
</event>
<event>
12    1  0.1681255E-001  0.1800791E+03  0.7818608E-02  0.1167876E+00
         21   -1    0    0  501  502  0.00000000000E+00  0.00000000000E+00  0.23527781582E+03  0.23527781582E+03  0.00000000000E+00 0.  1.
         21   -1    0    0  502  503 -0.00000000000E+00 -0.00000000000E+00 -0.20499629622E+03  0.20499629622E+03  0.00000000000E+00 0.  1.
         -6    2    1    2    0  503 -0.48906942894E+02  0.16318319238E+02 -0.11132442959E+03  0.21118740836E+03  0.17189769115E+03 0.  0.
        -24    2    3    3    0    0  0.13095635631E+02  0.19209530937E+02 -0.18977101621E+01  0.85294693031E+02  0.82043169149E+02 0.  0.
          6    2    1    2  501    0  0.48906942894E+02 -0.16318319238E+02  0.14160594919E+03  0.22908670367E+03  0.17254070924E+03 0.  0.
         24    2    5    5    0    0  0.77356428264E+01  0.94275302058E+01  0.15664652228E+03  0.17803542013E+03  0.83724305802E+02 0.  0.
          5    1    5    5  501    0  0.41171300068E+02 -0.25745849443E+02 -0.15040573085E+02  0.51051283545E+02  0.47000000000E+01 0. -1.
        -13    1    6    6    0    0 -0.29979843409E+02  0.29345905927E+02  0.78505219550E+02  0.89011475114E+02  0.00000000000E+00 0.  1.
         14    1    6    6    0    0  0.37715486236E+02 -0.19918375721E+02  0.78141302727E+02  0.89023945011E+02  0.00000000000E+00 0. -1.
         -5    1    3    3    0  503 -0.62002578526E+02 -0.28912116994E+01 -0.10942671943E+03  0.12589271533E+03  0.47000000000E+01 0.  1.
         13    1    4    4    0    0 -0.20820091012E+02  0.40050948459E+02 -0.47304865757E+01  0.45386475578E+02  0.00000000000E+00 0. -1.
        -14    1    4    4    0    0  0.33915726643E+02 -0.20841417522E+02  0.28327764136E+01  0.39908217453E+02  0.00000000000E+00 0.  1.
</event>
<event>
12    1  0.1681255E-001  0.1738319E+03  0.7818608E-02  0.1174211E+00
         21   -1    0    0  503  502  0.00000000000E+00  0.00000000000E+00  0.90877781953E+02  0.90877781953E+02  0.00000000000E+00 0.  1.
         21   -1    0    0  501  503 -0.00000000000E+00 -0.00000000000E+00 -0.42734201994E+03  0.42734201994E+03  0.00000000000E+00 0.  1.
          6    2    1    2  501    0  0.93503730665E+01  0.74448437677E+01 -0.29129706947E+03  0.33861582666E+03  0.17223193726E+03 0.  0.
         24    2    3    3    0    0 -0.26972586944E+02 -0.20756785992E+02 -0.58927533072E+02  0.10169309498E+03  0.75568953949E+02 0.  0.
         -6    2    1    2    0  502 -0.93503730665E+01 -0.74448437677E+01 -0.45167168523E+02  0.17960397523E+03  0.17342047062E+03 0.  0.
        -24    2    5    5    0    0  0.62561319102E+02  0.20856918415E+01 -0.20608596016E+02  0.10287499724E+03  0.78995456009E+02 0.  0.
          5    1    3    3  501    0  0.36322960010E+02  0.28201629760E+02 -0.23236953640E+03  0.23692273169E+03  0.47000000000E+01 0. -1.
        -13    1    4    4    0    0  0.24109777961E+02 -0.45230343232E+01 -0.38342979292E+01  0.24828231379E+02  0.00000000000E+00 0.  1.
         14    1    4    4    0    0 -0.51082364904E+02 -0.16233751669E+02 -0.55093235143E+02  0.76864863598E+02  0.00000000000E+00 0. -1.
         -5    1    5    5    0  502 -0.71911692168E+02 -0.95305356092E+01 -0.24558572507E+02  0.76728977988E+02  0.47000000000E+01 0.  1.
         13    1    6    6    0    0  0.11633148433E+02 -0.35288938864E+02 -0.29045264927E+01  0.37270304838E+02  0.00000000000E+00 0. -1.
        -14    1    6    6    0    0  0.50928170669E+02  0.37374630705E+02 -0.17704069523E+02  0.65604692406E+02  0.00000000000E+00 0.  1.
</event>
<event>
12    1  0.1681255E-001  0.1982552E+03  0.7818608E-02  0.1151491E+00
         21   -1    0    0  501  502  0.00000000000E+00  0.00000000000E+00  0.22446729529E+03  0.22446729529E+03  0.00000000000E+00 0.  1.
         21   -1    0    0  502  503 -0.00000000000E+00 -0.00000000000E+00 -0.25492051226E+03  0.25492051226E+03  0.00000000000E+00 0.  1.
         -6    2    1    2    0  503 -0.89620480859E+02 -0.37816783323E+02 -0.15025030081E+03  0.24774916951E+03  0.17129669701E+03 0.  0.
        -24    2    3    3    0    0 -0.65421767230E+02 -0.48182045466E+01 -0.17211487757E+03  0.20111620199E+03  0.80752541142E+02 0.  0.
          6    2    1    2  501    0  0.89620480859E+02  0.37816783323E+02  0.11979708385E+03  0.23163863805E+03  0.17275178045E+03 0.  0.
         24    2    5    5    0    0  0.12978585760E+03  0.34959169218E+02  0.87531854243E+02  0.17982591289E+03  0.81295886073E+02 0.  0.
          5    1    5    5  501    0 -0.40165376743E+02  0.28576141044E+01  0.32265229603E+02  0.51812725161E+02  0.47000000000E+01 0. -1.
        -11    1    6    6    0    0  0.79914050400E+02 -0.17393841250E+02  0.63796640998E+02  0.10372469603E+03  0.00000000000E+00 0.  1.
         12    1    6    6    0    0  0.49871807202E+02  0.52353010468E+02  0.23735213245E+02  0.76101216853E+02  0.00000000000E+00 0. -1.
         -5    1    3    3    0  503 -0.24198713629E+02 -0.32998578776E+02  0.21864576756E+02  0.46632967515E+02  0.47000000000E+01 0.  1.
         11    1    4    4    0    0 -0.20278426756E+02 -0.27384627079E+02 -0.13290987407E+03  0.13720848013E+03  0.00000000000E+00 0. -1.
        -12    1    4    4    0    0 -0.45143340474E+02  0.22566422533E+02 -0.39205003491E+02  0.63907721864E+02  0.00000000000E+00 0.  1.
</event>
<event>
12    1  0.1681255E-001  0.1791094E+03  0.7818608E-02  0.1168786E+00
         21   -1    0    0  501  502  0.00000000000E+00  0.00000000000E+00  0.81953865854E+03  0.81953865854E+03  0.00000000000E+00 0.  1.
         21   -1    0    0  502  503 -0.00000000000E+00 -0.00000000000E+00 -0.84151127688E+02  0.84151127688E+02  0.00000000000E+00 0.  1.
         -6    2    1    2    0  503 -0.81076264760E+01 -0.48033487919E+02  0.36627890335E+02  0.18234019700E+03  0.17185283101E+03 0.  0.
        -24    2    3    3    0    0  0.25352068446E+02 -0.63129103901E+02  0.75113731664E+02  0.12894844868E+03  0.79734676265E+02 0.  0.
          6    2    1    2  501    0  0.81076264760E+01  0.48033487919E+02  0.69875964051E+03  0.72134958922E+03  0.17235789825E+03 0.  0.
         24    2    5    5    0    0 -0.22355607878E+02  0.29391360630E+02  0.16951307133E+03  0.19087851692E+03  0.79600889353E+02 0.  0.
          5    1    5    5  501    0  0.30463234354E+02  0.18642127289E+02  0.52924656919E+03  0.53047107231E+03  0.47000000000E+01 0. -1.
        -13    1    6    6    0    0 -0.33009066406E+01  0.44572089039E+02  0.15749308852E+03  0.16371206442E+03  0.00000000000E+00 0.  1.
         14    1    6    6    0    0 -0.19054701237E+02 -0.15180728410E+02  0.12019982805E+02  0.27166452490E+02  0.00000000000E+00 0. -1.
         -5    1    3    3    0  503 -0.33459694922E+02  0.15095615982E+02 -0.38485841329E+02  0.53391748323E+02  0.47000000000E+01 0.  1.
         11    1    4    4    0    0  0.49874134734E+02 -0.62899523913E+02  0.56574723139E+02  0.98206306937E+02  0.00000000000E+00 0. -1.
        -12    1    4    4    0    0 -0.24522066287E+02 -0.22957998854E+00  0.18539008525E+02  0.30742141745E+02  0.00000000000E+00 0.  1.
</event>
<event>
12    1  0.1681255E-001  0.3100567E+03  0.7818608E-02  0.1080333E+00
         21   -1    0    0  501  502  0.00000000000E+00  0.00000000000E+00  0.16579227311E+04  0.16579227311E+04  0.00000000000E+00 0.  1.
         21   -1    0    0  502  503 -0.00000000000E+00 -0.00000000000E+00 -0.88859878951E+02  0.88859878951E+02  0.00000000000E+00 0.  1.
         -6    2    1    2    0  503  0.21341679068E+03 -0.14453734151E+03  0.26962302903E+03  0.41089137819E+03  0.17232926988E+03 0.  0.
        -24    2    3    3    0    0  0.22215267721E+03 -0.13668570087E+03  0.28417368778E+03  0.39160989370E+03  0.67593129859E+02 0.  0.
          6    2    1    2  501    0 -0.21341679068E+03  0.14453734151E+03  0.12994398232E+04  0.13358912319E+04  0.17211554204E+03 0.  0.
         24    2    5    5    0    0 -0.17880885647E+03  0.13309584266E+03  0.77458262288E+03  0.80974886742E+03  0.77639411008E+02 0.  0.
          5    1    5    5  501    0 -0.34607934204E+02  0.11441498847E+02  0.52485720029E+03  0.52614236448E+03  0.47000000000E+01 0. -1.
        -11    1    6    6    0    0 -0.23971395226E+02  0.40335893392E+02  0.26552638675E+03  0.26964026803E+03  0.00000000000E+00 0.  1.
         12    1    6    6    0    0 -0.15483746125E+03  0.92759949271E+02  0.50905623613E+03  0.54010859939E+03  0.00000000000E+00 0. -1.
         -5    1    3    3    0  503 -0.87358865301E+01 -0.78516406350E+01 -0.14550658752E+02  0.19281484493E+02  0.47000000000E+01 0.  1.
         11    1    4    4    0    0  0.12718403489E+03 -0.10666142414E+03  0.20859747281E+03  0.26658083913E+03  0.00000000000E+00 0. -1.
        -12    1    4    4    0    0  0.94968642316E+02 -0.30024276734E+02  0.75576214973E+02  0.12502905457E+03  0.00000000000E+00 0.  1.
</event>
<event>
12    1  0.1681255E-001  0.2706255E+03  0.7818608E-02  0.1100985E+00
         21   -1    0    0  501  502  0.00000000000E+00  0.00000000000E+00  0.71206691704E+03  0.71206691704E+03  0.00000000000E+00 0. -1.
         21   -1    0    0  502  503 -0.00000000000E+00 -0.00000000000E+00 -0.11585402938E+03  0.11585402938E+03  0.00000000000E+00 0.  1.
         -6    2    1    2    0  503 -0.38208354092E+02 -0.20467696734E+03  0.15875392657E+03  0.31375305636E+03  0.17287461320E+03 0.  0.
        -24    2    3    3    0    0 -0.26836597110E+02 -0.22197419782E+02  0.55827486131E+02  0.10388632656E+03  0.80391120457E+02 0.  0.
          6    2    1    2  501    0  0.38208354092E+02  0.20467696734E+03  0.43745896109E+03  0.51416789006E+03  0.17217937522E+03 0.  0.
         24    2    5    5    0    0  0.70184916261E+02  0.16005926779E+03  0.40859791905E+03  0.45197231636E+03  0.82351828294E+02 0.  0.
          5    1    5    5  501    0 -0.31976562168E+02  0.44617699549E+02  0.28861042037E+02  0.62195573706E+02  0.47000000000E+01 0. -1.
        -11    1    6    6    0    0  0.37825635227E+02  0.30990983477E+02  0.52113197968E+02  0.71463313243E+02  0.00000000000E+00 0.  1.
         12    1    6    6    0    0  0.32359281034E+02  0.12906828432E+03  0.35648472108E+03  0.38050900312E+03  0.00000000000E+00 0. -1.
         -5    1    3    3    0  503 -0.11371756983E+02 -0.18247954756E+03  0.10292644044E+03  0.20986672980E+03  0.47000000000E+01 0.  1.
         13    1    4    4    0    0 -0.55451220539E+02 -0.19613242197E+02  0.39329517633E+02  0.70755410295E+02  0.00000000000E+00 0. -1.
        -14    1    4    4    0    0  0.28614623429E+02 -0.25841775848E+01  0.16497968498E+02  0.33130916262E+02  0.00000000000E+00 0.  1.
</event>
<event>
12    1  0.1681255E-001  0.3101947E+03  0.7818608E-02  0.1080341E+00
         21   -1    0    0  501  502  0.00000000000E+00  0.00000000000E+00  0.60752466415E+03  0.60752466415E+03  0.00000000000E+00 0.  1.
         21   -1    0    0  502  503 -0.00000000000E+00 -0.00000000000E+00 -0.40914554147E+03  0.40914554147E+03  0.00000000000E+00 0. -1.
         -6    2    1    2    0  503 -0.25091404669E+03 -0.62387406150E+02 -0.29902841354E+03  0.43085813938E+03  0.17137881109E+03 0.  0.
        -24    2    3    3    0    0 -0.87323371380E+02 -0.12544005641E+01 -0.53593005626E+02  0.12959449590E+03  0.79344681022E+02 0.  0.
          6    2    1    2  501    0  0.25091404669E+03  0.62387406150E+02  0.49740753622E+03  0.58581206625E+03  0.17003373960E+03 0.  0.
         24    2    5    5    0    0  0.11030090987E+03  0.79862336028E+02  0.33280015193E+03  0.36856771446E+03  0.80882232813E+02 0.  0.
          5    1    5    5  501    0  0.14061313682E+03 -0.17474929878E+02  0.16460738430E+03  0.21724435179E+03  0.47000000000E+01 0. -1.
        -13    1    6    6    0    0  0.11546826460E+03  0.86136088876E+02  0.27740436836E+03  0.31257883729E+03  0.00000000000E+00 0.  1.
         14    1    6    6    0    0 -0.51673547299E+01 -0.62737528476E+01  0.55395783562E+02  0.55988877165E+02  0.00000000000E+00 0. -1.
         -5    1    3    3    0  503 -0.16359067531E+03 -0.61133005586E+02 -0.24543540792E+03  0.30126364347E+03  0.47000000000E+01 0.  1.
         11    1    4    4    0    0 -0.97676229705E+02 -0.35769445808E+01 -0.27667925835E+02  0.10158225486E+03  0.00000000000E+00 0. -1.
        -12    1    4    4    0    0  0.10352858325E+02  0.23225440166E+01 -0.25925079792E+02  0.28012241046E+02  0.00000000000E+00 0.  1.
</event>
<event>
12    1  0.1681255E-001  0.1827066E+03  0.7818608E-02  0.1165647E+00
         21   -1    0    0  501  502  0.00000000000E+00  0.00000000000E+00  0.72282074965E+02  0.72282074965E+02  0.00000000000E+00 0.  1.
         21   -1    0    0  502  503 -0.00000000000E+00 -0.00000000000E+00 -0.89163024549E+03  0.89163024549E+03  0.00000000000E+00 0.  1.
         -6    2    1    2    0  503  0.19757758696E+02  0.56757796078E+02 -0.74502658095E+03  0.76666779294E+03  0.17059625422E+03 0.  0.
        -24    2    3    3    0    0 -0.87120686978E+01  0.78232267114E+01 -0.17406658607E+03  0.19288862905E+03  0.82278452913E+02 0.  0.
          6    2    1    2  501    0 -0.19757758696E+02 -0.56757796078E+02 -0.74321589570E+02  0.19724452752E+03  0.17253952740E+03 0.  0.
         24    2    5    5    0    0  0.53053240788E+02 -0.19319505097E+02 -0.64119930823E+02  0.11460536538E+03  0.76388052796E+02 0.  0.
          5    1    5    5  501    0 -0.72810999484E+02 -0.37438290981E+02 -0.10201658747E+02  0.82639162137E+02  0.47000000000E+01 0. -1.
        -11    1    6    6    0    0 -0.16882884009E+02 -0.95036270232E+01 -0.23460231324E+00  0.19375389991E+02  0.00000000000E+00 0.  1.
         12    1    6    6    0    0  0.69936124797E+02 -0.98158780735E+01 -0.63885328510E+02  0.95229975390E+02  0.00000000000E+00 0. -1.
         -5    1    3    3    0  503  0.28469827394E+02  0.48934569366E+02 -0.57095999489E+03  0.57377916389E+03  0.47000000000E+01 0.  1.
         13    1    4    4    0    0  0.84384292224E+01  0.33020930752E+02 -0.29291685508E+02  0.44939868662E+02  0.00000000000E+00 0. -1.
        -14    1    4    4    0    0 -0.17150497920E+02 -0.25197704040E+02 -0.14477490056E+03  0.14794876039E+03  0.00000000000E+00 0.  1.
</event>
<event>
12    1  0.1681255E-001  0.2290385E+03  0.7818608E-02  0.1127403E+00
         21   -1    0    0  503  502  0.00000000000E+00  0.00000000000E+00  0.33926618302E+03  0.33926618302E+03  0.00000000000E+00 0. -1.
         21   -1    0    0  501  503 -0.00000000000E+00 -0.00000000000E+00 -0.25568032057E+03  0.25568032057E+03  0.00000000000E+00 0. -1.
          6    2    1    2  501    0  0.15043392925E+03 -0.13914399285E+02 -0.14554919442E+03  0.27096890197E+03  0.17150976725E+03 0.  0.
         24    2    3    3    0    0  0.15190067167E+03 -0.42071262239E+02 -0.70955385272E+02  0.19108594617E+03  0.81457761837E+02 0.  0.
         -6    2    1    2    0  502 -0.15043392925E+03  0.13914399285E+02  0.22913505687E+03  0.32397760162E+03  0.17214713034E+03 0.  0.
        -24    2    5    5    0    0 -0.10798694609E+03 -0.36656117854E+02  0.21583151448E+03  0.25646317484E+03  0.78646461481E+02 0.  0.
          5    1    3    3  501    0 -0.14667424215E+01  0.28156862954E+02 -0.74593809146E+02  0.79882955802E+02  0.47000000000E+01 0. -1.
        -13    1    4    4    0    0  0.88742932173E+02 -0.81868475471E+01  0.15518120582E+01  0.89133274393E+02  0.00000000000E+00 0.  1.
         14    1    4    4    0    0  0.63157739501E+02 -0.33884414692E+02 -0.72507197330E+02  0.10195267178E+03  0.00000000000E+00 0. -1.
         -5    1    5    5    0  502 -0.42446983157E+02  0.50570517140E+02  0.13303542394E+02  0.67514426778E+02  0.47000000000E+01 0.  1.
         13    1    6    6    0    0 -0.73245988397E+02 -0.89035698141E+01  0.62130344923E+02  0.96459463673E+02  0.00000000000E+00 0. -1.
        -14    1    6    6    0    0 -0.34740957698E+02 -0.27752548040E+02  0.15370116955E+03  0.16000371117E+03  0.00000000000E+00 0.  1.
</event>
<event>
12    1  0.1681255E-001  0.1948109E+03  0.7818608E-02  0.1154331E+00
         21   -1    0    0  501  502  0.00000000000E+00  0.00000000000E+00  0.22423379604E+03  0.22423379604E+03  0.00000000000E+00 0. -1.
         21   -1    0    0  502  503 -0.00000000000E+00 -0.00000000000E+00 -0.40183024409E+03  0.40183024409E+03  0.00000000000E+00 0. -1.
         -6    2    1    2    0  503 -0.39542897044E+02  0.82951118046E+02 -0.32717163329E+03  0.38045458431E+03  0.17105520864E+03 0.  0.
        -24    2    3    3    0    0  0.21068264597E+02  0.11246764145E+02 -0.23498378985E+03  0.24878865948E+03  0.78154040951E+02 0.  0.
          6    2    1    2  501    0  0.39542897044E+02 -0.82951118046E+02  0.14957518523E+03  0.24560945582E+03  0.17177526032E+03 0.  0.
         24    2    5    5    0    0  0.54492455614E+02  0.11274755117E+02  0.56690885832E+02  0.11237437204E+03  0.79483300966E+02 0.  0.
          5    1    5    5  501    0 -0.14949558570E+02 -0.94225873162E+02  0.92884299401E+02  0.13323508378E+03  0.47000000000E+01 0. -1.
        -13    1    6    6    0    0  0.41848658546E+01 -0.26312190620E+02 -0.16015517591E+01  0.26690999335E+02  0.00000000000E+00 0.  1.
         14    1    6    6    0    0  0.50307589760E+02  0.37586945737E+02  0.58292437591E+02  0.85683372702E+02  0.00000000000E+00 0. -1.
         -5    1    3    3    0  503 -0.60611161642E+02  0.71704353901E+02 -0.92187843441E+02  0.13166592483E+03  0.47000000000E+01 0.  1.
         11    1    4    4    0    0 -0.65316912909E+01 -0.89061253293E+01 -0.19847021849E+03  0.19877728665E+03  0.00000000000E+00 0. -1.
        -12    1    4    4    0    0  0.27599955888E+02  0.20152889474E+02 -0.36513571360E+02  0.50011372833E+02  0.00000000000E+00 0.  1.
</event>
<event>
12    1  0.1681255E-001  0.1801210E+03  0.7818608E-02  0.1167932E+00
         21   -1    0    0  501  502  0.00000000000E+00  0.00000000000E+00  0.46314843821E+03  0.46314843821E+03  0.00000000000E+00 0. -1.
         21   -1    0    0  502  503 -0.00000000000E+00 -0.00000000000E+00 -0.70662124225E+02  0.70662124225E+02  0.00000000000E+00 0. -1.
         -6    2    1    2    0  503 -0.50975128711E+02  0.15195810222E+02  0.16495194638E+03  0.24423906037E+03  0.17208776133E+03 0.  0.
        -24    2    3    3    0    0 -0.26191217717E+02  0.70763366398E+02  0.82569726492E+02  0.14171630340E+03  0.87019061163E+02 0.  0.
          6    2    1    2  501    0  0.50975128711E+02 -0.15195810222E+02  0.22753436761E+03  0.28957150207E+03  0.17102745386E+03 0.  0.
         24    2    5    5    0    0 -0.58132741940E+01 -0.13027440199E+02  0.31215434966E+02  0.85138535437E+02  0.77914430507E+02 0.  0.
          5    1    5    5  501    0  0.56788402905E+02 -0.21683700233E+01  0.19631893265E+03  0.20443296664E+03  0.47000000000E+01 0. -1.
        -11    1    6    6    0    0 -0.38483486068E+02 -0.55100747691E+01  0.33800381700E+02  0.51515099019E+02  0.00000000000E+00 0.  1.
         12    1    6    6    0    0  0.32670211874E+02 -0.75173654301E+01 -0.25849467339E+01  0.33623436417E+02  0.00000000000E+00 0. -1.
         -5    1    3    3    0  503 -0.24783910994E+02 -0.55567556175E+02  0.82382219885E+02  0.10252275697E+03  0.47000000000E+01 0.  1.
         11    1    4    4    0    0 -0.89698238040E+01  0.55228334750E+02  0.95809559973E-03  0.55952003532E+02  0.00000000000E+00 0. -1.
        -12    1    4    4    0    0 -0.17221393913E+02  0.15535031648E+02  0.82568768396E+02  0.85764299863E+02  0.00000000000E+00 0.  1.
</event>
<event>
12    1  0.1681255E-001  0.1873984E+03  0.7818608E-02  0.1161224E+00
         21   -1    0    0  501  502  0.00000000000E+00  0.00000000000E+00  0.12446378174E+03  0.12446378174E+03  0.00000000000E+00 0. -1.
         21   -1    0    0  502  503 -0.00000000000E+00 -0.00000000000E+00 -0.30973231743E+03  0.30973231743E+03  0.00000000000E+00 0. -1.
         -6    2    1    2    0  503  0.38919824471E+02  0.57135472029E+02 -0.15998104547E+03  0.24509924528E+03  0.17233830168E+03 0.  0.
        -24    2    3    3    0    0 -0.39333289189E+02  0.54650583187E+02 -0.11186338901E+03  0.15308227221E+03  0.79918523403E+02 0.  0.
          6    2    1    2  501    0 -0.38919824471E+02 -0.57135472029E+02 -0.25287490227E+02  0.18909685389E+03  0.17418079139E+03 0.  0.
         24    2    5    5    0    0 -0.76346018805E+02 -0.65988417588E+02  0.19320677136E+02  0.13001154892E+03  0.79665101806E+02 0.  0.
          5    1    5    5  501    0  0.37426194333E+02  0.88529455591E+01 -0.44608167362E+02  0.59085304965E+02  0.47000000000E+01 0. -1.
        -11    1    6    6    0    0 -0.36711908129E+01 -0.44309812429E+02 -0.14786216010E+02  0.46855835319E+02  0.00000000000E+00 0.  1.
         12    1    6    6    0    0 -0.72674827992E+02 -0.21678605159E+02  0.34106893146E+02  0.83155713606E+02  0.00000000000E+00 0. -1.
         -5    1    3    3    0  503  0.78253113660E+02  0.24848888419E+01 -0.48117656455E+02  0.92016973069E+02  0.47000000000E+01 0.  1.
         13    1    4    4    0    0 -0.29633889497E+02  0.68106401877E+02 -0.11430441370E+03  0.13631635403E+03  0.00000000000E+00 0. -1.
        -14    1    4    4    0    0 -0.96993996911E+01 -0.13455818690E+02  0.24410246909E+01  0.16765918183E+02  0.00000000000E+00 0.  1.
</event>
<event>
12    1  0.1681255E-001  0.1854202E+03  0.7818608E-02  0.1163506E+00
         21   -1    0    0  501  502  0.00000000000E+00  0.00000000000E+00  0.16275548387E+03  0.16275548387E+03  0.00000000000E+00 0.  1.
         21   -1    0    0  502  503 -0.00000000000E+00 -0.00000000000E+00 -0.21243505204E+03  0.21243505204E+03  0.00000000000E+00 0.  1.
         -6    2    1    2    0  503 -0.14794148063E+02 -0.55916057850E+02 -0.54170519968E+02  0.18971600606E+03  0.17237240318E+03 0.  0.
        -24    2    3    3    0    0  0.19001253443E+02 -0.25142647371E+02 -0.95916727217E+02  0.12763567282E+03  0.78087425791E+02 0.  0.
          6    2    1    2  501    0  0.14794148063E+02  0.55916057850E+02  0.44909518007E+01  0.18547452985E+03  0.17616798867E+03 0.  0.
         24    2    5    5    0    0  0.12537542901E+02  0.91941360511E+02 -0.40190741694E+02  0.12784243435E+03  0.78217571859E+02 0.  0.
          5    1    5    5  501    0  0.22566051613E+01 -0.36025302660E+02  0.44681693495E+02  0.57632095504E+02  0.47000000000E+01 0. -1.
        -13    1    6    6    0    0  0.25179363372E+02 -0.31221804212E+01 -0.10405677438E+02  0.27423101090E+02  0.00000000000E+00 0.  1.
         14    1    6    6    0    0 -0.12641820471E+02  0.95063540932E+02 -0.29785064256E+02  0.10041933326E+03  0.00000000000E+00 0. -1.
         -5    1    3    3    0  503 -0.33795401505E+02 -0.30773410479E+02  0.41746207249E+02  0.62080333239E+02  0.47000000000E+01 0.  1.
         13    1    4    4    0    0  0.36122439424E+02  0.34346940314E+01 -0.13456203405E+02  0.38700092546E+02  0.00000000000E+00 0. -1.
        -14    1    4    4    0    0 -0.17121185981E+02 -0.28577341403E+02 -0.82460523812E+02  0.88935580272E+02  0.00000000000E+00 0.  1.
</event>
<event>
12    1  0.1681255E-001  0.1759311E+03  0.7818608E-02  0.1172372E+00
         21   -1    0    0  503  502  0.00000000000E+00  0.00000000000E+00  0.64473014662E+02  0.64473014662E+02  0.00000000000E+00 0.  1.
         21   -1    0    0  501  503 -0.00000000000E+00 -0.00000000000E+00 -0.63813228212E+03  0.63813228212E+03  0.00000000000E+00 0.  1.
          6    2    1    2  501    0  0.14952490004E+02 -0.21031882533E+02 -0.10998895906E+03  0.20748332792E+03  0.17402828279E+03 0.  0.
         24    2    3    3    0    0  0.68763801289E+02 -0.97842378438E+01 -0.11291238380E+03  0.15223115017E+03  0.74839327828E+02 0.  0.
         -6    2    1    2    0  502 -0.14952490004E+02  0.21031882533E+02 -0.46367030840E+03  0.49512196887E+03  0.17172563035E+03 0.  0.
        -24    2    5    5    0    0  0.51283759443E+01 -0.52950887305E+02 -0.28657639019E+03  0.30209078672E+03  0.79389667494E+02 0.  0.
          5    1    3    3  501    0 -0.53811311285E+02 -0.11247644689E+02  0.29234247442E+01  0.55252177744E+02  0.47000000000E+01 0. -1.
        -11    1    4    4    0    0  0.42537382996E+02 -0.38334394828E+02 -0.40641480890E+02  0.70218834709E+02  0.00000000000E+00 0.  1.
         12    1    4    4    0    0  0.26226418293E+02  0.28550156985E+02 -0.72270902911E+02  0.82012315464E+02  0.00000000000E+00 0. -1.
         -5    1    5    5    0  502 -0.20080865949E+02  0.73982769837E+02 -0.17709391822E+03  0.19303118214E+03  0.47000000000E+01 0.  1.
         11    1    6    6    0    0 -0.51756660397E+01 -0.60026886685E+02 -0.28263351942E+03  0.28898394583E+03  0.00000000000E+00 0. -1.
        -12    1    6    6    0    0  0.10304041984E+02  0.70759993804E+01 -0.39428707632E+01  0.13106840897E+02  0.00000000000E+00 0.  1.
</event>
<event>
12    1  0.1681255E-001  0.2619687E+03  0.7818608E-02  0.1106137E+00
         21   -1    0    0  503  502  0.00000000000E+00  0.00000000000E+00  0.86919208137E+03  0.86919208137E+03  0.00000000000E+00 0. -1.
         21   -1    0    0  501  503 -0.00000000000E+00 -0.00000000000E+00 -0.81301032310E+02  0.81301032310E+02  0.00000000000E+00 0.  1.
          6    2    1    2  501    0  0.17958980376E+03 -0.78601141604E+02  0.48123723298E+03  0.54792047656E+03  0.17377265940E+03 0.  0.
         24    2    3    3    0    0  0.96393608988E+02 -0.68175625793E+02  0.15246613661E+03  0.20859346317E+03  0.79534057241E+02 0.  0.
         -6    2    1    2    0  502 -0.17958980376E+03  0.78601141604E+02  0.30665381608E+03  0.40257263712E+03  0.17203932157E+03 0.  0.
        -24    2    5    5    0    0 -0.43075583089E+02  0.78868705344E+02  0.17874102756E+03  0.21543638862E+03  0.79929369242E+02 0.  0.
          5    1    3    3  501    0  0.83196194768E+02 -0.10425515811E+02  0.32877109637E+03  0.33932701339E+03  0.47000000000E+01 0. -1.
        -11    1    4    4    0    0  0.90179841778E+02 -0.31377549278E+02  0.13957668640E+03  0.16911122331E+03  0.00000000000E+00 0.  1.
         12    1    4    4    0    0  0.62137672092E+01 -0.36798076515E+02  0.12889450203E+02  0.39482239864E+02  0.00000000000E+00 0. -1.
         -5    1    5    5    0  502 -0.13651422067E+03 -0.26756373963E+00  0.12791278852E+03  0.18713624850E+03  0.47000000000E+01 0.  1.
         11    1    6    6    0    0 -0.39562562275E+02  0.82591556990E+02  0.18554956141E+03  0.20691834467E+03  0.00000000000E+00 0. -1.
        -12    1    6    6    0    0 -0.35130208134E+01 -0.37228516455E+01 -0.68085338504E+01  0.85180439540E+01  0.00000000000E+00 0.  1.
</event>
<event>
12    1  0.1681255E-001  0.2580050E+03  0.7818608E-02  0.1108574E+00
         21   -1    0    0  501  502  0.00000000000E+00  0.00000000000E+00  0.42915192392E+03  0.42915192392E+03  0.00000000000E+00 0.  1.
         21   -1    0    0  502  503 -0.00000000000E+00 -0.00000000000E+00 -0.16481413028E+03  0.16481413028E+03  0.00000000000E+00 0. -1.
         -6    2    1    2    0  503  0.88127832263E+02 -0.17254181294E+03  0.56518387193E+02  0.26267239354E+03  0.16812277122E+03 0.  0.
        -24    2    3    3    0    0  0.52815579261E+02 -0.15745436977E+03  0.95526470960E+02  0.20773327493E+03  0.80289743362E+02 0.  0.
          6    2    1    2  501    0 -0.88127832263E+02  0.17254181294E+03  0.20781940645E+03  0.33129366067E+03  0.17038013931E+03 0.  0.
         24    2    5    5    0    0 -0.44475412745E+02  0.84672170634E+02  0.29331548403E+02  0.12756194189E+03  0.79147144406E+02 0.  0.
          5    1    5    5  501    0 -0.43652419518E+02  0.87869642307E+02  0.17848785804E+03  0.20373171878E+03  0.47000000000E+01 0. -1.
        -13    1    6    6    0    0 -0.14485989678E+02 -0.12939208993E+02 -0.45944127424E+01  0.19959350058E+02  0.00000000000E+00 0.  1.
         14    1    6    6    0    0 -0.29989423067E+02  0.97611379627E+02  0.33925961146E+02  0.10760259183E+03  0.00000000000E+00 0. -1.
         -5    1    3    3    0  503  0.35312253002E+02 -0.15087443174E+02 -0.39008083767E+02  0.54939118602E+02  0.47000000000E+01 0.  1.
         13    1    4    4    0    0  0.27888732173E+02 -0.10094072563E+03  0.14306991925E+02  0.10569532389E+03  0.00000000000E+00 0. -1.
        -14    1    4    4    0    0  0.24926847088E+02 -0.56513644134E+02  0.81219479036E+02  0.10203795105E+03  0.00000000000E+00 0.  1.
</event>
<event>
12    1  0.1681255E-001  0.2286943E+03  0.7818608E-02  0.1127804E+00
         21   -1    0    0  503  502  0.00000000000E+00  0.00000000000E+00  0.48096693097E+03  0.48096693097E+03  0.00000000000E+00 0. -1.
         21   -1    0    0  501  503 -0.00000000000E+00 -0.00000000000E+00 -0.13322650812E+03  0.13322650812E+03  0.00000000000E+00 0. -1.
          6    2    1    2  501    0 -0.12508243872E+03 -0.83365885695E+02  0.30682455694E+03  0.38186780998E+03  0.17054685040E+03 0.  0.
         24    2    3    3    0    0 -0.48744924025E+02 -0.55918050302E+02  0.67149899149E+02  0.12879305540E+03  0.81090358218E+02 0.  0.
         -6    2    1    2    0  502  0.12508243872E+03  0.83365885695E+02  0.40915865908E+02  0.23232562911E+03  0.17235313308E+03 0.  0.
        -24    2    5    5    0    0 -0.10120527933E+02  0.33345263825E+02  0.25941611294E+02  0.87314515377E+02  0.75739855385E+02 0.  0.
          5    1    3    3  501    0 -0.76337514698E+02 -0.27447835393E+02  0.23967465779E+03  0.25307475458E+03  0.47000000000E+01 0. -1.
        -13    1    4    4    0    0 -0.71111236303E+02 -0.35537273623E+02  0.45625114847E+02  0.91658915823E+02  0.00000000000E+00 0.  1.
         14    1    4    4    0    0  0.22366312278E+02 -0.20380776679E+02  0.21524784302E+02  0.37134139578E+02  0.00000000000E+00 0. -1.
         -5    1    5    5    0  502  0.13520296666E+03  0.50020621870E+02  0.14974254613E+02  0.14501111373E+03  0.47000000000E+01 0.  1.
         11    1    6    6    0    0 -0.56129197015E+00 -0.14388248126E+02 -0.17085381248E+02  0.22343835508E+02  0.00000000000E+00 0. -1.
        -12    1    6    6    0    0 -0.95592359625E+01  0.47733511951E+02  0.43026992543E+02  0.64970679869E+02  0.00000000000E+00 0.  1.
</event>
<event>
12    1  0.1681255E-001  0.3216890E+03  0.7818608E-02  0.1074986E+00
         21   -1    0    0  501  502  0.00000000000E+00  0.00000000000E+00  0.64236394487E+03  0.64236394487E+03  0.00000000000E+00 0. -1.
         21   -1    0    0  502  503 -0.00000000000E+00 -0.00000000000E+00 -0.16148843212E+03  0.16148843212E+03  0.00000000000E+00 0. -1.
         -6    2    1    2    0  503 -0.26415382415E+03  0.57853706113E+02  0.21044753544E+03  0.38359636920E+03  0.17243466927E+03 0.  0.
        -24    2    3    3    0    0 -0.27156658319E+03  0.20422222700E+02  0.18544022405E+03  0.33773221577E+03  0.74225983200E+02 0.  0.
          6    2    1    2  501    0  0.26415382415E+03 -0.57853706113E+02  0.27042797730E+03  0.42025600779E+03  0.17423985495E+03 0.  0.
         24    2    5    5    0    0  0.88384533932E+02 -0.12199821336E+02  0.18304654759E+03  0.21867048044E+03  0.79687382642E+02 0.  0.
          5    1    5    5  501    0  0.17576929022E+03 -0.45653884777E+02  0.87381429711E+02  0.20158552735E+03  0.47000000000E+01 0. -1.
        -11    1    6    6    0    0  0.69564696595E+02 -0.16375072620E+02  0.18591783449E+03  0.19918039863E+03  0.00000000000E+00 0.  1.
         12    1    6    6    0    0  0.18819837337E+02  0.41752512849E+01 -0.28712868988E+01  0.19490081814E+02  0.00000000000E+00 0. -1.
         -5    1    3    3    0  503  0.74127590444E+01  0.37431483413E+02  0.25007311394E+02  0.45864153435E+02  0.47000000000E+01 0.  1.
         13    1    4    4    0    0 -0.21336734467E+03 -0.13397640890E+01  0.11018865726E+03  0.24014362146E+03  0.00000000000E+00 0. -1.
        -14    1    4    4    0    0 -0.58199238523E+02  0.21761986789E+02  0.75251566792E+02  0.97588594304E+02  0.00000000000E+00 0.  1.
</event>
<event>
12    1  0.1681255E-001  0.1853972E+03  0.7818608E-02  0.1162957E+00
         21   -1    0    0  503  502  0.00000000000E+00  0.00000000000E+00  0.11973646031E+03  0.11973646031E+03  0.00000000000E+00 0. -1.
         21   -1    0    0  501  503 -0.00000000000E+00 -0.00000000000E+00 -0.59197935576E+03  0.59197935576E+03  0.00000000000E+00 0. -1.
          6    2    1    2  501    0 -0.60331766965E+02 -0.30269859654E+02 -0.49265004062E+03  0.52638025666E+03  0.17267288604E+03 0.  0.
         24    2    3    3    0    0 -0.10099616698E+03  0.39436459231E+00 -0.28869574783E+03  0.31611059260E+03  0.79876721715E+02 0.  0.
         -6    2    1    2    0  502  0.60331766965E+02  0.30269859654E+02  0.20407145172E+02  0.18533555941E+03  0.17139612451E+03 0.  0.
        -24    2    5    5    0    0  0.85326480208E+02  0.54086495218E+02  0.52712241509E+02  0.13782054000E+03  0.77523955341E+02 0.  0.
          5    1    3    3  501    0  0.40664400014E+02 -0.30664224246E+02 -0.20395429279E+03  0.21026966406E+03  0.47000000000E+01 0. -1.
        -11    1    4    4    0    0 -0.31106416944E+02  0.37102415534E+02 -0.87874699929E+02  0.10033026114E+03  0.00000000000E+00 0.  1.
         12    1    4    4    0    0 -0.69889750034E+02 -0.36708050942E+02 -0.20082104790E+03  0.21578033146E+03  0.00000000000E+00 0. -1.
         -5    1    5    5    0  502 -0.24994713243E+02 -0.23816635564E+02 -0.32305096337E+02  0.47515019405E+02  0.47000000000E+01 0.  1.
         13    1    6    6    0    0  0.32237564903E+02  0.58907126283E+02  0.68502602113E+01  0.67499897650E+02  0.00000000000E+00 0. -1.
        -14    1    6    6    0    0  0.53088915305E+02 -0.48206310650E+01  0.45861981298E+02  0.70320642351E+02  0.00000000000E+00 0.  1.
</event>
<event>
12    1  0.1681255E-001  0.2139666E+03  0.7818608E-02  0.1139000E+00
         21   -1    0    0  503  502  0.00000000000E+00  0.00000000000E+00  0.37654223067E+03  0.37654223067E+03  0.00000000000E+00 0.  1.
         21   -1    0    0  501  503 -0.00000000000E+00 -0.00000000000E+00 -0.16591432877E+03  0.16591432877E+03  0.00000000000E+00 0. -1.
          6    2    1    2  501    0  0.11468202693E+03  0.54812105211E+02 -0.37827341758E+02  0.21456677821E+03  0.16867619971E+03 0.  0.
         24    2    3    3    0    0  0.12657935262E+03  0.10722364392E+02  0.10028908503E+02  0.14825115189E+03  0.75766241976E+02 0.  0.
         -6    2    1    2    0  502 -0.11468202693E+03 -0.54812105211E+02  0.24845524366E+03  0.32788978124E+03  0.17212020905E+03 0.  0.
        -24    2    5    5    0    0 -0.11012215610E+03 -0.52780886623E+02  0.94212108366E+02  0.17349433748E+03  0.79445909382E+02 0.  0.
          5    1    3    3  501    0 -0.11897325698E+02  0.44089740820E+02 -0.47856250261E+02  0.66315626314E+02  0.47000000000E+01 0. -1.
        -13    1    4    4    0    0  0.85967548751E+02 -0.75371436175E-02  0.41792962766E+02  0.95588028705E+02  0.00000000000E+00 0.  1.
         14    1    4    4    0    0  0.40611803872E+02  0.10729901535E+02 -0.31764054262E+02  0.52663123188E+02  0.00000000000E+00 0. -1.
         -5    1    5    5    0  502 -0.45598708299E+01 -0.20312185884E+01  0.15424313529E+03  0.15439544377E+03  0.47000000000E+01 0.  1.
         11    1    6    6    0    0 -0.10138933021E+03 -0.71417592566E+02  0.87751046752E+02  0.15192272711E+03  0.00000000000E+00 0. -1.
        -12    1    6    6    0    0 -0.87328258880E+01  0.18636705943E+02  0.64610616140E+01  0.21571610361E+02  0.00000000000E+00 0.  1.
</event>
<event>
12    1  0.1681255E-001  0.1759855E+03  0.7818608E-02  0.1171827E+00
         21   -1    0    0  503  502  0.00000000000E+00  0.00000000000E+00  0.85290668784E+02  0.85290668784E+02  0.00000000000E+00 0.  1.
         21   -1    0    0  501  503 -0.00000000000E+00 -0.00000000000E+00 -0.22412054051E+04  0.22412054051E+04  0.00000000000E+00 0.  1.
          6    2    1    2  501    0  0.14528017685E+02 -0.31189900611E+02 -0.21431596915E+04  0.21503730778E+04  0.17258921482E+03 0.  0.
         24    2    3    3    0    0 -0.39690322349E+02 -0.37667709449E+02 -0.18184800788E+04  0.18211003468E+04  0.80885711668E+02 0.  0.
         -6    2    1    2    0  502 -0.14528017685E+02  0.31189900611E+02 -0.12755044837E+02  0.17612299615E+03  0.17225778765E+03 0.  0.
        -24    2    5    5    0    0 -0.32401688004E+02 -0.39547265257E+02 -0.19260066136E+02  0.10272258724E+03  0.86989218913E+02 0.  0.
          5    1    3    3  501    0  0.54218340034E+02  0.64778088379E+01 -0.32467961276E+03  0.32927273094E+03  0.47000000000E+01 0. -1.
        -11    1    4    4    0    0 -0.24325540574E+02 -0.62508484872E+02 -0.11166274924E+04  0.11186402457E+04  0.00000000000E+00 0.  1.
         12    1    4    4    0    0 -0.15364781775E+02  0.24840775423E+02 -0.70185258640E+03  0.70246010113E+03  0.00000000000E+00 0. -1.
         -5    1    5    5    0  502  0.17873670319E+02  0.70737165868E+02  0.65050212988E+01  0.73400408908E+02  0.47000000000E+01 0.  1.
         13    1    6    6    0    0 -0.58955270684E+02 -0.23143108472E+02  0.45018269957E+01  0.63494833313E+02  0.00000000000E+00 0. -1.
        -14    1    6    6    0    0  0.26553582681E+02 -0.16404156786E+02 -0.23761893131E+02  0.39227753928E+02  0.00000000000E+00 0.  1.
</event>
<event>
12    1  0.1681255E-001  0.1791095E+03  0.7818608E-02  0.1168713E+00
         21   -1    0    0  501  502  0.00000000000E+00  0.00000000000E+00  0.44668364574E+03  0.44668364574E+03  0.00000000000E+00 0.  1.
         21   -1    0    0  502  503 -0.00000000000E+00 -0.00000000000E+00 -0.73577599527E+02  0.73577599527E+02  0.00000000000E+00 0.  1.
         -6    2    1    2    0  503  0.36888686383E+02 -0.31075917070E+02  0.22752952759E+03  0.28945237326E+03  0.17229771518E+03 0.  0.
        -24    2    3    3    0    0  0.75884119702E+02  0.22075945939E+02  0.14017601739E+03  0.17991475368E+03  0.80462759871E+02 0.  0.
          6    2    1    2  501    0 -0.36888686383E+02  0.31075917070E+02  0.14557651863E+03  0.23080887201E+03  0.17249268047E+03 0.  0.
         24    2    5    5    0    0 -0.26823466290E+02  0.86275640662E+02  0.11134405333E+03  0.16491297062E+03  0.81460451444E+02 0.  0.
          5    1    5    5  501    0 -0.10065220093E+02 -0.55199723592E+02  0.34232465299E+02  0.65895901395E+02  0.47000000000E+01 0. -1.
        -11    1    6    6    0    0  0.10515364177E+02  0.77781107624E+02  0.95127974532E+02  0.12332803868E+03  0.00000000000E+00 0.  1.
         12    1    6    6    0    0 -0.37338830467E+02  0.84945330384E+01  0.16216078801E+02  0.41584931933E+02  0.00000000000E+00 0. -1.
         -5    1    3    3    0  503 -0.38995433319E+02 -0.53151863009E+02  0.87353510192E+02  0.10953761958E+03  0.47000000000E+01 0.  1.
         11    1    4    4    0    0  0.75275585947E+02 -0.11808938791E+02  0.11387526734E+03  0.13701620848E+03  0.00000000000E+00 0. -1.
        -12    1    4    4    0    0  0.60853375512E+00  0.33884884730E+02  0.26300750057E+02  0.42898545197E+02  0.00000000000E+00 0.  1.
</event>
<event>
12    1  0.1681255E-001  0.2145269E+03  0.7818608E-02  0.1138123E+00
         21   -1    0    0  503  502  0.00000000000E+00  0.00000000000E+00  0.65991612697E+03  0.65991612697E+03  0.00000000000E+00 0.  1.
         21   -1    0    0  501  503 -0.00000000000E+00 -0.00000000000E+00 -0.72704212243E+02  0.72704212243E+02  0.00000000000E+00 0.  1.
          6    2    1    2  501    0  0.41620507855E+02 -0.12064987405E+03  0.21802153001E+03  0.30586793820E+03  0.17243302841E+03 0.  0.
         24    2    3    3    0    0  0.45639594379E+02 -0.11591305770E+01  0.12808213627E+03  0.15618368592E+03  0.76837451536E+02 0.  0.
         -6    2    1    2    0  502 -0.41620507855E+02  0.12064987405E+03  0.36919038472E+03  0.42675240102E+03  0.17183542365E+03 0.  0.
        -24    2    5    5    0    0 -0.72547804689E+02  0.32140653166E+02  0.14353117739E+03  0.18234587958E+03  0.79703295809E+02 0.  0.
          5    1    3    3  501    0 -0.40190865242E+01 -0.11949074348E+03  0.89939393739E+02  0.14968425228E+03  0.47000000000E+01 0. -1.
        -13    1    4    4    0    0  0.47515329749E+02 -0.24887683859E+02  0.45812706474E+02  0.70540112301E+02  0.00000000000E+00 0.  1.
         14    1    4    4    0    0 -0.18757353695E+01  0.23728553282E+02  0.82269429792E+02  0.85643573619E+02  0.00000000000E+00 0. -1.
         -5    1    5    5    0  502  0.30927296834E+02  0.88509220887E+02  0.22565920733E+03  0.24440652144E+03  0.47000000000E+01 0.  1.
         13    1    6    6    0    0 -0.46292947365E+02 -0.12558265461E+02  0.27569934852E+02  0.55324933935E+02  0.00000000000E+00 0. -1.
        -14    1    6    6    0    0 -0.26254857324E+02  0.44698918627E+02  0.11596124254E+03  0.12702094564E+03  0.00000000000E+00 0.  1.
</event>
<event>
12    1  0.1681255E-001  0.2042418E+03  0.7818608E-02  0.1146972E+00
         21   -1    0    0  501  502  0.00000000000E+00  0.00000000000E+00  0.15356453891E+03  0.15356453891E+03  0.00000000000E+00 0.  1.
         21   -1    0    0  502  503 -0.00000000000E+00 -0.00000000000E+00 -0.28148871859E+03  0.28148871859E+03  0.00000000000E+00 0. -1.
         -6    2    1    2    0  503  0.97193404145E+02 -0.31470563908E+02 -0.11315227397E+03  0.23027793921E+03  0.17259066597E+03 0.  0.
        -24    2    3    3    0    0  0.15852279273E+02  0.35865322116E+02 -0.80678374727E+02  0.11970152096E+03  0.79258046168E+02 0.  0.
          6    2    1    2  501    0 -0.97193404145E+02  0.31470563908E+02 -0.14771905707E+02  0.20477531829E+03  0.17685521643E+03 0.  0.
         24    2    5    5    0    0 -0.10787340878E+03 -0.23457431277E+02  0.21941215418E+02  0.13768515197E+03  0.79302337520E+02 0.  0.
          5    1    5    5  501    0  0.10680004631E+02  0.54927995184E+02 -0.36713121125E+02  0.67090166318E+02  0.47000000000E+01 0. -1.
        -13    1    6    6    0    0 -0.83049616410E+02  0.19808715379E+02  0.72576959548E+01  0.85687211072E+02  0.00000000000E+00 0.  1.
         14    1    6    6    0    0 -0.24823792366E+02 -0.43266146656E+02  0.14683519463E+02  0.51997940898E+02  0.00000000000E+00 0. -1.
         -5    1    3    3    0  503  0.81341124871E+02 -0.67335886024E+02 -0.32473899243E+02  0.11057641825E+03  0.47000000000E+01 0.  1.
         13    1    4    4    0    0  0.42564185283E+02  0.37877242692E+02 -0.35358547371E+02  0.67056858374E+02  0.00000000000E+00 0. -1.
        -14    1    4    4    0    0 -0.26711906009E+02 -0.20119205757E+01 -0.45319827356E+02  0.52644662585E+02  0.00000000000E+00 0.  1.
</event>
<event>
12    1  0.1681255E-001  0.2169725E+03  0.7818608E-02  0.1136397E+00
         21   -1    0    0  501  502  0.00000000000E+00  0.00000000000E+00  0.14448451269E+03  0.14448451269E+03  0.00000000000E+00 0.  1.
         21   -1    0    0  502  503 -0.00000000000E+00 -0.00000000000E+00 -0.35343071664E+03  0.35343071664E+03  0.00000000000E+00 0. -1.
         -6    2    1    2    0  503 -0.69811453482E+02 -0.11046547497E+03 -0.17663563313E+03  0.27978066022E+03  0.17320742116E+03 0.  0.
        -24    2    3    3    0    0 -0.17316516705E+02  0.15106694742E+01 -0.33374084954E+02  0.90465218439E+02  0.82267747798E+02 0.  0.
          6    2    1    2  501    0  0.69811453482E+02  0.11046547497E+03 -0.32310570822E+02  0.21813456910E+03  0.17164631384E+03 0.  0.
         24    2    5    5    0    0  0.43316218350E+02  0.13430432563E+03  0.97078736675E+01  0.16283603419E+03  0.80668361609E+02 0.  0.
          5    1    5    5  501    0  0.26495235133E+02 -0.23838850668E+02 -0.42018444489E+02  0.55298534910E+02  0.47000000000E+01 0. -1.
        -11    1    6    6    0    0 -0.17049128993E+02  0.71904225262E+02  0.16611192404E+02  0.75741812251E+02  0.00000000000E+00 0.  1.
         12    1    6    6    0    0  0.60365347343E+02  0.62400100372E+02 -0.69033187363E+01  0.87094221943E+02  0.00000000000E+00 0. -1.
         -5    1    3    3    0  503 -0.52494936777E+02 -0.11197614444E+03 -0.14326154818E+03  0.18931544178E+03  0.47000000000E+01 0.  1.
         13    1    4    4    0    0 -0.50322176571E+02  0.43688172643E+01 -0.15579595342E+02  0.52859547956E+02  0.00000000000E+00 0. -1.
        -14    1    4    4    0    0  0.33005659866E+02 -0.28581477901E+01 -0.17794489612E+02  0.37605670483E+02  0.00000000000E+00 0.  1.
</event>
<event>
12    1  0.1681255E-001  0.1829203E+03  0.7818608E-02  0.1166358E+00
         21   -1    0    0  503  502  0.00000000000E+00  0.00000000000E+00  0.72687886730E+03  0.72687886730E+03  0.00000000000E+00 0.  1.
         21   -1    0    0  501  503 -0.00000000000E+00 -0.00000000000E+00 -0.16385000896E+03  0.16385000896E+03  0.00000000000E+00 0.  1.
          6    2    1    2  501    0 -0.33384458301E+02 -0.40365182956E+02 -0.97174773467E+02  0.20712982449E+03  0.17525968601E+03 0.  0.
         24    2    3    3    0    0  0.30855361607E+02 -0.61722797382E+02 -0.23821746359E+02  0.10720155650E+03  0.78504401537E+02 0.  0.
         -6    2    1    2    0  502  0.33384458301E+02  0.40365182956E+02  0.66020363181E+03  0.68359905177E+03  0.16939586206E+03 0.  0.
        -24    2    5    5    0    0  0.16970300485E+02  0.30223780036E+02  0.15298805307E+03  0.17599486942E+03  0.79795875218E+02 0.  0.
          5    1    3    3  501    0 -0.64239819908E+02  0.21357614427E+02 -0.73353027108E+02  0.99928267981E+02  0.47000000000E+01 0. -1.
        -13    1    4    4    0    0  0.27927268400E+02 -0.41431142907E+01 -0.38467522177E+02  0.47716328219E+02  0.00000000000E+00 0.  1.
         14    1    4    4    0    0  0.29280932070E+01 -0.57579683092E+02  0.14645775818E+02  0.59485228284E+02  0.00000000000E+00 0. -1.
         -5    1    5    5    0  502  0.16414157816E+02  0.10141402920E+02  0.50721557874E+03  0.50760418235E+03  0.47000000000E+01 0.  1.
         13    1    6    6    0    0  0.31859359956E+02 -0.36625204006E+01  0.19640082505E+02  0.37605394737E+02  0.00000000000E+00 0. -1.
        -14    1    6    6    0    0 -0.14889059472E+02  0.33886300436E+02  0.13334797057E+03  0.13838947468E+03  0.00000000000E+00 0.  1.
</event>
<event>
12    1  0.1681255E-001  0.2806234E+03  0.7818608E-02  0.1096040E+00
         21   -1    0    0  501  502  0.00000000000E+00  0.00000000000E+00  0.63060052077E+03  0.63060052077E+03  0.00000000000E+00 0.  1.
         21   -1    0    0  502  503 -0.00000000000E+00 -0.00000000000E+00 -0.13909385831E+03  0.13909385831E+03  0.00000000000E+00 0.  1.
         -6    2    1    2    0  503 -0.19002540302E+03 -0.10413094968E+03  0.11540579558E+03  0.30342706496E+03  0.17831594887E+03 0.  0.
        -24    2    3    3    0    0 -0.97375215708E+02 -0.71678117741E+02 -0.79105970399E+01  0.14573665244E+03  0.80974743738E+02 0.  0.
          6    2    1    2  501    0  0.19002540302E+03  0.10413094968E+03  0.37610086688E+03  0.46626731412E+03  0.17029514870E+03 0.  0.
         24    2    5    5    0    0  0.16717142911E+03  0.18063861961E+02  0.24866263150E+03  0.31072811794E+03  0.80288661416E+02 0.  0.
          5    1    5    5  501    0  0.22853973909E+02  0.86067087717E+02  0.12743823537E+03  0.15553919618E+03  0.47000000000E+01 0. -1.
        -13    1    6    6    0    0  0.97033798144E+01 -0.13041992382E+02  0.19158579638E+01  0.16368251490E+02  0.00000000000E+00 0.  1.
         14    1    6    6    0    0  0.15746804930E+03  0.31105854343E+02  0.24674677354E+03  0.29435986645E+03  0.00000000000E+00 0. -1.
         -5    1    3    3    0  503 -0.92650187311E+02 -0.32452831937E+02  0.12331639262E+03  0.15769041251E+03  0.47000000000E+01 0.  1.
         13    1    4    4    0    0 -0.52378960769E+02 -0.68074354211E+02  0.25475227682E+02  0.89591631629E+02  0.00000000000E+00 0. -1.
        -14    1    4    4    0    0 -0.44996254939E+02 -0.36037635298E+01 -0.33385824722E+02  0.56145020816E+02  0.00000000000E+00 0.  1.
</event>
<event>
12    1  0.1681255E-001  0.2407013E+03  0.7818608E-02  0.1120619E+00
         21   -1    0    0  501  502  0.00000000000E+00  0.00000000000E+00  0.10202446198E+03  0.10202446198E+03  0.00000000000E+00 0.  1.
         21   -1    0    0  502  503 -0.00000000000E+00 -0.00000000000E+00 -0.55508114206E+03  0.55508114206E+03  0.00000000000E+00 0.  1.
         -6    2    1    2    0  503 -0.11723720258E+03 -0.10337102753E+03 -0.26170589327E+03  0.35556589612E+03  0.18304917620E+03 0.  0.
        -24    2    3    3    0    0 -0.34034224557E+02 -0.11363938047E+03 -0.21920500617E+03  0.26145643842E+03  0.78970863136E+02 0.  0.
          6    2    1    2  501    0  0.11723720258E+03  0.10337102753E+03 -0.19135078681E+03  0.30153970792E+03  0.17286104488E+03 0.  0.
         24    2    5    5    0    0  0.60371044761E+02  0.24195242091E+01 -0.32236466912E+02  0.10465288072E+03  0.79136075851E+02 0.  0.
          5    1    5    5  501    0  0.56866157820E+02  0.10095150332E+03 -0.15911431990E+03  0.19688682720E+03  0.47000000000E+01 0. -1.
        -13    1    6    6    0    0  0.49379882372E+02 -0.30810033191E+02 -0.37530864094E+02  0.69254578823E+02  0.00000000000E+00 0.  1.
         14    1    6    6    0    0  0.10991162389E+02  0.33229557400E+02  0.52943971818E+01  0.35398301897E+02  0.00000000000E+00 0. -1.
         -5    1    3    3    0  503 -0.83202978023E+02  0.10268352945E+02 -0.42500887099E+02  0.94109457699E+02  0.47000000000E+01 0.  1.
         13    1    4    4    0    0  0.11082911342E+02 -0.40783695608E+02 -0.13442136052E+03  0.14090863322E+03  0.00000000000E+00 0. -1.
        -14    1    4    4    0    0 -0.45117135900E+02 -0.72855684864E+02 -0.84783645653E+02  0.12054780520E+03  0.00000000000E+00 0.  1.
</event>
<event>
12    1  0.1681255E-001  0.3895216E+03  0.7818608E-02  0.1047647E+00
         21   -1    0    0  501  502  0.00000000000E+00  0.00000000000E+00  0.61973900597E+03  0.61973900597E+03  0.00000000000E+00 0. -1.
         21   -1    0    0  502  503 -0.00000000000E+00 -0.00000000000E+00 -0.26205028489E+03  0.26205028489E+03  0.00000000000E+00 0.  1.
         -6    2    1    2    0  503 -0.34488840839E+03  0.52988942833E+02  0.61371907650E+02  0.39237054185E+03  0.16861876751E+03 0.  0.
        -24    2    3    3    0    0 -0.32051888968E+03  0.26086752699E+02  0.84236117457E+02  0.34921427502E+03  0.10696732720E+03 0.  0.
          6    2    1    2  501    0  0.34488840839E+03 -0.52988942833E+02  0.29631681343E+03  0.48941874900E+03  0.17312196755E+03 0.  0.
         24    2    5    5    0    0  0.77286779904E+02  0.12758128647E+02  0.56767132548E+02  0.12426200377E+03  0.77990525378E+02 0.  0.
          5    1    5    5  501    0  0.26760162849E+03 -0.65747071480E+02  0.23954968088E+03  0.36515674523E+03  0.47000000000E+01 0. -1.
        -13    1    6    6    0    0  0.39257438330E+02  0.36770140501E+02  0.58218773807E+02  0.79262950489E+02  0.00000000000E+00 0.  1.
         14    1    6    6    0    0  0.38029341574E+02 -0.24012011855E+02 -0.14516412588E+01  0.44999053281E+02  0.00000000000E+00 0. -1.
         -5    1    3    3    0  503 -0.24369518715E+02  0.26902190134E+02 -0.22864209806E+02  0.43156266828E+02  0.47000000000E+01 0.  1.
         13    1    4    4    0    0 -0.28122148734E+02  0.36422304880E+02  0.64017624060E+01  0.46458821596E+02  0.00000000000E+00 0. -1.
        -14    1    4    4    0    0 -0.29239674094E+03 -0.10335552181E+02  0.77834355051E+02  0.30275545343E+03  0.00000000000E+00 0.  1.
</event>
<event>
12    1  0.1681255E-001  0.2181798E+03  0.7818608E-02  0.1135256E+00
         21   -1    0    0  501  502  0.00000000000E+00  0.00000000000E+00  0.46634624412E+03  0.46634624412E+03  0.00000000000E+00 0. -1.
         21   -1    0    0  502  503 -0.00000000000E+00 -0.00000000000E+00 -0.38809493697E+03  0.38809493697E+03  0.00000000000E+00 0.  1.
         -6    2    1    2    0  503  0.12784561569E+03  0.37548218010E+02 -0.32764576625E+03  0.39364221589E+03  0.17276595689E+03 0.  0.
        -24    2    3    3    0    0  0.67760477087E+02 -0.50914746515E+01 -0.44407316546E+02  0.10094018880E+03  0.59995888047E+02 0.  0.
          6    2    1    2  501    0 -0.12784561569E+03 -0.37548218010E+02  0.40589707340E+03  0.46079896520E+03  0.17271039924E+03 0.  0.
         24    2    5    5    0    0 -0.40550478316E+02 -0.61438271522E+02  0.29421393803E+03  0.31697133089E+03  0.92141091656E+02 0.  0.
          5    1    5    5  501    0 -0.87295137379E+02  0.23890053512E+02  0.11168313537E+03  0.14382763431E+03  0.47000000000E+01 0. -1.
        -11    1    6    6    0    0  0.51481626747E+01  0.21758689806E+02  0.43947171850E+02  0.49308194802E+02  0.00000000000E+00 0.  1.
         12    1    6    6    0    0 -0.45698640990E+02 -0.83196961329E+02  0.25026676618E+03  0.26766313609E+03  0.00000000000E+00 0. -1.
         -5    1    3    3    0  503  0.60085138608E+02  0.42639692662E+02 -0.28323844970E+03  0.29270202709E+03  0.47000000000E+01 0.  1.
         11    1    4    4    0    0 -0.11975387044E+01  0.45466763456E+01 -0.29321864981E+02  0.29696432963E+02  0.00000000000E+00 0. -1.
        -12    1    4    4    0    0  0.68958015791E+02 -0.96381509971E+01 -0.15085451565E+02  0.71243755835E+02  0.00000000000E+00 0.  1.
</event>
<event>
12    1  0.1681255E-001  0.2820401E+03  0.7818608E-02  0.1094642E+00
         21   -1    0    0  503  502  0.00000000000E+00  0.00000000000E+00  0.14232892876E+04  0.14232892876E+04  0.00000000000E+00 0. -1.
         21   -1    0    0  501  503 -0.00000000000E+00 -0.00000000000E+00 -0.66487985156E+02  0.66487985156E+02  0.00000000000E+00 0. -1.
          6    2    1    2  501    0 -0.15947517025E+03 -0.15607283222E+03  0.38019206481E+03  0.47338421366E+03  0.17249796727E+03 0.  0.
         24    2    3    3    0    0 -0.16605544865E+03 -0.97310828416E+02  0.34816333803E+03  0.40597351351E+03  0.80950443923E+02 0.  0.
         -6    2    1    2    0  502  0.15947517025E+03  0.15607283222E+03  0.97660923763E+03  0.10163930591E+04  0.17175036727E+03 0.  0.
        -24    2    5    5    0    0  0.63237118109E+02  0.75985571477E+02  0.71628229875E+03  0.72748487796E+03  0.80007349587E+02 0.  0.
          5    1    3    3  501    0  0.65802783985E+01 -0.58762003806E+02  0.32028726775E+02  0.67410700144E+02  0.47000000000E+01 0. -1.
        -13    1    4    4    0    0 -0.10288897316E+03 -0.24986052095E+02  0.23369676520E+03  0.25656309490E+03  0.00000000000E+00 0.  1.
         14    1    4    4    0    0 -0.63166475489E+02 -0.72324776321E+02  0.11446657283E+03  0.14941041862E+03  0.00000000000E+00 0. -1.
         -5    1    5    5    0  502  0.96238052146E+02  0.80087260744E+02  0.26032693889E+03  0.28890818113E+03  0.47000000000E+01 0.  1.
         11    1    6    6    0    0  0.16334935241E+02  0.74391172889E+02  0.34883346458E+03  0.35705134466E+03  0.00000000000E+00 0. -1.
        -12    1    6    6    0    0  0.46902182867E+02  0.15943985887E+01  0.36744883416E+03  0.37043353330E+03  0.00000000000E+00 0.  1.
</event>
<event>
12    1  0.1681255E-001  0.2036872E+03  0.7818608E-02  0.1148696E+00
         21   -1    0    0  503  502  0.00000000000E+00  0.00000000000E+00  0.24132330820E+03  0.24132330820E+03  0.00000000000E+00 0. -1.
         21   -1    0    0  501  503 -0.00000000000E+00 -0.00000000000E+00 -0.25248499357E+03  0.25248499357E+03  0.00000000000E+00 0. -1.
          6    2    1    2  501    0 -0.84194531492E+02  0.17910616559E+02 -0.15188455150E+03  0.25408144382E+03  0.18460485853E+03 0.  0.
         24    2    3    3    0    0 -0.68223102156E+02  0.21208366980E+02 -0.18658647412E+03  0.21545146652E+03  0.80626519229E+02 0.  0.
         -6    2    1    2    0  502  0.84194531492E+02 -0.17910616559E+02  0.14072286613E+03  0.23972685795E+03  0.17394404862E+03 0.  0.
        -24    2    5    5    0    0  0.47414402852E+02  0.26351082043E+02  0.15309005247E+03  0.18067676799E+03  0.79151912182E+02 0.  0.
          5    1    3    3  501    0 -0.15971429336E+02 -0.32977504206E+01  0.34701922621E+02  0.38629977304E+02  0.47000000000E+01 0. -1.
        -13    1    4    4    0    0  0.27533878200E+01 -0.86458357161E+00  0.72762585186E+01  0.78276808359E+01  0.00000000000E+00 0.  1.
         14    1    4    4    0    0 -0.70976489976E+02  0.22072950552E+02 -0.19386273264E+03  0.20762378568E+03  0.00000000000E+00 0. -1.
         -5    1    5    5    0  502  0.36780128640E+02 -0.44261698603E+02 -0.12367186338E+02  0.59050089957E+02  0.47000000000E+01 0.  1.
         11    1    6    6    0    0  0.37593851865E+02 -0.20164491169E+02  0.10365929683E+03  0.11209439871E+03  0.00000000000E+00 0. -1.
        -12    1    6    6    0    0  0.98205509866E+01  0.46515573212E+02  0.49430755644E+02  0.68582369283E+02  0.00000000000E+00 0.  1.
</event>
<event>
12    1  0.1681255E-001  0.2035697E+03  0.7818608E-02  0.1147222E+00
         21   -1    0    0  501  502  0.00000000000E+00  0.00000000000E+00  0.89462859491E+03  0.89462859491E+03  0.00000000000E+00 0. -1.
         21   -1    0    0  502  503 -0.00000000000E+00 -0.00000000000E+00 -0.45863423119E+02  0.45863423119E+02  0.00000000000E+00 0.  1.
         -6    2    1    2    0  503 -0.13432730772E+02 -0.10938880765E+03  0.41193919593E+03  0.45949376449E+03  0.17115568634E+03 0.  0.
        -24    2    3    3    0    0 -0.11805392650E+02 -0.13710859868E+03  0.39681603256E+03  0.42752760872E+03  0.79867123333E+02 0.  0.
          6    2    1    2  501    0  0.13432730772E+02  0.10938880765E+03  0.43682597586E+03  0.48099825354E+03  0.16851123769E+03 0.  0.
         24    2    5    5    0    0 -0.13319965964E+01  0.62216442889E+02  0.41483010591E+03  0.42669229193E+03  0.78164155756E+02 0.  0.
          5    1    5    5  501    0  0.14764727368E+02  0.47172364759E+02  0.21995869953E+02  0.54305961609E+02  0.47000000000E+01 0. -1.
        -13    1    6    6    0    0  0.28050628706E+02  0.63513687306E+02  0.26110362517E+03  0.27017758849E+03  0.00000000000E+00 0.  1.
         14    1    6    6    0    0 -0.29382625303E+02 -0.12972444171E+01  0.15372648074E+03  0.15651470344E+03  0.00000000000E+00 0. -1.
         -5    1    3    3    0  503 -0.16273381217E+01  0.27719791036E+02  0.15123163368E+02  0.31966155770E+02  0.47000000000E+01 0.  1.
         11    1    4    4    0    0  0.21478516933E+02 -0.40069490928E+01  0.58791126875E+02  0.62719844786E+02  0.00000000000E+00 0. -1.
        -12    1    4    4    0    0 -0.33283909583E+02 -0.13310164959E+03  0.33802490569E+03  0.36480776393E+03  0.00000000000E+00 0.  1.
</event>
<event>
12    1  0.1681255E-001  0.1742040E+03  0.7818608E-02  0.1173655E+00
         21   -1    0    0  503  502  0.00000000000E+00  0.00000000000E+00  0.11146935149E+03  0.11146935149E+03  0.00000000000E+00 0.  1.
         21   -1    0    0  501  503 -0.00000000000E+00 -0.00000000000E+00 -0.29822352543E+03  0.29822352543E+03  0.00000000000E+00 0.  1.
          6    2    1    2  501    0 -0.12775073108E+02 -0.21643774992E+02 -0.15481918398E+03  0.23305795403E+03  0.17238148021E+03 0.  0.
         24    2    3    3    0    0 -0.33304207490E+02  0.50012200745E+02 -0.10511668498E+03  0.14334478541E+03  0.76732128757E+02 0.  0.
         -6    2    1    2    0  502  0.12775073108E+02  0.21643774992E+02 -0.31934989956E+02  0.17663492288E+03  0.17189647149E+03 0.  0.
        -24    2    5    5    0    0 -0.10409180280E+02  0.67611571687E+02 -0.56364781529E+02  0.11945579509E+03  0.80081350667E+02 0.  0.
          5    1    3    3  501    0  0.20529134382E+02 -0.71655975737E+02 -0.49702499001E+02  0.89713168622E+02  0.47000000000E+01 0. -1.
        -11    1    4    4    0    0  0.83785830233E+00  0.59733721522E+02 -0.50600493090E+02  0.78289395159E+02  0.00000000000E+00 0.  1.
         12    1    4    4    0    0 -0.34142065792E+02 -0.97215207761E+01 -0.54516191890E+02  0.65055390253E+02  0.00000000000E+00 0. -1.
         -5    1    5    5    0  502  0.23184253389E+02 -0.45967796696E+02  0.24429791573E+02  0.57179127788E+02  0.47000000000E+01 0.  1.
         13    1    6    6    0    0  0.19893310943E+02  0.23720538990E+02  0.11601766378E+02  0.33060683195E+02  0.00000000000E+00 0. -1.
        -14    1    6    6    0    0 -0.30302491223E+02  0.43891032697E+02 -0.67966547907E+02  0.86395111899E+02  0.00000000000E+00 0.  1.
</event>
<event>
12    1  0.1681255E-001  0.2367972E+03  0.7818608E-02  0.1122085E+00
         21   -1    0    0  501  502  0.00000000000E+00  0.00000000000E+00  0.14774941365E+03  0.14774941365E+03  0.00000000000E+00 0. -1.
         21   -1    0    0  502  503 -0.00000000000E+00 -0.00000000000E+00 -0.12750326338E+04  0.12750326338E+04  0.00000000000E+00 0. -1.
         -6    2    1    2    0  503 -0.16263838932E+03  0.55268229407E+01 -0.11605605162E+04  0.11844718674E+04  0.17202064258E+03 0.  0.
        -24    2    3    3    0    0 -0.27543314079E+02 -0.39371414677E+02 -0.39051842311E+03  0.40136686409E+03  0.79258932350E+02 0.  0.
          6    2    1    2  501    0  0.16263838932E+03 -0.55268229407E+01  0.33277295983E+02  0.23831018011E+03  0.17088760067E+03 0.  0.
         24    2    5    5    0    0  0.54272533871E+02  0.52933277038E+02 -0.14560976014E+01  0.11028971086E+03  0.80089077599E+02 0.  0.
          5    1    5    5  501    0  0.10836585545E+03 -0.58460099979E+02  0.34733393585E+02  0.12802046925E+03  0.47000000000E+01 0. -1.
        -11    1    6    6    0    0  0.22369742256E+02  0.23672908265E+02 -0.40515396620E+02  0.51983740897E+02  0.00000000000E+00 0.  1.
         12    1    6    6    0    0  0.31902791615E+02  0.29260368773E+02  0.39059299019E+02  0.58305969964E+02  0.00000000000E+00 0. -1.
         -5    1    3    3    0  503 -0.13509507524E+03  0.44898237617E+02 -0.77004209307E+03  0.78310500330E+03  0.47000000000E+01 0.  1.
         11    1    4    4    0    0 -0.34371752712E+02  0.11011930396E+02 -0.23480526016E+03  0.23756302363E+03  0.00000000000E+00 0. -1.
        -12    1    4    4    0    0  0.68284386328E+01 -0.50383345073E+02 -0.15571316294E+03  0.16380384046E+03  0.00000000000E+00 0.  1.
</event>
<event>
12    1  0.1681255E-001  0.1855537E+03  0.7818608E-02  0.1164780E+00
         21   -1    0    0  501  502  0.00000000000E+00  0.00000000000E+00  0.53026056108E+03  0.53026056108E+03  0.00000000000E+00 0.  1.
         21   -1    0    0  502  503 -0.00000000000E+00 -0.00000000000E+00 -0.64945078497E+02  0.64945078497E+02  0.00000000000E+00 0.  1.
         -6    2    1    2    0  503  0.37452927550E+02  0.71555819604E+01  0.30504440471E+03  0.35704658771E+03  0.18159364751E+03 0.  0.
        -24    2    3    3    0    0  0.53182878972E+02 -0.44736995771E+02  0.27520428159E+03  0.29497570933E+03  0.80271134805E+02 0.  0.
          6    2    1    2  501    0 -0.37452927550E+02 -0.71555819604E+01  0.16027107787E+03  0.23815905187E+03  0.17198543964E+03 0.  0.
         24    2    5    5    0    0 -0.10324105317E+02  0.12432952929E+02  0.18106053999E+03  0.19848569267E+03  0.79702481678E+02 0.  0.
          5    1    5    5  501    0 -0.27128822233E+02 -0.19588534889E+02 -0.20789462114E+02  0.39673359195E+02  0.47000000000E+01 0. -1.
        -11    1    6    6    0    0  0.27764751654E+02  0.11158825322E+02  0.28810881089E+02  0.41538749212E+02  0.00000000000E+00 0.  1.
         12    1    6    6    0    0 -0.38088856972E+02  0.12741276068E+01  0.15224965890E+03  0.15694694346E+03  0.00000000000E+00 0. -1.
         -5    1    3    3    0  503 -0.15729951422E+02  0.51892577731E+02  0.29840123123E+02  0.62070878384E+02  0.47000000000E+01 0.  1.
         13    1    4    4    0    0 -0.10706983561E+02 -0.23044547941E+01  0.19026512145E+01  0.11116208460E+02  0.00000000000E+00 0. -1.
        -14    1    4    4    0    0  0.63889862534E+02 -0.42432540977E+02  0.27330163038E+03  0.28385950087E+03  0.00000000000E+00 0.  1.
</event>
<event>
12    1  0.1681255E-001  0.1955193E+03  0.7818608E-02  0.1153756E+00
         21   -1    0    0  501  502  0.00000000000E+00  0.00000000000E+00  0.35113396982E+03  0.35113396982E+03  0.00000000000E+00 0.  1.
         21   -1    0    0  502  503 -0.00000000000E+00 -0.00000000000E+00 -0.15449307531E+03  0.15449307531E+03  0.00000000000E+00 0. -1.
         -6    2    1    2    0  503 -0.65868619808E+02 -0.58790712874E+02 -0.39611745581E+02  0.19949160598E+03  0.17444995693E+03 0.  0.
        -24    2    3    3    0    0  0.10367681689E+02 -0.14369085309E+02 -0.71566133554E+02  0.10553189349E+03  0.75507017126E+02 0.  0.
          6    2    1    2  501    0  0.65868619808E+02  0.58790712874E+02  0.23625264009E+03  0.30613543914E+03  0.17351822426E+03 0.  0.
         24    2    5    5    0    0  0.10732872862E+03  0.22630893708E+02  0.19450048837E+03  0.23691257212E+03  0.79154996781E+02 0.  0.
          5    1    5    5  501    0 -0.41460108813E+02  0.36159819166E+02  0.41752151717E+02  0.69222867016E+02  0.47000000000E+01 0. -1.
        -11    1    6    6    0    0  0.44513363768E+02  0.19755704381E+02  0.15543217584E+03  0.16288305220E+03  0.00000000000E+00 0.  1.
         12    1    6    6    0    0  0.62815364853E+02  0.28751893270E+01  0.39068312537E+02  0.74029519921E+02  0.00000000000E+00 0. -1.
         -5    1    3    3    0  503 -0.76236301497E+02 -0.44421627565E+02  0.31954387973E+02  0.93959712495E+02  0.47000000000E+01 0.  1.
         11    1    4    4    0    0 -0.99151291519E+00 -0.33063738310E+02 -0.76289914379E+02  0.83152540099E+02  0.00000000000E+00 0. -1.
        -12    1    4    4    0    0  0.11359194604E+02  0.18694653001E+02  0.47237808254E+01  0.22379353390E+02  0.00000000000E+00 0.  1.
</event>
<event>
12    1  0.1681255E-001  0.2263406E+03  0.7818608E-02  0.1129617E+00
         21   -1    0    0  503  502  0.00000000000E+00  0.00000000000E+00  0.88607577694E+02  0.88607577694E+02  0.00000000000E+00 0.  1.
         21   -1    0    0  501  503 -0.00000000000E+00 -0.00000000000E+00 -0.60964107685E+03  0.60964107685E+03  0.00000000000E+00 0.  1.
          6    2    1    2  501    0 -0.80206752968E+02  0.12112462812E+03 -0.34738473388E+03  0.41461575323E+03  0.17356776985E+03 0.  0.
         24    2    3    3    0    0 -0.11732416425E+03  0.84370873129E+02 -0.20598211289E+03  0.26380019717E+03  0.79237045923E+02 0.  0.
         -6    2    1    2    0  502  0.80206752968E+02 -0.12112462812E+03 -0.17364876528E+03  0.28363290132E+03  0.17084914477E+03 0.  0.
        -24    2    5    5    0    0  0.20129958495E+02 -0.14234649605E+02 -0.13804157616E+03  0.15586494501E+03  0.68048246547E+02 0.  0.
          5    1    3    3  501    0  0.37117411281E+02  0.36753754994E+02 -0.14140262099E+03  0.15081555605E+03  0.47000000000E+01 0. -1.
        -11    1    4    4    0    0 -0.91301755423E+02  0.46572946796E+02 -0.18874843987E+03  0.21478133874E+03  0.00000000000E+00 0.  1.
         12    1    4    4    0    0 -0.26022408826E+02  0.37797926333E+02 -0.17233673021E+02  0.49018858432E+02  0.00000000000E+00 0. -1.
         -5    1    5    5    0  502  0.60076794473E+02 -0.10688997852E+03 -0.35607189123E+02  0.12776795631E+03  0.47000000000E+01 0.  1.
         13    1    6    6    0    0  0.78164947927E+01 -0.30138502295E+02 -0.13085166790E+03  0.13450496609E+03  0.00000000000E+00 0. -1.
        -14    1    6    6    0    0  0.12313463702E+02  0.15903852689E+02 -0.71899082540E+01  0.21359978919E+02  0.00000000000E+00 0.  1.
</event>
<event>
12    1  0.1681255E-001  0.2096488E+03  0.7818608E-02  0.1143609E+00
         21   -1    0    0  501  502  0.00000000000E+00  0.00000000000E+00  0.35433853405E+02  0.35433853405E+02  0.00000000000E+00 0.  1.
         21   -1    0    0  502  503 -0.00000000000E+00 -0.00000000000E+00 -0.12989104075E+04  0.12989104075E+04  0.00000000000E+00 0. -1.
         -6    2    1    2    0  503  0.83888661963E+02  0.79751271530E+02 -0.83758506170E+03  0.86342421236E+03  0.17480006287E+03 0.  0.
        -24    2    3    3    0    0  0.63925946810E+02 -0.19766014577E+02 -0.38500267852E+03  0.39957606501E+03  0.83407117522E+02 0.  0.
          6    2    1    2  501    0 -0.83888661963E+02 -0.79751271530E+02 -0.42589149237E+03  0.47092004852E+03  0.16426976567E+03 0.  0.
         24    2    5    5    0    0 -0.80258719901E+02 -0.47291029268E+02 -0.41973883376E+03  0.43735237040E+03  0.80115564977E+02 0.  0.
          5    1    5    5  501    0 -0.36299420617E+01 -0.32460242262E+02 -0.61526586059E+01  0.33567678130E+02  0.47000000000E+01 0. -1.
        -11    1    6    6    0    0 -0.38682507846E+01 -0.26107825819E+02 -0.31464753845E+02  0.41068390127E+02  0.00000000000E+00 0.  1.
         12    1    6    6    0    0 -0.76390469117E+02 -0.21183203449E+02 -0.38827407992E+03  0.39628398027E+03  0.00000000000E+00 0. -1.
         -5    1    3    3    0  503  0.19962715153E+02  0.99517286107E+02 -0.45258238318E+03  0.46384814735E+03  0.47000000000E+01 0.  1.
         13    1    4    4    0    0  0.72657543205E+02 -0.74533353481E+01 -0.18339550808E+03  0.19740461792E+03  0.00000000000E+00 0. -1.
        -14    1    4    4    0    0 -0.87315963951E+01 -0.12312679229E+02 -0.20160717044E+03  0.20217144709E+03  0.00000000000E+00 0.  1.
</event>
<event>
12    1  0.1681255E-001  0.1988456E+03  0.7818608E-02  0.1150742E+00
         21   -1    0    0  503  502  0.00000000000E+00  0.00000000000E+00  0.23181148964E+03  0.23181148964E+03  0.00000000000E+00 0.  1.
         21   -1    0    0  501  503 -0.00000000000E+00 -0.00000000000E+00 -0.19473586483E+03  0.19473586483E+03  0.00000000000E+00 0.  1.
          6    2    1    2  501    0  0.92804484528E+02  0.36586883312E+02 -0.56760679087E+02  0.20667278824E+03  0.17187377441E+03 0.  0.
         24    2    3    3    0    0 -0.14851522836E+02 -0.10585087836E+02 -0.10502353259E+02  0.80272893097E+02  0.77464999368E+02 0.  0.
         -6    2    1    2    0  502 -0.92804484528E+02 -0.36586883312E+02  0.93836303898E+02  0.21987456623E+03  0.17201250119E+03 0.  0.
        -24    2    5    5    0    0  0.17441376476E+02 -0.32462531998E+02  0.50225415102E+02  0.10115152818E+03  0.79693297920E+02 0.  0.
          5    1    3    3  501    0  0.10765600736E+03  0.47171971148E+02 -0.46258325827E+02  0.12639989514E+03  0.47000000000E+01 0. -1.
        -13    1    4    4    0    0  0.25987482175E+02 -0.12782341245E+02  0.14448109927E+02  0.32364878464E+02  0.00000000000E+00 0.  1.
         14    1    4    4    0    0 -0.40839005011E+02  0.21972534096E+01 -0.24950463186E+02  0.47908014633E+02  0.00000000000E+00 0. -1.
         -5    1    5    5    0  502 -0.11024586100E+03 -0.41243513139E+01  0.43610888796E+02  0.11872303805E+03  0.47000000000E+01 0.  1.
         13    1    6    6    0    0 -0.18347276480E+02 -0.44399216204E+02  0.38741464627E+02  0.61715589888E+02  0.00000000000E+00 0. -1.
        -14    1    6    6    0    0  0.35788652956E+02  0.11936684206E+02  0.11483950476E+02  0.39435938290E+02  0.00000000000E+00 0.  1.
</event>
<event>
12    1  0.1681255E-001  0.2585029E+03  0.7818608E-02  0.1108146E+00
         21   -1    0    0  501  502  0.00000000000E+00  0.00000000000E+00  0.88541873292E+03  0.88541873292E+03  0.00000000000E+00 0.  1.
         21   -1    0    0  502  503 -0.00000000000E+00 -0.00000000000E+00 -0.14800291386E+03  0.14800291386E+03  0.00000000000E+00 0. -1.
         -6    2    1    2    0  503  0.99577947321E+02 -0.16505992776E+03  0.62686897662E+01  0.25792187726E+03  0.17124208289E+03 0.  0.
        -24    2    3    3    0    0  0.57605540474E+02 -0.23694055324E+02  0.30917210209E+02  0.10833701042E+03  0.83073626311E+02 0.  0.
          6    2    1    2  501    0 -0.99577947321E+02  0.16505992776E+03  0.73114712929E+03  0.77549976951E+03  0.17223013818E+03 0.  0.
         24    2    5    5    0    0  0.98812771028E+01  0.40244140350E+02  0.21691343121E+03  0.23511223372E+03  0.80678964637E+02 0.  0.
          5    1    5    5  501    0 -0.10945922442E+03  0.12481578741E+03  0.51423369808E+03  0.54038753580E+03  0.47000000000E+01 0. -1.
        -13    1    6    6    0    0  0.33670690978E+02  0.47468849911E+02  0.18887712990E+03  0.19764001959E+03  0.00000000000E+00 0.  1.
         14    1    6    6    0    0 -0.23789413876E+02 -0.72247095612E+01  0.28036301311E+02  0.37472214133E+02  0.00000000000E+00 0. -1.
         -5    1    3    3    0  503  0.41972406846E+02 -0.14136587244E+03 -0.24648520443E+02  0.14958486684E+03  0.47000000000E+01 0.  1.
         13    1    4    4    0    0  0.69733513496E+02 -0.79841122761E-01  0.29779058113E+01  0.69797114568E+02  0.00000000000E+00 0. -1.
        -14    1    4    4    0    0 -0.12127973021E+02 -0.23614214201E+02  0.27939304398E+02  0.38539895851E+02  0.00000000000E+00 0.  1.
</event>
<event>
12    1  0.1681255E-001  0.1913595E+03  0.7818608E-02  0.1158169E+00
         21   -1    0    0  503  502  0.00000000000E+00  0.00000000000E+00  0.89653969033E+03  0.89653969033E+03  0.00000000000E+00 0.  1.
         21   -1    0    0  501  503 -0.00000000000E+00 -0.00000000000E+00 -0.70975801378E+02  0.70975801378E+02  0.00000000000E+00 0.  1.
          6    2    1    2  501    0 -0.81037417408E+02  0.34351750916E+00  0.95589130174E+02  0.21390586943E+03  0.17335298712E+03 0.  0.
         24    2    3    3    0    0 -0.67664077207E+02  0.66025881767E+02  0.66910409385E+02  0.14084713807E+03  0.80144051618E+02 0.  0.
         -6    2    1    2    0  502  0.81037417408E+02 -0.34351750916E+00  0.72997475878E+03  0.75360962228E+03  0.16881093955E+03 0.  0.
        -24    2    5    5    0    0  0.10077364962E+03 -0.24392363417E+02  0.69382281649E+03  0.70568344173E+03  0.76476816014E+02 0.  0.
          5    1    3    3  501    0 -0.13373340201E+02 -0.65682364258E+02  0.28678720788E+02  0.73058731365E+02  0.47000000000E+01 0. -1.
        -13    1    4    4    0    0 -0.44963123039E+02  0.66514422981E+02  0.81062271486E+02  0.11409181722E+03  0.00000000000E+00 0.  1.
         14    1    4    4    0    0 -0.22700954168E+02 -0.48854121387E+00 -0.14151862101E+02  0.26755320846E+02  0.00000000000E+00 0. -1.
         -5    1    5    5    0  502 -0.19736232212E+02  0.24048845908E+02  0.36151942286E+02  0.47926180554E+02  0.47000000000E+01 0.  1.
         11    1    6    6    0    0  0.94715732584E+01  0.30420761366E+01  0.67357598338E+01  0.12013966362E+02  0.00000000000E+00 0. -1.
        -12    1    6    6    0    0  0.91302076362E+02 -0.27434439554E+02  0.68708705666E+03  0.69366947536E+03  0.00000000000E+00 0.  1.
</event>
<event>
12    1  0.1681255E-001  0.1750936E+03  0.7818608E-02  0.1173250E+00
         21   -1    0    0  501  502  0.00000000000E+00  0.00000000000E+00  0.69395619232E+02  0.69395619232E+02  0.00000000000E+00 0.  1.
         21   -1    0    0  502  503 -0.00000000000E+00 -0.00000000000E+00 -0.44725544081E+03  0.44725544081E+03  0.00000000000E+00 0.  1.
         -6    2    1    2    0  503 -0.23445843796E+02  0.21282764156E+02 -0.23174449578E+03  0.29045357081E+03  0.17220656731E+03 0.  0.
        -24    2    3    3    0    0 -0.44920082808E+02 -0.46822029790E+02 -0.13249583777E+03  0.16809429646E+03  0.80563199816E+02 0.  0.
          6    2    1    2  501    0  0.23445843796E+02 -0.21282764156E+02 -0.14611532579E+03  0.22619748923E+03  0.16974378358E+03 0.  0.
         24    2    5    5    0    0  0.40200721294E+02  0.46253489471E+02 -0.63551941499E+02  0.11812032282E+03  0.78473422982E+02 0.  0.
          5    1    5    5  501    0 -0.16754877498E+02 -0.67536253626E+02 -0.82563384294E+02  0.10807716641E+03  0.47000000000E+01 0. -1.
        -13    1    6    6    0    0  0.10651236785E+02 -0.20214735388E+02 -0.21883974322E+01  0.22953724211E+02  0.00000000000E+00 0.  1.
         14    1    6    6    0    0  0.29549484509E+02  0.66468224859E+02 -0.61363544067E+02  0.95166598610E+02  0.00000000000E+00 0. -1.
         -5    1    3    3    0  503  0.21474239012E+02  0.68104793946E+02 -0.99248658017E+02  0.12235927434E+03  0.47000000000E+01 0.  1.
         13    1    4    4    0    0 -0.66251172145E+02 -0.32529824538E+02 -0.75503220298E+02  0.10558476959E+03  0.00000000000E+00 0. -1.
        -14    1    4    4    0    0  0.21331089337E+02 -0.14292205253E+02 -0.56992617468E+02  0.62509526867E+02  0.00000000000E+00 0.  1.
</event>
<event>
12    1  0.1681255E-001  0.1796930E+03  0.7818608E-02  0.1168482E+00
         21   -1    0    0  501  502  0.00000000000E+00  0.00000000000E+00  0.64274586411E+02  0.64274586411E+02  0.00000000000E+00 0. -1.
         21   -1    0    0  502  503 -0.00000000000E+00 -0.00000000000E+00 -0.12098057172E+04  0.12098057172E+04  0.00000000000E+00 0. -1.
         -6    2    1    2    0  503 -0.30825691522E+02  0.39152735957E+02 -0.10624366770E+04  0.10775255251E+04  0.17264531391E+03 0.  0.
        -24    2    3    3    0    0 -0.17872979805E+02 -0.30952511060E+02 -0.32926699970E+03  0.34088288158E+03  0.80665237342E+02 0.  0.
          6    2    1    2  501    0  0.30825691522E+02 -0.39152735957E+02 -0.83094453735E+02  0.19655477855E+03  0.17101442261E+03 0.  0.
         24    2    5    5    0    0  0.33891489394E+01 -0.45830175899E+02  0.19066619806E+02  0.90458939707E+02  0.75547286044E+02 0.  0.
          5    1    5    5  501    0  0.27436542582E+02  0.66774399415E+01 -0.10216107354E+03  0.10609583884E+03  0.47000000000E+01 0. -1.
        -13    1    6    6    0    0 -0.31708179297E+02 -0.74285391651E+01 -0.53274055784E+01  0.32999592098E+02  0.00000000000E+00 0.  1.
         14    1    6    6    0    0  0.35097328236E+02 -0.38401636734E+02  0.24394025385E+02  0.57459347609E+02  0.00000000000E+00 0. -1.
         -5    1    3    3    0  503 -0.12952711717E+02  0.70105247017E+02 -0.73316967735E+03  0.73664264347E+03  0.47000000000E+01 0.  1.
         13    1    4    4    0    0 -0.14801156936E+02 -0.35225722776E+02 -0.33251201841E+03  0.33470011679E+03  0.00000000000E+00 0. -1.
        -14    1    4    4    0    0 -0.30718228689E+01  0.42732117166E+01  0.32450187060E+01  0.61827647953E+01  0.00000000000E+00 0.  1.
</event>
<event>
12    1  0.1681255E-001  0.2652504E+03  0.7818608E-02  0.1104684E+00
         21   -1    0    0  503  502  0.00000000000E+00  0.00000000000E+00  0.15895335333E+03  0.15895335333E+03  0.00000000000E+00 0. -1.
         21   -1    0    0  501  503 -0.00000000000E+00 -0.00000000000E+00 -0.47540789967E+03  0.47540789967E+03  0.00000000000E+00 0. -1.
          6    2    1    2  501    0  0.26045932388E+02 -0.19671001126E+03 -0.24917264283E+03  0.36071073104E+03  0.16926903566E+03 0.  0.
         24    2    3    3    0    0  0.39193848295E+01 -0.27380521177E+02 -0.46591691077E+02  0.95714141765E+02  0.78900929900E+02 0.  0.
         -6    2    1    2    0  502 -0.26045932388E+02  0.19671001126E+03 -0.67281903514E+02  0.27365052195E+03  0.17602424407E+03 0.  0.
        -24    2    5    5    0    0 -0.30553736986E+02  0.42816683444E+02  0.27216901337E+02  0.92941942280E+02  0.71628525682E+02 0.  0.
          5    1    3    3  501    0  0.22126547558E+02 -0.16932949008E+03 -0.20258095175E+03  0.26499658928E+03  0.47000000000E+01 0. -1.
        -11    1    4    4    0    0  0.30394230071E+02 -0.10326254307E+02  0.76442340252E+01  0.32998106968E+02  0.00000000000E+00 0.  1.
         12    1    4    4    0    0 -0.26474845241E+02 -0.17054266870E+02 -0.54235925102E+02  0.62716034797E+02  0.00000000000E+00 0. -1.
         -5    1    5    5    0  502  0.45078045987E+01  0.15389332781E+03 -0.94498804852E+02  0.18070857967E+03  0.47000000000E+01 0.  1.
         11    1    6    6    0    0 -0.18650846076E+02  0.62279273661E+02  0.26238269226E+02  0.70107123454E+02  0.00000000000E+00 0. -1.
        -12    1    6    6    0    0 -0.11902890911E+02 -0.19462590217E+02  0.97863211153E+00  0.22834818826E+02  0.00000000000E+00 0.  1.
</event>
<event>
12    1  0.1681255E-001  0.1997368E+03  0.7818608E-02  0.1150791E+00
         21   -1    0    0  503  502  0.00000000000E+00  0.00000000000E+00  0.33871757406E+02  0.33871757406E+02  0.00000000000E+00 0.  1.
         21   -1    0    0  501  503 -0.00000000000E+00 -0.00000000000E+00 -0.28950221488E+04  0.28950221488E+04  0.00000000000E+00 0. -1.
          6    2    1    2  501    0  0.27874627602E+02  0.70079883325E+02 -0.25602792324E+04  0.25677592453E+04  0.18074736285E+03 0.  0.
         24    2    3    3    0    0  0.49308523751E+02  0.53390811199E+02 -0.76949671315E+03  0.77676453336E+03  0.77175381453E+02 0.  0.
         -6    2    1    2    0  502 -0.27874627602E+02 -0.70079883325E+02 -0.30087115903E+03  0.36113466092E+03  0.18495027459E+03 0.  0.
        -24    2    5    5    0    0 -0.41413731782E+02  0.31854154658E+02 -0.12617156358E+03  0.15836411549E+03  0.80188186602E+02 0.  0.
          5    1    3    3  501    0 -0.21433896148E+02  0.16689072126E+02 -0.17907825192E+04  0.17909947119E+04  0.47000000000E+01 0. -1.
        -11    1    4    4    0    0  0.39578662889E+02 -0.10781950556E+02 -0.28324474439E+03  0.28619976631E+03  0.00000000000E+00 0.  1.
         12    1    4    4    0    0  0.97298608621E+01  0.64172761754E+02 -0.48625196876E+03  0.49056476705E+03  0.00000000000E+00 0. -1.
         -5    1    5    5    0  502  0.13539104179E+02 -0.10193403798E+03 -0.17469959545E+03  0.20277054543E+03  0.47000000000E+01 0.  1.
         13    1    6    6    0    0 -0.40991874212E+02  0.47683824091E+02 -0.49369089899E+02  0.79946156060E+02  0.00000000000E+00 0. -1.
        -14    1    6    6    0    0 -0.42185756981E+00 -0.15829669433E+02 -0.76802473679E+02  0.78417959431E+02  0.00000000000E+00 0.  1.
</event>
<event>
12    1  0.1681255E-001  0.1830014E+03  0.7818608E-02  0.1167595E+00
         21   -1    0    0  501  502  0.00000000000E+00  0.00000000000E+00  0.15403127513E+04  0.15403127513E+04  0.00000000000E+00 0. -1.
         21   -1    0    0  502  503 -0.00000000000E+00 -0.00000000000E+00 -0.20963751057E+02  0.20963751057E+02  0.00000000000E+00 0. -1.
         -6    2    1    2    0  503 -0.31225602616E+01 -0.44426030913E+01  0.61679310076E+03  0.64035485603E+03  0.17202071210E+03 0.  0.
        -24    2    3    3    0    0 -0.48290223207E+02  0.99281674723E+01  0.20450175095E+03  0.22532126227E+03  0.80735313968E+02 0.  0.
          6    2    1    2  501    0  0.31225602616E+01  0.44426030913E+01  0.90255589944E+03  0.92092164629E+03  0.18292085687E+03 0.  0.
         24    2    5    5    0    0 -0.12027105722E+02 -0.16907854250E+02  0.10922399923E+03  0.12714400217E+03  0.61686209743E+02 0.  0.
          5    1    5    5  501    0  0.15149665984E+02  0.21350457342E+02  0.79333190022E+03  0.79377764412E+03  0.47000000000E+01 0. -1.
        -11    1    6    6    0    0 -0.20878663873E+01 -0.31654619464E+02  0.23201356728E+02  0.39302379998E+02  0.00000000000E+00 0.  1.
         12    1    6    6    0    0 -0.99392393350E+01  0.14746765213E+02  0.86022642500E+02  0.87841622171E+02  0.00000000000E+00 0. -1.
         -5    1    3    3    0  503  0.45167662945E+02 -0.14370770564E+02  0.41229134981E+03  0.41503359376E+03  0.47000000000E+01 0.  1.
         13    1    4    4    0    0 -0.13102156152E+02  0.21732403891E+02  0.99444144497E+01  0.27255371093E+02  0.00000000000E+00 0. -1.
        -14    1    4    4    0    0 -0.35188067055E+02 -0.11804236418E+02  0.19455733650E+03  0.19806589118E+03  0.00000000000E+00 0.  1.
</event>
<event>
12    1  0.1681255E-001  0.1737565E+03  0.7818608E-02  0.1174013E+00
         21   -1    0    0  503  502  0.00000000000E+00  0.00000000000E+00  0.35136201213E+03  0.35136201213E+03  0.00000000000E+00 0. -1.
         21   -1    0    0  501  503 -0.00000000000E+00 -0.00000000000E+00 -0.40927883456E+03  0.40927883456E+03  0.00000000000E+00 0. -1.
          6    2    1    2  501    0  0.53542733201E+01 -0.15824754611E+02 -0.36703495967E+03  0.40608617516E+03  0.17295152193E+03 0.  0.
         24    2    3    3    0    0 -0.45440744837E+02  0.13705522820E+02 -0.31162466930E+03  0.32518771143E+03  0.79902506245E+02 0.  0.
         -6    2    1    2    0  502 -0.53542733201E+01  0.15824754611E+02  0.30911813725E+03  0.35455467153E+03  0.17284646721E+03 0.  0.
        -24    2    5    5    0    0  0.19120475449E+02  0.86771979463E+01  0.31556181796E+03  0.32783928430E+03  0.86362312558E+02 0.  0.
          5    1    3    3  501    0  0.50795018157E+02 -0.29530277431E+02 -0.55410290371E+02  0.80898463729E+02  0.47000000000E+01 0. -1.
        -11    1    4    4    0    0  0.83652377119E+01  0.32290381336E+02 -0.15474806118E+03  0.15830226899E+03  0.00000000000E+00 0.  1.
         12    1    4    4    0    0 -0.53805982549E+02 -0.18584858515E+02 -0.15687660812E+03  0.16688544244E+03  0.00000000000E+00 0. -1.
         -5    1    5    5    0  502 -0.24474748770E+02  0.71475566642E+01 -0.64436807142E+01  0.26715387228E+02  0.47000000000E+01 0.  1.
         13    1    6    6    0    0 -0.25090666424E+02  0.86457772593E+00  0.31643052517E+02  0.40392719750E+02  0.00000000000E+00 0. -1.
        -14    1    6    6    0    0  0.44211141873E+02  0.78126202204E+01  0.28391876544E+03  0.28744656455E+03  0.00000000000E+00 0.  1.
</event>
<event>
12    1  0.1681255E-001  0.1772405E+03  0.7818608E-02  0.1171049E+00
         21   -1    0    0  501  502  0.00000000000E+00  0.00000000000E+00  0.21286626251E+03  0.21286626251E+03  0.00000000000E+00 0. -1.
         21   -1    0    0  502  503 -0.00000000000E+00 -0.00000000000E+00 -0.22047927703E+03  0.22047927703E+03  0.00000000000E+00 0. -1.
         -6    2    1    2    0  503 -0.31736088096E+02 -0.21141553962E+02 -0.12993737808E+03  0.21799128326E+03  0.17082837224E+03 0.  0.
        -24    2    3    3    0    0 -0.46919723815E+02 -0.43224892883E+02 -0.15174999409E+03  0.18311870278E+03  0.80215626621E+02 0.  0.
          6    2    1    2  501    0  0.31736088096E+02  0.21141553962E+02  0.12232436357E+03  0.21535425628E+03  0.17308974893E+03 0.  0.
         24    2    5    5    0    0  0.31589910281E+02  0.29629744639E+02 -0.41279697206E+01  0.88530152329E+02  0.77101903598E+02 0.  0.
          5    1    5    5  501    0  0.14617781494E+00 -0.84881906774E+01  0.12645233329E+03  0.12682410395E+03  0.47000000000E+01 0. -1.
        -13    1    6    6    0    0 -0.16842984949E+02 -0.14467275516E+02  0.38879050085E+01  0.22541162530E+02  0.00000000000E+00 0.  1.
         14    1    6    6    0    0  0.48432895231E+02  0.44097020155E+02 -0.80158747291E+01  0.65988989799E+02  0.00000000000E+00 0. -1.
         -5    1    3    3    0  503  0.15183635719E+02  0.22083338921E+02  0.21812616012E+02  0.34872580472E+02  0.47000000000E+01 0.  1.
         13    1    4    4    0    0 -0.58972045870E+02 -0.91968397956E+01 -0.60490686373E+02  0.84978863220E+02  0.00000000000E+00 0. -1.
        -14    1    4    4    0    0  0.12052322056E+02 -0.34028053087E+02 -0.91259307722E+02  0.98139839564E+02  0.00000000000E+00 0.  1.
</event>
<event>
12    1  0.1681255E-001  0.2120455E+03  0.7818608E-02  0.1140688E+00
         21   -1    0    0  503  502  0.00000000000E+00  0.00000000000E+00  0.20048395672E+04  0.20048395672E+04  0.00000000000E+00 0.  1.
         21   -1    0    0  501  503 -0.00000000000E+00 -0.00000000000E+00 -0.29162390804E+02  0.29162390804E+02  0.00000000000E+00 0.  1.
          6    2    1    2  501    0  0.11821189565E+03 -0.23227681724E+02  0.49172750123E+03  0.53549903977E+03  0.17449844887E+03 0.  0.
         24    2    3    3    0    0  0.15384803415E+03 -0.19131328833E+02  0.37993106674E+03  0.41799479628E+03  0.79604075833E+02 0.  0.
         -6    2    1    2    0  502 -0.11821189565E+03  0.23227681724E+02  0.14839496752E+04  0.14985029183E+04  0.16997288035E+03 0.  0.
        -24    2    5    5    0    0  0.83211004443E+01  0.11733680682E+01  0.59602717758E+03  0.60132654562E+03  0.79212376243E+02 0.  0.
          5    1    3    3  501    0 -0.35636138496E+02 -0.40963528911E+01  0.11179643449E+03  0.11750424349E+03  0.47000000000E+01 0. -1.
        -13    1    4    4    0    0  0.10780177034E+03 -0.45003640260E+02  0.30243104213E+03  0.32420839682E+03  0.00000000000E+00 0.  1.
         14    1    4    4    0    0  0.46046263805E+02  0.25872311427E+02  0.77500024613E+02  0.93786399462E+02  0.00000000000E+00 0. -1.
         -5    1    5    5    0  502 -0.12653299609E+03  0.22054313656E+02  0.88792249761E+03  0.89717637263E+03  0.47000000000E+01 0.  1.
         13    1    6    6    0    0  0.28078367656E+02  0.48594216332E+01  0.80270351370E+02  0.85178271982E+02  0.00000000000E+00 0. -1.
        -14    1    6    6    0    0 -0.19757267212E+02 -0.36860535651E+01  0.51575682621E+03  0.51614827364E+03  0.00000000000E+00 0.  1.
</event>
<event>
12    1  0.1681255E-001  0.2014419E+03  0.7818608E-02  0.1148803E+00
         21   -1    0    0  501  502  0.00000000000E+00  0.00000000000E+00  0.83117234868E+02  0.83117234868E+02  0.00000000000E+00 0. -1.
         21   -1    0    0  502  503 -0.00000000000E+00 -0.00000000000E+00 -0.57156444627E+03  0.57156444627E+03  0.00000000000E+00 0. -1.
         -6    2    1    2    0  503  0.34073444030E+02  0.97985152781E+02 -0.37225684038E+03  0.42326586914E+03  0.17267527620E+03 0.  0.
        -24    2    3    3    0    0  0.35915344534E+02  0.96468124356E+02 -0.13867943576E+03  0.18962899721E+03  0.78301722148E+02 0.  0.
          6    2    1    2  501    0 -0.34073444030E+02 -0.97985152781E+02 -0.11619037102E+03  0.23141581200E+03  0.17114609541E+03 0.  0.
         24    2    5    5    0    0 -0.69932425594E+02 -0.12684575370E+02 -0.78559009658E+02  0.13141448990E+03  0.77761221404E+02 0.  0.
          5    1    5    5  501    0  0.35858981564E+02 -0.85300577410E+02 -0.37631361364E+02  0.10000132211E+03  0.47000000000E+01 0. -1.
        -11    1    6    6    0    0  0.14433991884E+02  0.10385380932E+02 -0.15497296176E+02  0.23587336594E+02  0.00000000000E+00 0.  1.
         12    1    6    6    0    0 -0.84366417478E+02 -0.23069956302E+02 -0.63061713482E+02  0.10782715330E+03  0.00000000000E+00 0. -1.
         -5    1    3    3    0  503 -0.18419005041E+01  0.15170284251E+01 -0.23357740462E+03  0.23363687192E+03  0.47000000000E+01 0.  1.
         11    1    4    4    0    0  0.34205461519E+02  0.37460663934E+01 -0.54089148830E+02  0.64106806443E+02  0.00000000000E+00 0. -1.
        -12    1    4    4    0    0  0.17098830151E+01  0.92722057962E+02 -0.84590286930E+02  0.12552219077E+03  0.00000000000E+00 0.  1.
</event>
<event>
12    1  0.1681255E-001  0.1859551E+03  0.7818608E-02  0.1162244E+00
         21   -1    0    0  501  502  0.00000000000E+00  0.00000000000E+00  0.43543272074E+03  0.43543272074E+03  0.00000000000E+00 0.  1.
         21   -1    0    0  502  503 -0.00000000000E+00 -0.00000000000E+00 -0.84450667866E+02  0.84450667866E+02  0.00000000000E+00 0.  1.
         -6    2    1    2    0  503  0.54667158312E+02  0.42529256524E+02  0.11121566777E+03  0.21667537540E+03  0.17257478868E+03 0.  0.
        -24    2    3    3    0    0 -0.30463356306E+02  0.17268249361E+02  0.76413203790E+02  0.12118388624E+03  0.87294604974E+02 0.  0.
          6    2    1    2  501    0 -0.54667158312E+02 -0.42529256524E+02  0.23976638510E+03  0.30320801321E+03  0.17219159094E+03 0.  0.
         24    2    5    5    0    0  0.81482044699E+01 -0.18955943524E+00  0.20636609858E+03  0.22028582746E+03  0.76631912176E+02 0.  0.
          5    1    5    5  501    0 -0.62815362782E+02 -0.42339697088E+02  0.33400286519E+02  0.82922185755E+02  0.47000000000E+01 0. -1.
        -11    1    6    6    0    0 -0.26167484777E+02 -0.20935497755E+02  0.62276406904E+02  0.70720458021E+02  0.00000000000E+00 0.  1.
         12    1    6    6    0    0  0.34315689247E+02  0.20745938320E+02  0.14408969168E+03  0.14956536943E+03  0.00000000000E+00 0. -1.
         -5    1    3    3    0  503  0.85130514618E+02  0.25261007163E+02  0.34802463983E+02  0.95491489156E+02  0.47000000000E+01 0.  1.
         11    1    4    4    0    0  0.89260908333E-01 -0.32941978629E+02  0.15062130414E+02  0.36222226548E+02  0.00000000000E+00 0. -1.
        -12    1    4    4    0    0 -0.30552617214E+02  0.50210227989E+02  0.61351073377E+02  0.84961659693E+02  0.00000000000E+00 0.  1.
</event>
<event>
12    1  0.1681255E-001  0.1996391E+03  0.7818608E-02  0.1150574E+00
         21   -1    0    0  501  502  0.00000000000E+00  0.00000000000E+00  0.36767273743E+03  0.36767273743E+03  0.00000000000E+00 0.  1.
         21   -1    0    0  502  503 -0.00000000000E+00 -0.00000000000E+00 -0.10722526754E+03  0.10722526754E+03  0.00000000000E+00 0.  1.
         -6    2    1    2    0  503  0.95321358714E+02 -0.30572969234E+02  0.12149105844E+03  0.23370032798E+03  0.17272781520E+03 0.  0.
        -24    2    3    3    0    0 -0.10491054198E+02  0.17646375393E+02  0.41885086283E+02  0.92701843149E+02  0.80111263176E+02 0.  0.
          6    2    1    2  501    0 -0.95321358714E+02  0.30572969234E+02  0.13895641145E+03  0.24119767699E+03  0.16984277207E+03 0.  0.
         24    2    5    5    0    0 -0.28058684793E+02  0.43938431453E+02  0.11399991634E+02  0.96298977476E+02  0.80160200242E+02 0.  0.
          5    1    5    5  501    0 -0.67262673921E+02 -0.13365462219E+02  0.12755641982E+03  0.14489869951E+03  0.47000000000E+01 0. -1.
        -11    1    6    6    0    0 -0.50979799129E+02  0.30584343443E+02  0.27248879419E+02  0.65397579563E+02  0.00000000000E+00 0.  1.
         12    1    6    6    0    0  0.22921114336E+02  0.13354088009E+02 -0.15848887785E+02  0.30901397913E+02  0.00000000000E+00 0. -1.
         -5    1    3    3    0  503  0.10581241291E+03 -0.48219344626E+02  0.79605972156E+02  0.14099848483E+03  0.47000000000E+01 0.  1.
         13    1    4    4    0    0  0.29146641096E+02  0.28509045681E+02  0.27408557843E+02  0.49127603400E+02  0.00000000000E+00 0. -1.
        -14    1    4    4    0    0 -0.39637695294E+02 -0.10862670288E+02  0.14476528440E+02  0.43574239749E+02  0.00000000000E+00 0.  1.
</event>
<event>
12    1  0.1681255E-001  0.1915151E+03  0.7818608E-02  0.1157718E+00
         21   -1    0    0  501  502  0.00000000000E+00  0.00000000000E+00  0.70512863936E+02  0.70512863936E+02  0.00000000000E+00 0.  1.
         21   -1    0    0  502  503 -0.00000000000E+00 -0.00000000000E+00 -0.71393494130E+03  0.71393494130E+03  0.00000000000E+00 0.  1.
         -6    2    1    2    0  503  0.69242183934E+02  0.37091502577E+02 -0.53158114475E+03  0.56502793365E+03  0.17466480112E+03 0.  0.
        -24    2    3    3    0    0  0.78996807843E+02 -0.34252518279E+02 -0.27687703078E+03  0.30029902009E+03  0.78133735586E+02 0.  0.
          6    2    1    2  501    0 -0.69242183934E+02 -0.37091502577E+02 -0.11184093262E+03  0.21941987159E+03  0.17165787556E+03 0.  0.
         24    2    5    5    0    0 -0.79041255373E+02 -0.51513632320E+02 -0.13886366774E+03  0.18691852022E+03  0.82184187133E+02 0.  0.
          5    1    5    5  501    0  0.97990714391E+01  0.14422129743E+02  0.27022735127E+02  0.32501351375E+02  0.47000000000E+01 0. -1.
        -13    1    6    6    0    0 -0.25673365539E+02 -0.35259003227E+01 -0.10390355336E+03  0.10708642338E+03  0.00000000000E+00 0.  1.
         14    1    6    6    0    0 -0.53367889834E+02 -0.47987731998E+02 -0.34960114382E+02  0.79832096836E+02  0.00000000000E+00 0. -1.
         -5    1    3    3    0  503 -0.97546239082E+01  0.71344020856E+02 -0.25470411397E+03  0.26472891356E+03  0.47000000000E+01 0.  1.
         11    1    4    4    0    0  0.87880021619E+01  0.43797351836E+01  0.20997424150E+01  0.10040915321E+02  0.00000000000E+00 0. -1.
        -12    1    4    4    0    0  0.70208805681E+02 -0.38632253463E+02 -0.27897677319E+03  0.29025810477E+03  0.00000000000E+00 0.  1.
</event>
<event>
12    1  0.1681255E-001  0.1734842E+03  0.7818608E-02  0.1174589E+00
         21   -1    0    0  501  502  0.00000000000E+00  0.00000000000E+00  0.11712241814E+03  0.11712241814E+03  0.00000000000E+00 0. -1.
         21   -1    0    0  502  503 -0.00000000000E+00 -0.00000000000E+00 -0.36699345144E+03  0.36699345144E+03  0.00000000000E+00 0. -1.
         -6    2    1    2    0  503  0.16063721705E+02 -0.10358776025E+02  0.84145680591E+01  0.17368810178E+03  0.17242796858E+03 0.  0.
        -24    2    3    3    0    0  0.58079756898E+02  0.13547740593E+02 -0.36067695956E+02  0.10782741121E+03  0.82274373174E+02 0.  0.
          6    2    1    2  501    0 -0.16063721705E+02  0.10358776025E+02 -0.25828560136E+03  0.31042776780E+03  0.17113912396E+03 0.  0.
         24    2    5    5    0    0 -0.70247677192E+02 -0.21142127999E+02 -0.15692373674E+03  0.19116115224E+03  0.80844302494E+02 0.  0.
          5    1    5    5  501    0  0.54183955487E+02  0.31500904024E+02 -0.10136186463E+03  0.11926661556E+03  0.47000000000E+01 0. -1.
        -11    1    6    6    0    0 -0.35949566477E+02  0.30046752312E+02 -0.57228843399E+02  0.73961606061E+02  0.00000000000E+00 0.  1.
         12    1    6    6    0    0 -0.34298110715E+02 -0.51188880311E+02 -0.99694893338E+02  0.11719954618E+03  0.00000000000E+00 0. -1.
         -5    1    3    3    0  503 -0.42016035193E+02 -0.23906516617E+02  0.44482264015E+02  0.65860690567E+02  0.47000000000E+01 0.  1.
         11    1    4    4    0    0  0.20937421551E+02  0.35662484476E+02  0.12118196756E+02  0.43093376670E+02  0.00000000000E+00 0. -1.
        -12    1    4    4    0    0  0.37142335347E+02 -0.22114743883E+02 -0.48185892712E+02  0.64734034545E+02  0.00000000000E+00 0.  1.
</event>
<event>
12    1  0.1681255E-001  0.1732166E+03  0.7818608E-02  0.1174691E+00
         21   -1    0    0  503  502  0.00000000000E+00  0.00000000000E+00  0.10653464816E+03  0.10653464816E+03  0.00000000000E+00 0.  1.
         21   -1    0    0  501  503 -0.00000000000E+00 -0.00000000000E+00 -0.34316703885E+03  0.34316703885E+03  0.00000000000E+00 0.  1.
          6    2    1    2  501    0 -0.17790742604E+02  0.23112584737E+02 -0.21446828102E+03  0.27568214884E+03  0.17074337917E+03 0.  0.
         24    2    3    3    0    0 -0.23379335487E+02  0.77507289893E+01 -0.28324762807E+02  0.88763133338E+02  0.80435903204E+02 0.  0.
         -6    2    1    2    0  502  0.17790742604E+02 -0.23112584737E+02 -0.22164109664E+02  0.17401953817E+03  0.17012010408E+03 0.  0.
        -24    2    5    5    0    0  0.41844851235E+02 -0.38826803647E+02 -0.68833364305E+02  0.11901366442E+03  0.78534756771E+02 0.  0.
          5    1    3    3  501    0  0.55885928838E+01  0.15361855747E+02 -0.18614351822E+03  0.18691901550E+03  0.47000000000E+01 0. -1.
        -13    1    4    4    0    0  0.74838591089E+01 -0.31177183956E+02 -0.21533923517E+02  0.38622982907E+02  0.00000000000E+00 0.  1.
         14    1    4    4    0    0 -0.30863194596E+02  0.38927912945E+02 -0.67908392892E+01  0.50140150431E+02  0.00000000000E+00 0. -1.
         -5    1    5    5    0  502 -0.24054108631E+02  0.15714218910E+02  0.46669254640E+02  0.55005873747E+02  0.47000000000E+01 0.  1.
         13    1    6    6    0    0  0.28312037714E+02 -0.52232954661E+02 -0.77856172375E+02  0.97935880090E+02  0.00000000000E+00 0. -1.
        -14    1    6    6    0    0  0.13532813521E+02  0.13406151015E+02  0.90228080703E+01  0.21077784331E+02  0.00000000000E+00 0.  1.
</event>
<event>
12    1  0.1681255E-001  0.1812783E+03  0.7818608E-02  0.1166870E+00
         21   -1    0    0  503  502  0.00000000000E+00  0.00000000000E+00  0.71723091616E+02  0.71723091616E+02  0.00000000000E+00 0. -1.
         21   -1    0    0  501  503 -0.00000000000E+00 -0.00000000000E+00 -0.67564441928E+03  0.67564441928E+03  0.00000000000E+00 0. -1.
          6    2    1    2  501    0  0.30141520035E+02 -0.48807620160E+02 -0.51618113423E+03  0.54708755299E+03  0.17196258977E+03 0.  0.
         24    2    3    3    0    0  0.50554564635E+02 -0.35330217904E+02 -0.51201442205E+03  0.52183316224E+03  0.79668642038E+02 0.  0.
         -6    2    1    2    0  502 -0.30141520035E+02  0.48807620160E+02 -0.87740193428E+02  0.20027995791E+03  0.17065469516E+03 0.  0.
        -24    2    5    5    0    0 -0.34292591448E+01 -0.35935736544E+02 -0.24844072776E+02  0.91316691709E+02  0.80114750535E+02 0.  0.
          5    1    3    3  501    0 -0.20413044600E+02 -0.13477402256E+02 -0.41667121804E+01  0.25254390744E+02  0.47000000000E+01 0. -1.
        -13    1    4    4    0    0  0.12188463344E+01  0.43170291856E+00  0.29789566576E+01  0.32474815726E+01  0.00000000000E+00 0.  1.
         14    1    4    4    0    0  0.49335718301E+02 -0.35761920823E+02 -0.51499337871E+03  0.51858568067E+03  0.00000000000E+00 0. -1.
         -5    1    5    5    0  502 -0.26712260890E+02  0.84743356705E+02 -0.62896120652E+02  0.10896326620E+03  0.47000000000E+01 0.  1.
         13    1    6    6    0    0 -0.11369291416E+02 -0.45774309226E+02 -0.46504779574E+02  0.66236264203E+02  0.00000000000E+00 0. -1.
        -14    1    6    6    0    0  0.79400322714E+01  0.98385726820E+01  0.21660706798E+02  0.25080427505E+02  0.00000000000E+00 0.  1.
</event>
<event>
12    1  0.1681255E-001  0.1856389E+03  0.7818608E-02  0.1163676E+00
         21   -1    0    0  501  502  0.00000000000E+00  0.00000000000E+00  0.11681400024E+03  0.11681400024E+03  0.00000000000E+00 0.  1.
         21   -1    0    0  502  503 -0.00000000000E+00 -0.00000000000E+00 -0.28808656064E+03  0.28808656064E+03  0.00000000000E+00 0.  1.
         -6    2    1    2    0  503 -0.21326387910E+02 -0.65727303389E+02 -0.10013753276E+03  0.21092496436E+03  0.17229893178E+03 0.  0.
        -24    2    3    3    0    0 -0.77935270117E+00 -0.97552706711E+02 -0.28882980522E+02  0.13008971112E+03  0.81067677886E+02 0.  0.
          6    2    1    2  501    0  0.21326387910E+02  0.65727303389E+02 -0.71135027646E+02  0.19397559652E+03  0.16670766825E+03 0.  0.
         24    2    5    5    0    0 -0.30611918568E+02  0.74357955430E+01  0.28025081305E+01  0.86345039686E+02  0.80344453529E+02 0.  0.
          5    1    5    5  501    0  0.51938306478E+02  0.58291507846E+02 -0.73937535777E+02  0.10763055683E+03  0.47000000000E+01 0. -1.
        -11    1    6    6    0    0 -0.27393299558E+01  0.41856536946E+02  0.30085172098E+01  0.42053832044E+02  0.00000000000E+00 0.  1.
         12    1    6    6    0    0 -0.27872588612E+02 -0.34420741403E+02 -0.20600907929E+00  0.44291207642E+02  0.00000000000E+00 0. -1.
         -5    1    3    3    0  503 -0.20547035209E+02  0.31825403322E+02 -0.71254552239E+02  0.80835253246E+02  0.47000000000E+01 0.  1.
         13    1    4    4    0    0 -0.24643734648E+02 -0.39525471621E+02  0.19862242550E+02  0.50636797326E+02  0.00000000000E+00 0. -1.
        -14    1    4    4    0    0  0.23864381947E+02 -0.58027235089E+02 -0.48745223072E+02  0.79452913793E+02  0.00000000000E+00 0.  1.
</event>
<event>
12    1  0.1681255E-001  0.2084505E+03  0.7818608E-02  0.1142850E+00
         21   -1    0    0  503  502  0.00000000000E+00  0.00000000000E+00  0.13153539128E+03  0.13153539128E+03  0.00000000000E+00 0.  1.
         21   -1    0    0  501  503 -0.00000000000E+00 -0.00000000000E+00 -0.37230968883E+03  0.37230968883E+03  0.00000000000E+00 0.  1.
          6    2    1    2  501    0  0.65426188779E+02 -0.98067248608E+02 -0.20530814009E+03  0.29239899303E+03  0.17160410050E+03 0.  0.
         24    2    3    3    0    0 -0.73494452873E+01 -0.98430516680E+02 -0.89093755873E+02  0.15519732403E+03  0.80037060726E+02 0.  0.
         -6    2    1    2    0  502 -0.65426188779E+02  0.98067248608E+02 -0.35466157467E+02  0.21144608709E+03  0.17191226830E+03 0.  0.
        -24    2    5    5    0    0 -0.10893230351E+03  0.65664831290E+02 -0.43364859106E+02  0.15642628924E+03  0.80065948726E+02 0.  0.
          5    1    3    3  501    0  0.72775634066E+02  0.36326807222E+00 -0.11621438421E+03  0.13720166900E+03  0.47000000000E+01 0. -1.
        -11    1    4    4    0    0  0.30130407896E+02 -0.11325492785E+02 -0.20493222182E+02  0.38158621859E+02  0.00000000000E+00 0.  1.
         12    1    4    4    0    0 -0.37479853183E+02 -0.87105023895E+02 -0.68600533691E+02  0.11703870217E+03  0.00000000000E+00 0. -1.
         -5    1    5    5    0  502  0.43506114730E+02  0.32402417318E+02  0.78987016392E+01  0.55019797841E+02  0.47000000000E+01 0.  1.
         11    1    6    6    0    0 -0.32387790954E+01 -0.10505351279E+02 -0.21742454533E+02  0.24363629136E+02  0.00000000000E+00 0. -1.
        -12    1    6    6    0    0 -0.10569352441E+03  0.76170182569E+02 -0.21622404573E+02  0.13206266011E+03  0.00000000000E+00 0.  1.
</event>
<event>
12    1  0.1681255E-001  0.1906371E+03  0.7818608E-02  0.1159126E+00
         21   -1    0    0  501  502  0.00000000000E+00  0.00000000000E+00  0.32753344073E+02  0.32753344073E+02  0.00000000000E+00 0.  1.
         21   -1    0    0  502  503 -0.00000000000E+00 -0.00000000000E+00 -0.11624546669E+04  0.11624546669E+04  0.00000000000E+00 0.  1.
         -6    2    1    2    0  503 -0.44220629795E+02 -0.66721364659E+02 -0.71815844412E+03  0.74165532042E+03  0.16701454681E+03 0.  0.
        -24    2    3    3    0    0 -0.10614038256E+02 -0.15918581381E+02 -0.15994787941E+03  0.18011151061E+03  0.80565334266E+02 0.  0.
          6    2    1    2  501    0  0.44220629795E+02  0.66721364659E+02 -0.41154287866E+03  0.45355269051E+03  0.17301819987E+03 0.  0.
         24    2    5    5    0    0  0.35512622136E+02 -0.43950388326E+01 -0.96095586016E+02  0.13003691550E+03  0.79967337348E+02 0.  0.
          5    1    5    5  501    0  0.87080076591E+01  0.71116403491E+02 -0.31544729265E+03  0.32351577501E+03  0.47000000000E+01 0. -1.
        -13    1    6    6    0    0  0.13802173066E+02  0.35143937197E+02 -0.23204050185E+02  0.44317313186E+02  0.00000000000E+00 0.  1.
         14    1    6    6    0    0  0.21710449070E+02 -0.39538976030E+02 -0.72891535831E+02  0.85719602309E+02  0.00000000000E+00 0. -1.
         -5    1    3    3    0  503 -0.33606591539E+02 -0.50802783278E+02 -0.55821056471E+03  0.56154380981E+03  0.47000000000E+01 0.  1.
         11    1    4    4    0    0  0.13136589742E+01 -0.32910906963E+02 -0.19791753007E+02  0.38426123720E+02  0.00000000000E+00 0. -1.
        -12    1    4    4    0    0 -0.11927697230E+02  0.16992325583E+02 -0.14015612641E+03  0.14168538689E+03  0.00000000000E+00 0.  1.
</event>
<event>
12    1  0.1681255E-001  0.1891107E+03  0.7818608E-02  0.1159640E+00
         21   -1    0    0  501  502  0.00000000000E+00  0.00000000000E+00  0.10089520657E+04  0.10089520657E+04  0.00000000000E+00 0. -1.
         21   -1    0    0  502  503 -0.00000000000E+00 -0.00000000000E+00 -0.35906448265E+02  0.35906448265E+02  0.00000000000E+00 0. -1.
         -6    2    1    2    0  503 -0.74940704524E+02  0.13838668703E+02  0.40806944801E+03  0.44907255104E+03  0.17128299316E+03 0.  0.
        -24    2    3    3    0    0  0.13807019734E+02  0.31488742280E+02  0.26586801727E+03  0.28045754411E+03  0.82392091560E+02 0.  0.
          6    2    1    2  501    0  0.74940704524E+02 -0.13838668703E+02  0.56497616939E+03  0.59578596289E+03  0.17307577433E+03 0.  0.
         24    2    5    5    0    0  0.46490280371E+02  0.54936252782E+02  0.25247739144E+03  0.27451194795E+03  0.80203730212E+02 0.  0.
          5    1    5    5  501    0  0.28450424153E+02 -0.68774921484E+02  0.31249877795E+03  0.32127401495E+03  0.47000000000E+01 0. -1.
        -13    1    6    6    0    0 -0.11563579812E+02  0.41550638024E+02  0.14892162693E+03  0.15504135856E+03  0.00000000000E+00 0.  1.
         14    1    6    6    0    0  0.58053860183E+02  0.13385614758E+02  0.10355576451E+03  0.11947058939E+03  0.00000000000E+00 0. -1.
         -5    1    3    3    0  503 -0.88747724258E+02 -0.17650073577E+02  0.14220143074E+03  0.16861500693E+03  0.47000000000E+01 0.  1.
         11    1    4    4    0    0 -0.25750270542E+02  0.36433797300E+02  0.18491482104E+03  0.19022089543E+03  0.00000000000E+00 0. -1.
        -12    1    4    4    0    0  0.39557290276E+02 -0.49450550204E+01  0.80953196236E+02  0.90236648674E+02  0.00000000000E+00 0.  1.
</event>
<event>
12    1  0.1681255E-001  0.1814725E+03  0.7818608E-02  0.1166419E+00
         21   -1    0    0  503  502  0.00000000000E+00  0.00000000000E+00  0.11413840116E+04  0.11413840116E+04  0.00000000000E+00 0.  1.
         21   -1    0    0  501  503 -0.00000000000E+00 -0.00000000000E+00 -0.44284692854E+02  0.44284692854E+02  0.00000000000E+00 0.  1.
          6    2    1    2  501    0 -0.52840702848E+02  0.19763505616E+02  0.19820487372E+03  0.26863899267E+03  0.17233397919E+03 0.  0.
         24    2    3    3    0    0 -0.87511271788E+02  0.54659459818E+02  0.14349710587E+03  0.19491785708E+03  0.82192897351E+02 0.  0.
         -6    2    1    2    0  502  0.52840702848E+02 -0.19763505616E+02  0.89889444506E+03  0.91702971182E+03  0.17248052925E+03 0.  0.
        -24    2    5    5    0    0  0.94224037440E+02  0.19333761722E+02  0.54346123472E+03  0.55703522060E+03  0.75406629508E+02 0.  0.
          5    1    3    3  501    0  0.34670568940E+02 -0.34895954202E+02  0.54707767846E+02  0.73721135592E+02  0.47000000000E+01 0. -1.
        -11    1    4    4    0    0 -0.92198372613E+02  0.18035366698E+02  0.91470338811E+02  0.13112069725E+03  0.00000000000E+00 0.  1.
         12    1    4    4    0    0  0.46871008258E+01  0.36624093120E+02  0.52026767063E+02  0.63797159828E+02  0.00000000000E+00 0. -1.
         -5    1    5    5    0  502 -0.41383334593E+02 -0.39097267339E+02  0.35543321034E+03  0.35999449122E+03  0.47000000000E+01 0.  1.
         13    1    6    6    0    0  0.59342223982E+02 -0.14560405912E+02  0.17463448979E+03  0.18501543177E+03  0.00000000000E+00 0. -1.
        -14    1    6    6    0    0  0.34881813459E+02  0.33894167634E+02  0.36882674493E+03  0.37201978883E+03  0.00000000000E+00 0.  1.
</event>
<event>
12    1  0.1681255E-001  0.1962463E+03  0.7818608E-02  0.1154166E+00
         21   -1    0    0  501  502  0.00000000000E+00  0.00000000000E+00  0.45785429545E+03  0.45785429545E+03  0.00000000000E+00 0.  1.
         21   -1    0    0  502  503 -0.00000000000E+00 -0.00000000000E+00 -0.82513400265E+02  0.82513400265E+02  0.00000000000E+00 0.  1.
         -6    2    1    2    0  503 -0.47660761647E+02  0.81590370364E+02  0.15900621416E+03  0.24828330040E+03  0.16562935845E+03 0.  0.
        -24    2    3    3    0    0 -0.46055015788E+02  0.66328158078E+02  0.29147667778E+02  0.11743665118E+03  0.80132961200E+02 0.  0.
          6    2    1    2  501    0  0.47660761647E+02 -0.81590370364E+02  0.21633468103E+03  0.29208439532E+03  0.17200018324E+03 0.  0.
         24    2    5    5    0    0 -0.86140760075E+01 -0.19002676298E+02  0.28345012171E+02  0.86059439549E+02  0.78533326738E+02 0.  0.
          5    1    5    5  501    0  0.56274837654E+02 -0.62587694066E+02  0.18798966886E+03  0.20602495577E+03  0.47000000000E+01 0. -1.
        -11    1    6    6    0    0  0.29458329194E+01  0.10005339244E+02  0.48027795846E+02  0.49147267664E+02  0.00000000000E+00 0.  1.
         12    1    6    6    0    0 -0.11559908927E+02 -0.29008015541E+02 -0.19682783676E+02  0.36912171885E+02  0.00000000000E+00 0. -1.
         -5    1    3    3    0  503 -0.16057458590E+01  0.15262212286E+02  0.12985854638E+03  0.13084664922E+03  0.47000000000E+01 0.  1.
         11    1    4    4    0    0  0.10657720421E+02  0.53385980062E+02  0.57707126363E+01  0.54744415205E+02  0.00000000000E+00 0. -1.
        -12    1    4    4    0    0 -0.56712736209E+02  0.12942178016E+02  0.23376955142E+02  0.62692235977E+02  0.00000000000E+00 0.  1.
</event>
<event>
12    1  0.1681255E-001  0.1792590E+03  0.7818608E-02  0.1169147E+00
         21   -1    0    0  501  502  0.00000000000E+00  0.00000000000E+00  0.13176124344E+03  0.13176124344E+03  0.00000000000E+00 0.  1.
         21   -1    0    0  502  503 -0.00000000000E+00 -0.00000000000E+00 -0.35289747986E+03  0.35289747986E+03  0.00000000000E+00 0.  1.
         -6    2    1    2    0  503 -0.39844365891E+02  0.28193860983E+02 -0.24791065862E+03  0.30593052470E+03  0.17248572113E+03 0.  0.
        -24    2    3    3    0    0 -0.66169728832E+02 -0.25159729453E+02 -0.21032660831E+03  0.23540194053E+03  0.78519720110E+02 0.  0.
          6    2    1    2  501    0  0.39844365891E+02 -0.28193860983E+02  0.26774422197E+02  0.17872819860E+03  0.16983648606E+03 0.  0.
         24    2    5    5    0    0 -0.49425434345E+01 -0.80041175091E+01  0.75483661517E+02  0.10938720795E+03  0.78608418598E+02 0.  0.
          5    1    5    5  501    0  0.44786909326E+02 -0.20189743474E+02 -0.48709239320E+02  0.69340990645E+02  0.47000000000E+01 0. -1.
        -13    1    6    6    0    0  0.28865959772E+02 -0.27510416952E+02  0.33701263159E+02  0.52209595027E+02  0.00000000000E+00 0.  1.
         14    1    6    6    0    0 -0.33808503206E+02  0.19506299443E+02  0.41782398358E+02  0.57177612923E+02  0.00000000000E+00 0. -1.
         -5    1    3    3    0  503  0.26325362940E+02  0.53353590436E+02 -0.37584050318E+02  0.70528584167E+02  0.47000000000E+01 0.  1.
         11    1    4    4    0    0 -0.24107068423E+02  0.25989117252E+02 -0.44858101341E+02  0.57173719657E+02  0.00000000000E+00 0. -1.
        -12    1    4    4    0    0 -0.42062660408E+02 -0.51148846705E+02 -0.16546850696E+03  0.17822822088E+03  0.00000000000E+00 0.  1.
</event>
<event>
12    1  0.1681255E-001  0.1845569E+03  0.7818608E-02  0.1164130E+00
         21   -1    0    0  501  502  0.00000000000E+00  0.00000000000E+00  0.22828993265E+03  0.22828993265E+03  0.00000000000E+00 0. -1.
         21   -1    0    0  502  503 -0.00000000000E+00 -0.00000000000E+00 -0.66653013983E+03  0.66653013983E+03  0.00000000000E+00 0. -1.
         -6    2    1    2    0  503 -0.41733275605E+01 -0.60518543704E+02 -0.61377553840E+03  0.64011648207E+03  0.17131488052E+03 0.  0.
        -24    2    3    3    0    0  0.48319488736E+02  0.63791984298E+01 -0.35517628621E+03  0.36785472035E+03  0.82410156111E+02 0.  0.
          6    2    1    2  501    0  0.41733275605E+01  0.60518543704E+02  0.17553533122E+03  0.25470359041E+03  0.17430248324E+03 0.  0.
         24    2    5    5    0    0 -0.21794670254E+02  0.86902032709E+02  0.18123160632E+03  0.21695490894E+03  0.78724624127E+02 0.  0.
          5    1    5    5  501    0  0.25967997814E+02 -0.26383489005E+02 -0.56962750992E+01  0.37748681468E+02  0.47000000000E+01 0. -1.
        -13    1    6    6    0    0  0.79221729449E+01  0.41644917821E+01 -0.55411758914E+01  0.10526559088E+02  0.00000000000E+00 0.  1.
         14    1    6    6    0    0 -0.29716843199E+02  0.82737540927E+02  0.18677278221E+03  0.20642834985E+03  0.00000000000E+00 0. -1.
         -5    1    3    3    0  503 -0.52492816296E+02 -0.66897742133E+02 -0.25859925219E+03  0.27226176172E+03  0.47000000000E+01 0.  1.
         13    1    4    4    0    0 -0.45136175232E+00 -0.32729312151E+02 -0.14042092435E+03  0.14418546250E+03  0.00000000000E+00 0. -1.
        -14    1    4    4    0    0  0.48770850488E+02  0.39108510581E+02 -0.21475536186E+03  0.22366925785E+03  0.00000000000E+00 0.  1.
</event>
<event>
12    1  0.1681255E-001  0.1813358E+03  0.7818608E-02  0.1167359E+00
         21   -1    0    0  501  502  0.00000000000E+00  0.00000000000E+00  0.94392297944E+02  0.94392297944E+02  0.00000000000E+00 0. -1.
         21   -1    0    0  502  503 -0.00000000000E+00 -0.00000000000E+00 -0.34625464429E+03  0.34625464429E+03  0.00000000000E+00 0. -1.
         -6    2    1    2    0  503  0.30542786736E+02 -0.48745010938E+02 -0.15237612091E+03  0.23685684655E+03  0.17197018818E+03 0.  0.
        -24    2    3    3    0    0  0.68220423843E+02 -0.72696309922E+01 -0.14622463005E+03  0.18029058170E+03  0.80101046520E+02 0.  0.
          6    2    1    2  501    0 -0.30542786736E+02  0.48745010938E+02 -0.99486225441E+02  0.20379009569E+03  0.16829722557E+03 0.  0.
         24    2    5    5    0    0 -0.80130425936E+02  0.46336793721E+02 -0.45587912269E+02  0.13036086694E+03  0.79672544022E+02 0.  0.
          5    1    5    5  501    0  0.49587639200E+02  0.24082172171E+01 -0.53898313172E+02  0.73429228747E+02  0.47000000000E+01 0. -1.
        -13    1    6    6    0    0  0.41163441701E+01  0.69013158039E+01  0.16617396206E+02  0.18458339736E+02  0.00000000000E+00 0.  1.
         14    1    6    6    0    0 -0.84246770106E+02  0.39435477917E+02 -0.62205308475E+02  0.11190252720E+03  0.00000000000E+00 0. -1.
         -5    1    3    3    0  503 -0.37677637107E+02 -0.41475379945E+02 -0.61514908627E+01  0.56566264853E+02  0.47000000000E+01 0.  1.
         11    1    4    4    0    0  0.80178507182E+02  0.13684966542E+02 -0.11315021239E+03  0.13935150479E+03  0.00000000000E+00 0. -1.
        -12    1    4    4    0    0 -0.11958083339E+02 -0.20954597534E+02 -0.33074417660E+02  0.40939076913E+02  0.00000000000E+00 0.  1.
</event>
<event>
12    1  0.1681255E-001  0.2472596E+03  0.7818608E-02  0.1115779E+00
         21   -1    0    0  501  502  0.00000000000E+00  0.00000000000E+00  0.21174735353E+03  0.21174735353E+03  0.00000000000E+00 0.  1.
         21   -1    0    0  502  503 -0.00000000000E+00 -0.00000000000E+00 -0.13876282074E+04  0.13876282074E+04  0.00000000000E+00 0.  1.
         -6    2    1    2    0  503  0.16525146934E+03  0.64353966415E+02 -0.13001686076E+04  0.13226360350E+04  0.16576547204E+03 0.  0.
        -24    2    3    3    0    0  0.11812020328E+03 -0.21014259895E+02 -0.74228668364E+03  0.75627623646E+03  0.81057039012E+02 0.  0.
          6    2    1    2  501    0 -0.16525146934E+03 -0.64353966415E+02  0.12428775377E+03  0.27673952591E+03  0.17230159127E+03 0.  0.
         24    2    5    5    0    0 -0.59291207365E+02 -0.69305035470E+02  0.11910100591E+03  0.17043297600E+03  0.80893228921E+02 0.  0.
          5    1    5    5  501    0 -0.10596026197E+03  0.49510690545E+01  0.51867478597E+01  0.10630654992E+03  0.47000000000E+01 0. -1.
        -13    1    6    6    0    0 -0.51624524719E+02 -0.85640464403E+02  0.82542749298E+02  0.12966374265E+03  0.00000000000E+00 0.  1.
         14    1    6    6    0    0 -0.76666826459E+01  0.16335428933E+02  0.36558256613E+02  0.40769233348E+02  0.00000000000E+00 0. -1.
         -5    1    3    3    0  503  0.47131266064E+02  0.85368226310E+02 -0.55788192395E+03  0.56635979851E+03  0.47000000000E+01 0.  1.
         13    1    4    4    0    0  0.67532229400E+01  0.15173330795E+02 -0.23773040563E+03  0.23830984400E+03  0.00000000000E+00 0. -1.
        -14    1    4    4    0    0  0.11136698034E+03 -0.36187590690E+02 -0.50455627802E+03  0.51796639246E+03  0.00000000000E+00 0.  1.
</event>
<event>
12    1  0.1681255E-001  0.1769266E+03  0.7818608E-02  0.1174201E+00
         21   -1    0    0  501  502  0.00000000000E+00  0.00000000000E+00  0.23143685425E+03  0.23143685425E+03  0.00000000000E+00 0.  1.
         21   -1    0    0  502  503 -0.00000000000E+00 -0.00000000000E+00 -0.13213794040E+03  0.13213794040E+03  0.00000000000E+00 0.  1.
         -6    2    1    2    0  503 -0.88890489215E+00  0.39383957640E+02  0.88873968711E+02  0.18634133648E+03  0.15897366164E+03 0.  0.
        -24    2    3    3    0    0 -0.54550049836E+02  0.26314201711E+02  0.87512460902E+02  0.13089514003E+03  0.76203423297E+02 0.  0.
          6    2    1    2  501    0  0.88890489215E+00 -0.39383957640E+02  0.10424945137E+02  0.17723345817E+03  0.17248516731E+03 0.  0.
         24    2    5    5    0    0 -0.13972651918E+02 -0.88927656636E+02 -0.81494116659E+01  0.12207422765E+03  0.82050844167E+02 0.  0.
          5    1    5    5  501    0  0.14861556810E+02  0.49543698996E+02  0.18574356803E+02  0.55159230521E+02  0.47000000000E+01 0. -1.
        -13    1    6    6    0    0  0.13864282162E+02 -0.87917287052E+02 -0.20922751239E+02  0.91429914152E+02  0.00000000000E+00 0.  1.
         14    1    6    6    0    0 -0.27836934080E+02 -0.10103695838E+01  0.12773339573E+02  0.30644313494E+02  0.00000000000E+00 0. -1.
         -5    1    3    3    0  503  0.53661144944E+02  0.13069755929E+02  0.13615078086E+01  0.55446196446E+02  0.47000000000E+01 0.  1.
         13    1    4    4    0    0 -0.42899986684E+02  0.17510953280E+02  0.44392450094E+01  0.46548353768E+02  0.00000000000E+00 0. -1.
        -14    1    4    4    0    0 -0.11650063152E+02  0.88032484311E+01  0.83073215893E+02  0.84346786265E+02  0.00000000000E+00 0.  1.
</event>
<event>
12    1  0.1681255E-001  0.1932901E+03  0.7818608E-02  0.1157085E+00
         21   -1    0    0  501  502  0.00000000000E+00  0.00000000000E+00  0.38279867147E+03  0.38279867147E+03  0.00000000000E+00 0.  1.
         21   -1    0    0  502  503 -0.00000000000E+00 -0.00000000000E+00 -0.45688755638E+03  0.45688755638E+03  0.00000000000E+00 0.  1.
         -6    2    1    2    0  503 -0.77524102571E+02  0.13279929567E+02 -0.41127190382E+03  0.45442893340E+03  0.17656368152E+03 0.  0.
        -24    2    3    3    0    0 -0.10725398982E+03  0.44026759759E+01 -0.17066877634E+03  0.21178799130E+03  0.64834559881E+02 0.  0.
          6    2    1    2  501    0  0.77524102571E+02 -0.13279929567E+02  0.33718301892E+03  0.38525729445E+03  0.16895103335E+03 0.  0.
         24    2    5    5    0    0  0.10310075906E+03 -0.55390777175E+01  0.15830557883E+03  0.20433378929E+03  0.77660757513E+02 0.  0.
          5    1    5    5  501    0 -0.25576656493E+02 -0.77408518499E+01  0.17887744009E+03  0.18092350516E+03  0.47000000000E+01 0. -1.
        -13    1    6    6    0    0  0.89246729449E+02  0.11524275840E+02  0.15860208588E+03  0.18235243156E+03  0.00000000000E+00 0.  1.
         14    1    6    6    0    0  0.13854029616E+02 -0.17063353557E+02 -0.29650705487E+00  0.21981357730E+02  0.00000000000E+00 0. -1.
         -5    1    3    3    0  503  0.29729887252E+02  0.88772535914E+01 -0.24060312749E+03  0.24264094210E+03  0.47000000000E+01 0.  1.
         11    1    4    4    0    0 -0.39832793744E+02 -0.28276023187E+02 -0.84481652112E+02  0.97587573431E+02  0.00000000000E+00 0. -1.
        -12    1    4    4    0    0 -0.67421196079E+02  0.32678699163E+02 -0.86187124226E+02  0.11420041787E+03  0.00000000000E+00 0.  1.
</event>
<event>
12    1  0.1681255E-001  0.1818822E+03  0.7818608E-02  0.1166108E+00
         21   -1    0    0  501  502  0.00000000000E+00  0.00000000000E+00  0.58263959769E+03  0.58263959769E+03  0.00000000000E+00 0. -1.
         21   -1    0    0  502  503 -0.00000000000E+00 -0.00000000000E+00 -0.64118546213E+02  0.64118546213E+02  0.00000000000E+00 0.  1.
         -6    2    1    2    0  503 -0.56526529111E+02 -0.18431174734E+02  0.37007790758E+03  0.41235761868E+03  0.17189005588E+03 0.  0.
        -24    2    3    3    0    0 -0.45054547406E+01  0.20064589620E+02  0.74949312289E+02  0.11018036307E+03  0.78098822748E+02 0.  0.
          6    2    1    2  501    0  0.56526529111E+02  0.18431174734E+02  0.14844314390E+03  0.23440052522E+03  0.17138635464E+03 0.  0.
         24    2    5    5    0    0  0.11595956157E+02  0.32504356081E+02  0.16305664470E+03  0.18487825523E+03  0.80009377662E+02 0.  0.
          5    1    5    5  501    0  0.44930572953E+02 -0.14073181347E+02 -0.14613500801E+02  0.49522269988E+02  0.47000000000E+01 0. -1.
        -11    1    6    6    0    0  0.40870361576E+02 -0.24461226793E+01  0.66390734876E+02  0.78000638773E+02  0.00000000000E+00 0.  1.
         12    1    6    6    0    0 -0.29274405419E+02  0.34950478761E+02  0.96665909822E+02  0.10687761646E+03  0.00000000000E+00 0. -1.
         -5    1    3    3    0  503 -0.52021074370E+02 -0.38495764355E+02  0.29512859529E+03  0.30217725561E+03  0.47000000000E+01 0.  1.
         11    1    4    4    0    0  0.10281709957E+02  0.21950684279E+02  0.87436618457E+02  0.90734273278E+02  0.00000000000E+00 0. -1.
        -12    1    4    4    0    0 -0.14787164698E+02 -0.18860946587E+01 -0.12487306168E+02  0.19446089792E+02  0.00000000000E+00 0.  1.
</event>
<event>
12    1  0.1681255E-001  0.1814543E+03  0.7818608E-02  0.1167218E+00
         21   -1    0    0  501  502  0.00000000000E+00  0.00000000000E+00  0.23016526130E+02  0.23016526130E+02  0.00000000000E+00 0. -1.
         21   -1    0    0  502  503 -0.00000000000E+00 -0.00000000000E+00 -0.24826916587E+04  0.24826916587E+04  0.00000000000E+00 0. -1.
         -6    2    1    2    0  503 -0.32869687001E+01  0.66298481802E+02 -0.20490915046E+04  0.20568155640E+04  0.16525125533E+03 0.  0.
        -24    2    3    3    0    0 -0.47832996380E+02  0.30858971706E+00 -0.13346732863E+04  0.13379591840E+04  0.80584776445E+02 0.  0.
          6    2    1    2  501    0  0.32869687001E+01 -0.66298481802E+02 -0.41058362794E+03  0.44889262076E+03  0.16887680892E+03 0.  0.
         24    2    5    5    0    0  0.22680457856E+02  0.25280368783E+02 -0.21172026127E+03  0.22904830790E+03  0.80524270279E+02 0.  0.
          5    1    5    5  501    0 -0.19393489155E+02 -0.91578850585E+02 -0.19886336666E+03  0.21984431286E+03  0.47000000000E+01 0. -1.
        -11    1    6    6    0    0  0.21754344353E+02 -0.85096742058E+01 -0.18359463245E+03  0.18507472847E+03  0.00000000000E+00 0.  1.
         12    1    6    6    0    0  0.92611350255E+00  0.33790042988E+02 -0.28125628826E+02  0.43973579434E+02  0.00000000000E+00 0. -1.
         -5    1    3    3    0  503  0.44546027680E+02  0.65989892085E+02 -0.71441821831E+03  0.71885638002E+03  0.47000000000E+01 0.  1.
         13    1    4    4    0    0 -0.26247599726E+02  0.37451618199E+02 -0.47013038798E+03  0.47234959712E+03  0.00000000000E+00 0. -1.
        -14    1    4    4    0    0 -0.21585396654E+02 -0.37143028482E+02 -0.86454289831E+03  0.86560958690E+03  0.00000000000E+00 0.  1.
</event>
<event>
12    1  0.1681255E-001  0.2164201E+03  0.7818608E-02  0.1136821E+00
         21   -1    0    0  503  502  0.00000000000E+00  0.00000000000E+00  0.73335877497E+03  0.73335877497E+03  0.00000000000E+00 0.  1.
         21   -1    0    0  501  503 -0.00000000000E+00 -0.00000000000E+00 -0.64080998679E+02  0.64080998679E+02  0.00000000000E+00 0. -1.
          6    2    1    2  501    0 -0.12197792668E+03 -0.41674352440E+02  0.29559175792E+03  0.36560772882E+03  0.17227639936E+03 0.  0.
         24    2    3    3    0    0 -0.14730876481E+03 -0.51759491218E+01  0.25457359642E+03  0.30495820798E+03  0.80406032017E+02 0.  0.
         -6    2    1    2    0  502  0.12197792668E+03  0.41674352440E+02  0.37368601837E+03  0.43183204482E+03  0.17384564522E+03 0.  0.
        -24    2    5    5    0    0  0.13714559971E+03 -0.12405165095E+02  0.27780524142E+03  0.32061214593E+03  0.81569555065E+02 0.  0.
          5    1    3    3  501    0  0.25330838129E+02 -0.36498403318E+02  0.41018161504E+02  0.60649520841E+02  0.47000000000E+01 0. -1.
        -11    1    4    4    0    0 -0.23101409996E+02  0.22475906583E+02  0.98191472577E+02  0.10334605366E+03  0.00000000000E+00 0.  1.
         12    1    4    4    0    0 -0.12420735481E+03 -0.27651855704E+02  0.15638212384E+03  0.20161215432E+03  0.00000000000E+00 0. -1.
         -5    1    5    5    0  502 -0.15167673031E+02  0.54079517535E+02  0.95880776947E+02  0.11121989889E+03  0.47000000000E+01 0.  1.
         13    1    6    6    0    0  0.50322380929E+01 -0.93542472686E+01 -0.23277217298E+01  0.10873989638E+02  0.00000000000E+00 0. -1.
        -14    1    6    6    0    0  0.13211336162E+03 -0.30509178261E+01  0.28013296315E+03  0.30973815629E+03  0.00000000000E+00 0.  1.
</event>
<event>
12    1  0.1681255E-001  0.1972995E+03  0.7818608E-02  0.1152512E+00
         21   -1    0    0  503  502  0.00000000000E+00  0.00000000000E+00  0.26210201849E+03  0.26210201849E+03  0.00000000000E+00 0.  1.
         21   -1    0    0  501  503 -0.00000000000E+00 -0.00000000000E+00 -0.18443493421E+03  0.18443493421E+03  0.00000000000E+00 0.  1.
          6    2    1    2  501    0  0.90828970409E+02 -0.72047280185E+01 -0.62099079133E+02  0.20474842978E+03  0.17252192294E+03 0.  0.
         24    2    3    3    0    0 -0.11387411734E+02 -0.25217891330E+02 -0.26525558693E+02  0.94929359540E+02  0.86846778004E+02 0.  0.
         -6    2    1    2    0  502 -0.90828970409E+02  0.72047280185E+01  0.13976616342E+03  0.24178852292E+03  0.17500085545E+03 0.  0.
        -24    2    5    5    0    0 -0.10649340644E+03 -0.46684308754E+02  0.10174765599E+03  0.17384075072E+03  0.79672773330E+02 0.  0.
          5    1    3    3  501    0  0.10221638214E+03  0.18013163312E+02 -0.35573520440E+02  0.10981907024E+03  0.47000000000E+01 0. -1.
        -13    1    4    4    0    0  0.33469415696E+02 -0.28847442608E+02 -0.33590608374E+01  0.44313203696E+02  0.00000000000E+00 0.  1.
         14    1    4    4    0    0 -0.44856827430E+02  0.36295512778E+01 -0.23166497856E+02  0.50616155845E+02  0.00000000000E+00 0. -1.
         -5    1    5    5    0  502  0.15664436034E+02  0.53889036772E+02  0.38018507428E+02  0.67947772205E+02  0.47000000000E+01 0.  1.
         11    1    6    6    0    0 -0.55262111838E+02 -0.24283534593E+02  0.30917023371E+01  0.60441291188E+02  0.00000000000E+00 0. -1.
        -12    1    6    6    0    0 -0.51231294605E+02 -0.22400774161E+02  0.98655953653E+02  0.11339945953E+03  0.00000000000E+00 0.  1.
</event>
<event>
12    1  0.1681255E-001  0.1999066E+03  0.7818608E-02  0.1149906E+00
         21   -1    0    0  503  502  0.00000000000E+00  0.00000000000E+00  0.10197642826E+03  0.10197642826E+03  0.00000000000E+00 0. -1.
         21   -1    0    0  501  503 -0.00000000000E+00 -0.00000000000E+00 -0.39250929801E+03  0.39250929801E+03  0.00000000000E+00 0. -1.
          6    2    1    2  501    0 -0.50984015826E+02 -0.85174188377E+02 -0.16043511287E+03  0.25632419489E+03  0.17351845784E+03 0.  0.
         24    2    3    3    0    0 -0.87472593482E+01  0.19293378032E+02 -0.40729848530E+02  0.91858829725E+02  0.79563654110E+02 0.  0.
         -6    2    1    2    0  502  0.50984015826E+02  0.85174188377E+02 -0.13009775688E+03  0.23816153138E+03  0.17303605534E+03 0.  0.
        -24    2    5    5    0    0  0.95366979369E+02  0.86778583158E+02 -0.11527738307E+03  0.19110672275E+03  0.81286660544E+02 0.  0.
          5    1    3    3  501    0 -0.42236756478E+02 -0.10446756641E+03 -0.11970526434E+03  0.16446536517E+03  0.47000000000E+01 0. -1.
        -11    1    4    4    0    0  0.15018388100E+02 -0.16596633512E+02  0.10685940559E+02  0.24803014952E+02  0.00000000000E+00 0.  1.
         12    1    4    4    0    0 -0.23765647448E+02  0.35890011545E+02 -0.51415789089E+02  0.67055814774E+02  0.00000000000E+00 0. -1.
         -5    1    5    5    0  502 -0.44382963543E+02 -0.16043947804E+01 -0.14820373802E+02  0.47054808629E+02  0.47000000000E+01 0.  1.
         13    1    6    6    0    0  0.23513101487E+02  0.64002044510E+02 -0.87146910793E+02  0.11065130683E+03  0.00000000000E+00 0. -1.
        -14    1    6    6    0    0  0.71853877882E+02  0.22776538648E+02 -0.28130472281E+02  0.80455415916E+02  0.00000000000E+00 0.  1.
</event>
<event>
12    1  0.1681255E-001  0.1750063E+03  0.7818608E-02  0.1172976E+00
         21   -1    0    0  501  502  0.00000000000E+00  0.00000000000E+00  0.77052228541E+02  0.77052228541E+02  0.00000000000E+00 0. -1.
         21   -1    0    0  502  503 -0.00000000000E+00 -0.00000000000E+00 -0.45742219023E+03  0.45742219023E+03  0.00000000000E+00 0. -1.
         -6    2    1    2    0  503  0.35051488363E+02 -0.12681851285E+02 -0.28825304697E+03  0.33670507426E+03  0.16997367960E+03 0.  0.
        -24    2    3    3    0    0  0.73626405980E+02  0.55867281624E+01 -0.11286900349E+03  0.15614090846E+03  0.78667097035E+02 0.  0.
          6    2    1    2  501    0 -0.35051488363E+02  0.12681851285E+02 -0.92116914714E+02  0.19776934451E+03  0.17099050109E+03 0.  0.
         24    2    5    5    0    0 -0.62800894514E+02  0.60637748149E+02 -0.49348138743E+02  0.12761910728E+03  0.78933572655E+02 0.  0.
          5    1    5    5  501    0  0.27749406151E+02 -0.47955896864E+02 -0.42768775971E+02  0.70150237233E+02  0.47000000000E+01 0. -1.
        -11    1    6    6    0    0 -0.41227085903E+02  0.17534362284E+02 -0.63198900453E+02  0.77467589941E+02  0.00000000000E+00 0.  1.
         12    1    6    6    0    0 -0.21573808611E+02  0.43103385865E+02  0.13850761710E+02  0.50151517335E+02  0.00000000000E+00 0. -1.
         -5    1    3    3    0  503 -0.38574917617E+02 -0.18268579447E+02 -0.17538404348E+03  0.18056416580E+03  0.47000000000E+01 0.  1.
         13    1    4    4    0    0  0.16739576686E+02  0.62462784197E+01 -0.94771660086E+02  0.96441158108E+02  0.00000000000E+00 0. -1.
        -14    1    4    4    0    0  0.56886829294E+02 -0.65955025733E+00 -0.18097343407E+02  0.59699750352E+02  0.00000000000E+00 0.  1.
</event>
<event>
12    1  0.1681255E-001  0.3147100E+03  0.7818608E-02  0.1078188E+00
         21   -1    0    0  501  502  0.00000000000E+00  0.00000000000E+00  0.14351544407E+04  0.14351544407E+04  0.00000000000E+00 0.  1.
         21   -1    0    0  502  503 -0.00000000000E+00 -0.00000000000E+00 -0.69535688588E+02  0.69535688588E+02  0.00000000000E+00 0. -1.
         -6    2    1    2    0  503 -0.46814961570E+02 -0.25873456346E+03  0.75587999464E+03  0.81852415260E+03  0.17173237069E+03 0.  0.
        -24    2    3    3    0    0  0.25489599270E+02 -0.77363178042E+02  0.35044897111E+03  0.36850200447E+03  0.79652149759E+02 0.  0.
          6    2    1    2  501    0  0.46814961570E+02  0.25873456346E+03  0.60973875749E+03  0.68616597670E+03  0.17293692564E+03 0.  0.
         24    2    5    5    0    0  0.23737124634E+02  0.27046336242E+03  0.51660458226E+03  0.58938676469E+03  0.82356435586E+02 0.  0.
          5    1    5    5  501    0  0.23077836936E+02 -0.11728798960E+02  0.93134175232E+02  0.96779212018E+02  0.47000000000E+01 0. -1.
        -13    1    6    6    0    0  0.28682477856E+02  0.26183075768E+02  0.84257061979E+02  0.92776562159E+02  0.00000000000E+00 0.  1.
         14    1    6    6    0    0 -0.49453532223E+01  0.24428028665E+03  0.43234752028E+03  0.49661020253E+03  0.00000000000E+00 0. -1.
         -5    1    3    3    0  503 -0.72304560840E+02 -0.18137138541E+03  0.40543102354E+03  0.45002214813E+03  0.47000000000E+01 0.  1.
         11    1    4    4    0    0  0.15222125219E+02 -0.36025626428E+02  0.43034902182E+02  0.58151196562E+02  0.00000000000E+00 0. -1.
        -12    1    4    4    0    0  0.10267474051E+02 -0.41337551614E+02  0.30741406892E+03  0.31035080791E+03  0.00000000000E+00 0.  1.
</event>
<event>
12    1  0.1681255E-001  0.1810780E+03  0.7818608E-02  0.1167100E+00
         21   -1    0    0  503  502  0.00000000000E+00  0.00000000000E+00  0.70776622575E+03  0.70776622575E+03  0.00000000000E+00 0. -1.
         21   -1    0    0  501  503 -0.00000000000E+00 -0.00000000000E+00 -0.68420065474E+02  0.68420065474E+02  0.00000000000E+00 0. -1.
          6    2    1    2  501    0  0.52739221948E+02  0.23359932826E+02  0.98206759186E+02  0.20599464570E+03  0.17164531603E+03 0.  0.
         24    2    3    3    0    0 -0.26067151042E+02  0.42228115169E+02  0.71669493826E+02  0.12059693390E+03  0.83333030945E+02 0.  0.
         -6    2    1    2    0  502 -0.52739221948E+02 -0.23359932826E+02  0.54113940109E+03  0.57019164552E+03  0.17017505462E+03 0.  0.
        -24    2    5    5    0    0  0.19732952324E+02  0.26829352112E+02  0.19640441048E+03  0.21433284751E+03  0.79086493952E+02 0.  0.
          5    1    3    3  501    0  0.78806372990E+02 -0.18868182343E+02  0.26537265359E+02  0.85397711805E+02  0.47000000000E+01 0. -1.
        -13    1    4    4    0    0 -0.30733583106E+02 -0.14441547770E+02  0.48477568291E+02  0.59187718827E+02  0.00000000000E+00 0.  1.
         14    1    4    4    0    0  0.46664320647E+01  0.56669662939E+02  0.23191925536E+02  0.61409215073E+02  0.00000000000E+00 0. -1.
         -5    1    5    5    0  502 -0.72472174272E+02 -0.50189284938E+02  0.34473499061E+03  0.35585879801E+03  0.47000000000E+01 0.  1.
         13    1    6    6    0    0  0.61244676608E+01  0.51796722732E+02  0.15907118044E+03  0.16740385311E+03  0.00000000000E+00 0. -1.
        -14    1    6    6    0    0  0.13608484663E+02 -0.24967370620E+02  0.37333230040E+02  0.46928994404E+02  0.00000000000E+00 0.  1.
</event>
<event>
12    1  0.1681255E-001  0.1980289E+03  0.7818608E-02  0.1151706E+00
         21   -1    0    0  503  502  0.00000000000E+00  0.00000000000E+00  0.46892419581E+03  0.46892419581E+03  0.00000000000E+00 0.  1.
         21   -1    0    0  501  503 -0.00000000000E+00 -0.00000000000E+00 -0.14291739924E+03  0.14291739924E+03  0.00000000000E+00 0.  1.
          6    2    1    2  501    0  0.56124489309E+02 -0.76216337641E+02 -0.34661693581E+02  0.20103953228E+03  0.17394416378E+03 0.  0.
         24    2    3    3    0    0  0.37545680052E+02 -0.56724107188E+01  0.39771199219E+02  0.96713297277E+02  0.79560412574E+02 0.  0.
         -6    2    1    2    0  502 -0.56124489309E+02  0.76216337641E+02  0.36066849015E+03  0.41080206278E+03  0.17238818571E+03 0.  0.
        -24    2    5    5    0    0 -0.35054320335E+02  0.10088845797E+03  0.16216440362E+03  0.20960905119E+03  0.78939053797E+02 0.  0.
          5    1    3    3  501    0  0.18578809257E+02 -0.70543926922E+02 -0.74432892800E+02  0.10432623500E+03  0.47000000000E+01 0. -1.
        -13    1    4    4    0    0 -0.23746271509E+02 -0.10085045524E+02  0.55965887860E+01  0.26399154529E+02  0.00000000000E+00 0.  1.
         14    1    4    4    0    0  0.61291951562E+02  0.44126348049E+01  0.34174610433E+02  0.70314142748E+02  0.00000000000E+00 0. -1.
         -5    1    5    5    0  502 -0.21070168974E+02 -0.24672120331E+02  0.19850408653E+03  0.20119301159E+03  0.47000000000E+01 0.  1.
         11    1    6    6    0    0 -0.42992825640E+02  0.36904178811E+02  0.33834493258E+02  0.65992987538E+02  0.00000000000E+00 0. -1.
        -12    1    6    6    0    0  0.79385053044E+01  0.63984279161E+02  0.12832991036E+03  0.14361606365E+03  0.00000000000E+00 0.  1.
</event>
<event>
12    1  0.1681255E-001  0.1758251E+03  0.7818608E-02  0.1171955E+00
         21   -1    0    0  501  502  0.00000000000E+00  0.00000000000E+00  0.19751154538E+03  0.19751154538E+03  0.00000000000E+00 0.  1.
         21   -1    0    0  502  503 -0.00000000000E+00 -0.00000000000E+00 -0.36962670711E+03  0.36962670711E+03  0.00000000000E+00 0.  1.
         -6    2    1    2    0  503 -0.20981497378E+02  0.31099522765E+02 -0.30144224827E+03  0.34887242829E+03  0.17157254626E+03 0.  0.
        -24    2    3    3    0    0  0.42980579905E+02 -0.15855242934E+02 -0.13097112987E+03  0.16078098892E+03  0.81230354937E+02 0.  0.
          6    2    1    2  501    0  0.20981497378E+02 -0.31099522765E+02  0.12932708654E+03  0.21826582420E+03  0.17177622405E+03 0.  0.
         24    2    5    5    0    0 -0.28186398364E+02 -0.42432062417E+00  0.13170349394E+02  0.88369990608E+02  0.82711208649E+02 0.  0.
          5    1    5    5  501    0  0.49167895741E+02 -0.30675202141E+02  0.11615673715E+03  0.12989583359E+03  0.47000000000E+01 0. -1.
        -13    1    6    6    0    0  0.45004067892E+01  0.27419840348E+02  0.31217647105E+02  0.41792855810E+02  0.00000000000E+00 0.  1.
         14    1    6    6    0    0 -0.32686805153E+02 -0.27844160973E+02 -0.18047297711E+02  0.46577134798E+02  0.00000000000E+00 0. -1.
         -5    1    3    3    0  503 -0.63962077282E+02  0.46954765699E+02 -0.17047111841E+03  0.18809143937E+03  0.47000000000E+01 0.  1.
         13    1    4    4    0    0  0.31355750801E+02 -0.48141751560E+02 -0.95338112330E+02  0.11131112709E+03  0.00000000000E+00 0. -1.
        -14    1    4    4    0    0  0.11624829104E+02  0.32286508626E+02 -0.35633017536E+02  0.49469861832E+02  0.00000000000E+00 0.  1.
</event>
<event>
12    1  0.1681255E-001  0.2023769E+03  0.7818608E-02  0.1147824E+00
         21   -1    0    0  503  502  0.00000000000E+00  0.00000000000E+00  0.56319459155E+02  0.56319459155E+02  0.00000000000E+00 0.  1.
         21   -1    0    0  501  503 -0.00000000000E+00 -0.00000000000E+00 -0.13072728479E+04  0.13072728479E+04  0.00000000000E+00 0.  1.
          6    2    1    2  501    0 -0.10895783624E+03  0.44162038391E+01 -0.10798312592E+04  0.10985655557E+04  0.17005710513E+03 0.  0.
         24    2    3    3    0    0 -0.90001063705E+02  0.23412647150E+02 -0.41683908536E+03  0.43501379692E+03  0.82667024311E+02 0.  0.
         -6    2    1    2    0  502  0.10895783624E+03 -0.44162038391E+01 -0.17112212955E+03  0.26502675131E+03  0.17048484610E+03 0.  0.
        -24    2    5    5    0    0  0.44895147569E+02 -0.41548414318E+02 -0.29487479371E+02  0.10513524663E+03  0.80262467178E+02 0.  0.
          5    1    3    3  501    0 -0.18956772539E+02 -0.18996443311E+02 -0.66299217383E+03  0.66355175882E+03  0.47000000000E+01 0. -1.
        -11    1    4    4    0    0 -0.35774534071E+02  0.44926168957E+02 -0.28672465653E+03  0.29241957288E+03  0.00000000000E+00 0.  1.
         12    1    4    4    0    0 -0.54226529634E+02 -0.21513521806E+02 -0.13011442884E+03  0.14259422403E+03  0.00000000000E+00 0. -1.
         -5    1    5    5    0  502  0.64062688675E+02  0.37132210479E+02 -0.14163465018E+03  0.15989150467E+03  0.47000000000E+01 0.  1.
         13    1    6    6    0    0 -0.98751510995E+01 -0.44713112983E+02 -0.96439948424E+01  0.46795167682E+02  0.00000000000E+00 0. -1.
        -14    1    6    6    0    0  0.54770298669E+02  0.31646986647E+01 -0.19843484528E+02  0.58340078952E+02  0.00000000000E+00 0.  1.
</event>
<event>
12    1  0.1681255E-001  0.2211102E+03  0.7818608E-02  0.1133262E+00
         21   -1    0    0  503  502  0.00000000000E+00  0.00000000000E+00  0.10931470573E+03  0.10931470573E+03  0.00000000000E+00 0.  1.
         21   -1    0    0  501  503 -0.00000000000E+00 -0.00000000000E+00 -0.60389133095E+03  0.60389133095E+03  0.00000000000E+00 0. -1.
          6    2    1    2  501    0 -0.13069834750E+03  0.45955940787E+02 -0.42974161741E+03  0.48278622623E+03  0.17091131025E+03 0.  0.
         24    2    3    3    0    0 -0.12431205207E+03  0.49339983288E+02 -0.20224976047E+03  0.25513106708E+03  0.79366085578E+02 0.  0.
         -6    2    1    2    0  502  0.13069834750E+03 -0.45955940787E+02 -0.64835007808E+02  0.23041981045E+03  0.17232441578E+03 0.  0.
        -24    2    5    5    0    0  0.33093004702E+02 -0.26610361733E+02 -0.63593592759E+02  0.13079709475E+03  0.10611539305E+03 0.  0.
          5    1    3    3  501    0 -0.63862954324E+01 -0.33840425011E+01 -0.22749185694E+03  0.22765515915E+03  0.47000000000E+01 0. -1.
        -13    1    4    4    0    0 -0.70623996892E+02 -0.20326661247E+01 -0.52716491116E+02  0.88152760049E+02  0.00000000000E+00 0.  1.
         14    1    4    4    0    0 -0.53688055178E+02  0.51372649413E+02 -0.14953326935E+03  0.16697830703E+03  0.00000000000E+00 0. -1.
         -5    1    5    5    0  502  0.97605342801E+02 -0.19345579054E+02 -0.12414150498E+01  0.99622715701E+02  0.47000000000E+01 0.  1.
         11    1    6    6    0    0  0.27575645278E+02  0.48561828349E+00 -0.89042988621E+02  0.93216446297E+02  0.00000000000E+00 0. -1.
        -12    1    6    6    0    0  0.55173594238E+01 -0.27095980016E+02  0.25449395863E+02  0.37580648449E+02  0.00000000000E+00 0.  1.
</event>
<event>
12    1  0.1681255E-001  0.1753799E+03  0.7818608E-02  0.1172474E+00
         21   -1    0    0  501  502  0.00000000000E+00  0.00000000000E+00  0.31216686067E+02  0.31216686067E+02  0.00000000000E+00 0.  1.
         21   -1    0    0  502  503 -0.00000000000E+00 -0.00000000000E+00 -0.98438038377E+03  0.98438038377E+03  0.00000000000E+00 0.  1.
         -6    2    1    2    0  503 -0.26992042699E+02 -0.17186875478E+02 -0.45399130544E+03  0.48651184577E+03  0.17193519593E+03 0.  0.
        -24    2    3    3    0    0 -0.50708405894E+02  0.35328876888E+02 -0.18408560267E+03  0.21048367961E+03  0.81218214079E+02 0.  0.
          6    2    1    2  501    0  0.26992042699E+02  0.17186875478E+02 -0.49917239226E+03  0.52908522407E+03  0.17243589554E+03 0.  0.
         24    2    5    5    0    0 -0.10454532697E+02 -0.35077295422E+02 -0.40787959867E+03  0.41732542033E+03  0.80343173553E+02 0.  0.
          5    1    5    5  501    0  0.37446575397E+02  0.52264170899E+02 -0.91292793592E+02  0.11175980373E+03  0.47000000000E+01 0. -1.
        -13    1    6    6    0    0  0.30547863269E+02 -0.23303387219E+02 -0.27742684406E+03  0.28007476433E+03  0.00000000000E+00 0.  1.
         14    1    6    6    0    0 -0.41002395966E+02 -0.11773908203E+02 -0.13045275461E+03  0.13725065601E+03  0.00000000000E+00 0. -1.
         -5    1    3    3    0  503  0.23716363194E+02 -0.52515752366E+02 -0.26990570277E+03  0.27602816616E+03  0.47000000000E+01 0.  1.
         13    1    4    4    0    0 -0.25203893847E+02  0.58308846789E+01 -0.16509630586E+03  0.16711081859E+03  0.00000000000E+00 0. -1.
        -14    1    4    4    0    0 -0.25504512047E+02  0.29497992209E+02 -0.18989296812E+02  0.43372861014E+02  0.00000000000E+00 0.  1.
</event>
<event>
12    1  0.1681255E-001  0.1796216E+03  0.7818608E-02  0.1168678E+00
         21   -1    0    0  503  502  0.00000000000E+00  0.00000000000E+00  0.15615944067E+03  0.15615944067E+03  0.00000000000E+00 0. -1.
         21   -1    0    0  501  503 -0.00000000000E+00 -0.00000000000E+00 -0.96020705754E+03  0.96020705754E+03  0.00000000000E+00 0. -1.
          6    2    1    2  501    0  0.42561540250E+02 -0.27705582954E+02 -0.89780188403E+03  0.91559386812E+03  0.17229284470E+03 0.  0.
         24    2    3    3    0    0  0.52965803130E+01 -0.14397162129E+02 -0.84758992215E+03  0.85149143119E+03  0.79960297828E+02 0.  0.
         -6    2    1    2    0  502 -0.42561540250E+02  0.27705582954E+02  0.93754267169E+02  0.20077263009E+03  0.17011967066E+03 0.  0.
        -24    2    5    5    0    0 -0.63296333571E+02 -0.31625377503E+02  0.29714561612E+02  0.11092126165E+03  0.80087332132E+02 0.  0.
          5    1    3    3  501    0  0.37264959937E+02 -0.13308420825E+02 -0.50211961885E+02  0.64102436929E+02  0.47000000000E+01 0. -1.
        -13    1    4    4    0    0  0.39447224384E+02 -0.11671304085E+02 -0.29683733467E+03  0.29967433341E+03  0.00000000000E+00 0.  1.
         14    1    4    4    0    0 -0.34150644071E+02 -0.27258580438E+01 -0.55075258748E+03  0.55181709779E+03  0.00000000000E+00 0. -1.
         -5    1    5    5    0  502  0.20734793321E+02  0.59330960457E+02  0.64039705557E+02  0.89851368441E+02  0.47000000000E+01 0.  1.
         11    1    6    6    0    0 -0.55097186939E+02  0.14212697573E+02  0.30062977205E+02  0.64354357890E+02  0.00000000000E+00 0. -1.
        -12    1    6    6    0    0 -0.81991466312E+01 -0.45838075076E+02 -0.34841559377E+00  0.46566903758E+02  0.00000000000E+00 0.  1.
</event>
<event>
12    1  0.1681255E-001  0.2011227E+03  0.7818608E-02  0.1150414E+00
         21   -1    0    0  501  502  0.00000000000E+00  0.00000000000E+00  0.90681995388E+02  0.90681995388E+02  0.00000000000E+00 0. -1.
         21   -1    0    0  502  503 -0.00000000000E+00 -0.00000000000E+00 -0.49679060228E+03  0.49679060228E+03  0.00000000000E+00 0.  1.
         -6    2    1    2    0  503 -0.13242865225E+02  0.10053630784E+03 -0.31456840450E+03  0.37336792551E+03  0.17368766224E+03 0.  0.
        -24    2    3    3    0    0 -0.99214430475E+01  0.11780132530E+03 -0.32254943426E+03  0.35349584688E+03  0.83340200087E+02 0.  0.
          6    2    1    2  501    0  0.13242865225E+02 -0.10053630784E+03 -0.91540202392E+02  0.21410467216E+03  0.16485836137E+03 0.  0.
         24    2    5    5    0    0  0.17294496592E+01 -0.94743124618E+02 -0.12639370018E+03  0.17664835069E+03  0.79057078728E+02 0.  0.
          5    1    5    5  501    0  0.11513415566E+02 -0.57931832210E+01  0.34853497793E+02  0.37456321472E+02  0.47000000000E+01 0. -1.
        -11    1    6    6    0    0  0.17833839756E+02 -0.14635952881E+02 -0.78756392327E+02  0.82065987409E+02  0.00000000000E+00 0.  1.
         12    1    6    6    0    0 -0.16104390097E+02 -0.80107171736E+02 -0.47637307858E+02  0.94582363281E+02  0.00000000000E+00 0. -1.
         -5    1    3    3    0  503 -0.33214221773E+01 -0.17265017457E+02  0.79810297515E+01  0.19872078627E+02  0.47000000000E+01 0.  1.
         13    1    4    4    0    0 -0.23891044022E+02 -0.99268040090E+00 -0.71833897065E+02  0.75709155102E+02  0.00000000000E+00 0. -1.
        -14    1    4    4    0    0  0.13969600974E+02  0.11879400570E+03 -0.25071553719E+03  0.27778669178E+03  0.00000000000E+00 0.  1.
</event>
<event>
12    1  0.1681255E-001  0.2598899E+03  0.7818608E-02  0.1107290E+00
         21   -1    0    0  501  502  0.00000000000E+00  0.00000000000E+00  0.27908257817E+03  0.27908257817E+03  0.00000000000E+00 0. -1.
         21   -1    0    0  502  503 -0.00000000000E+00 -0.00000000000E+00 -0.24182849413E+03  0.24182849413E+03  0.00000000000E+00 0. -1.
         -6    2    1    2    0  503  0.86988231701E+02  0.17438684055E+03  0.92711934920E+01  0.25951907006E+03  0.17113290182E+03 0.  0.
        -24    2    3    3    0    0  0.27902788457E+02  0.16238502757E+03  0.46365029927E+02  0.18857419132E+03  0.79139414004E+02 0.  0.
          6    2    1    2  501    0 -0.86988231701E+02 -0.17438684055E+03  0.27982890544E+02  0.26139200224E+03  0.17194479946E+03 0.  0.
         24    2    5    5    0    0 -0.50304884331E+02 -0.69397770167E+02 -0.48359596791E+02  0.12641556635E+03  0.79344898523E+02 0.  0.
          5    1    5    5  501    0 -0.36683347370E+02 -0.10498907038E+03  0.76342487336E+02  0.13497643589E+03  0.47000000000E+01 0. -1.
        -11    1    6    6    0    0 -0.53591913887E+02 -0.90237886715E+01 -0.11332036225E+02  0.55515196488E+02  0.00000000000E+00 0.  1.
         12    1    6    6    0    0  0.32870295560E+01 -0.60373981495E+02 -0.37027560566E+02  0.70900369860E+02  0.00000000000E+00 0. -1.
         -5    1    3    3    0  503  0.59085443244E+02  0.12001812973E+02 -0.37093836435E+02  0.70944878740E+02  0.47000000000E+01 0.  1.
         13    1    4    4    0    0  0.14211144717E+02  0.78542451004E+02 -0.18204889020E+02  0.81867522426E+02  0.00000000000E+00 0. -1.
        -14    1    4    4    0    0  0.13691643739E+02  0.83842576569E+02  0.64569918947E+02  0.10670666890E+03  0.00000000000E+00 0.  1.
</event>
<event>
12    1  0.1681255E-001  0.2270500E+03  0.7818608E-02  0.1128831E+00
         21   -1    0    0  503  502  0.00000000000E+00  0.00000000000E+00  0.10823439649E+03  0.10823439649E+03  0.00000000000E+00 0.  1.
         21   -1    0    0  501  503 -0.00000000000E+00 -0.00000000000E+00 -0.12790598260E+04  0.12790598260E+04  0.00000000000E+00 0.  1.
          6    2    1    2  501    0 -0.92162893425E+02  0.11628636830E+03 -0.11350664538E+04  0.11574456002E+04  0.17113720957E+03 0.  0.
         24    2    3    3    0    0 -0.12218220704E+03  0.85183030765E+02 -0.69385190200E+03  0.71409365477E+03  0.79464743285E+02 0.  0.
         -6    2    1    2    0  502  0.92162893425E+02 -0.11628636830E+03 -0.35758975720E+02  0.22984862231E+03  0.17185798339E+03 0.  0.
        -24    2    5    5    0    0  0.39703967479E+02 -0.59558335450E+02 -0.87315925245E+02  0.13684207594E+03  0.77318061221E+02 0.  0.
          5    1    3    3  501    0  0.30019313613E+02  0.31103337537E+02 -0.44121455179E+03  0.44335194542E+03  0.47000000000E+01 0. -1.
        -13    1    4    4    0    0 -0.34571201179E+02  0.38572749509E+02 -0.41277732930E+03  0.41601460135E+03  0.00000000000E+00 0.  1.
         14    1    4    4    0    0 -0.87611005859E+02  0.46610281256E+02 -0.28107457270E+03  0.29807905342E+03  0.00000000000E+00 0. -1.
         -5    1    5    5    0  502  0.52458925946E+02 -0.56728032853E+02  0.51556949525E+02  0.93006546367E+02  0.47000000000E+01 0.  1.
         13    1    6    6    0    0  0.55597341059E+02 -0.28127227466E+02 -0.29023751888E+02  0.68735605267E+02  0.00000000000E+00 0. -1.
        -14    1    6    6    0    0 -0.15893373580E+02 -0.31431107984E+02 -0.58292173357E+02  0.68106470673E+02  0.00000000000E+00 0.  1.
</event>
<event>
12    1  0.1681255E-001  0.2256232E+03  0.7818608E-02  0.1129771E+00
         21   -1    0    0  501  502  0.00000000000E+00  0.00000000000E+00  0.80615377367E+03  0.80615377367E+03  0.00000000000E+00 0. -1.
         21   -1    0    0  502  503 -0.00000000000E+00 -0.00000000000E+00 -0.99128362195E+02  0.99128362195E+02  0.00000000000E+00 0.  1.
         -6    2    1    2    0  503  0.14566875078E+03 -0.17298078955E+02  0.80766179598E+02  0.23964346595E+03  0.17142697138E+03 0.  0.
        -24    2    3    3    0    0  0.11096535831E+03  0.27749898467E+02 -0.13390569827E+01  0.13965843911E+03  0.80120652334E+02 0.  0.
          6    2    1    2  501    0 -0.14566875078E+03  0.17298078955E+02  0.62625923187E+03  0.66563866991E+03  0.17133477431E+03 0.  0.
         24    2    5    5    0    0 -0.83053089037E+02 -0.55664610789E+02  0.36095362792E+03  0.38340927974E+03  0.81968224252E+02 0.  0.
          5    1    5    5  501    0 -0.62615661738E+02  0.72962689744E+02  0.26530560395E+03  0.28222939017E+03  0.47000000000E+01 0. -1.
        -11    1    6    6    0    0 -0.83668993347E+02 -0.22015743820E+02  0.18453930024E+03  0.20381350975E+03  0.00000000000E+00 0.  1.
         12    1    6    6    0    0  0.61590430974E+00 -0.33648866969E+02  0.17641432768E+03  0.17959576999E+03  0.00000000000E+00 0. -1.
         -5    1    3    3    0  503  0.34703392462E+02 -0.45047977422E+02  0.82105236581E+02  0.99985026839E+02  0.47000000000E+01 0.  1.
         13    1    4    4    0    0  0.49004533030E+02 -0.27452103884E+02  0.52391802494E+01  0.56413750761E+02  0.00000000000E+00 0. -1.
        -14    1    4    4    0    0  0.61960825284E+02  0.55202002351E+02 -0.65782372322E+01  0.83244688350E+02  0.00000000000E+00 0.  1.
</event>
<event>
12    1  0.1681255E-001  0.1719219E+03  0.7818608E-02  0.1176338E+00
         21   -1    0    0  501  502  0.00000000000E+00  0.00000000000E+00  0.28852811548E+03  0.28852811548E+03  0.00000000000E+00 0. -1.
         21   -1    0    0  502  503 -0.00000000000E+00 -0.00000000000E+00 -0.11746287145E+03  0.11746287145E+03  0.00000000000E+00 0. -1.
         -6    2    1    2    0  503 -0.55160504784E+01 -0.80793233391E+01  0.10720642387E+02  0.17225582784E+03  0.17164333885E+03 0.  0.
        -24    2    3    3    0    0  0.48142366729E+01 -0.73610167903E+02  0.95342307078E+00  0.10503607631E+03  0.74766534081E+02 0.  0.
          6    2    1    2  501    0  0.55160504784E+01  0.80793233391E+01  0.16034460164E+03  0.23373515909E+03  0.16978230484E+03 0.  0.
         24    2    5    5    0    0  0.64715566819E+02 -0.16121316144E+02  0.67269869760E+02  0.12070751025E+03  0.74813543089E+02 0.  0.
          5    1    5    5  501    0 -0.59199516341E+02  0.24200639484E+02  0.93074731885E+02  0.11302764884E+03  0.47000000000E+01 0. -1.
        -13    1    6    6    0    0  0.45103592228E+02 -0.45430995406E+02  0.35288791271E+02  0.73099987447E+02  0.00000000000E+00 0.  1.
         14    1    6    6    0    0  0.19611974592E+02  0.29309679262E+02  0.31981078489E+02  0.47607522800E+02  0.00000000000E+00 0. -1.
         -5    1    3    3    0  503 -0.10330287151E+02  0.65530844564E+02  0.97672193162E+01  0.67219751525E+02  0.47000000000E+01 0.  1.
         13    1    4    4    0    0  0.28239095982E+01 -0.27017989757E+02  0.37135803066E+02  0.46011021563E+02  0.00000000000E+00 0. -1.
        -14    1    4    4    0    0  0.19903270747E+01 -0.46592178146E+02 -0.36182379995E+02  0.59025054751E+02  0.00000000000E+00 0.  1.
</event>
<event>
12    1  0.1681255E-001  0.1776566E+03  0.7818608E-02  0.1173605E+00
         21   -1    0    0  501  502  0.00000000000E+00  0.00000000000E+00  0.19367534933E+03  0.19367534933E+03  0.00000000000E+00 0.  1.
         21   -1    0    0  502  503 -0.00000000000E+00 -0.00000000000E+00 -0.15116134872E+03  0.15116134872E+03  0.00000000000E+00 0.  1.
         -6    2    1    2    0  503  0.12374133148E+02  0.43687447091E+02  0.12135815243E+02  0.17807058583E+03  0.17175605760E+03 0.  0.
        -24    2    3    3    0    0 -0.14385865382E+02  0.22936047397E+02 -0.56874099697E+02  0.10105645420E+03  0.79023593483E+02 0.  0.
          6    2    1    2  501    0 -0.12374133148E+02 -0.43687447091E+02  0.30378185359E+02  0.16676611222E+03  0.15756392301E+03 0.  0.
         24    2    5    5    0    0 -0.34170336176E+02 -0.28165536998E+02  0.72530362669E+02  0.11661733146E+03  0.79862626673E+02 0.  0.
          5    1    5    5  501    0  0.21796203028E+02 -0.15521910093E+02 -0.42152177310E+02  0.50148780756E+02  0.47000000000E+01 0. -1.
        -13    1    6    6    0    0 -0.21833525728E+01 -0.31088645823E+02 -0.60309137256E+01  0.31743390618E+02  0.00000000000E+00 0.  1.
         14    1    6    6    0    0 -0.31986983603E+02  0.29231088254E+01  0.78561276394E+02  0.84873940841E+02  0.00000000000E+00 0. -1.
         -5    1    3    3    0  503  0.26759998530E+02  0.20751399694E+02  0.69009914940E+02  0.77014131630E+02  0.47000000000E+01 0.  1.
         13    1    4    4    0    0  0.21587441357E+02 -0.10178994071E+02 -0.44694300844E+02  0.50667643251E+02  0.00000000000E+00 0. -1.
        -14    1    4    4    0    0 -0.35973306740E+02  0.33115041468E+02 -0.12179798854E+02  0.50388810954E+02  0.00000000000E+00 0.  1.
</event>
<event>
12    1  0.1681255E-001  0.2010282E+03  0.7818608E-02  0.1149065E+00
         21   -1    0    0  503  502  0.00000000000E+00  0.00000000000E+00  0.12090731045E+04  0.12090731045E+04  0.00000000000E+00 0.  1.
         21   -1    0    0  501  503 -0.00000000000E+00 -0.00000000000E+00 -0.47867536562E+02  0.47867536562E+02  0.00000000000E+00 0.  1.
          6    2    1    2  501    0  0.74952665745E+01  0.10137003031E+03  0.23267232516E+03  0.30689521461E+03  0.17238387335E+03 0.  0.
         24    2    3    3    0    0 -0.28699367777E+02  0.11784590573E+03  0.12463941577E+03  0.19167930626E+03  0.80589461329E+02 0.  0.
         -6    2    1    2    0  502 -0.74952665745E+01 -0.10137003031E+03  0.92853324274E+03  0.95004542641E+03  0.17343663772E+03 0.  0.
        -24    2    5    5    0    0 -0.71536759118E+02 -0.50076596008E+02  0.51519576000E+03  0.52861655482E+03  0.79897544001E+02 0.  0.
          5    1    3    3  501    0  0.36194634352E+02 -0.16475875419E+02  0.10803290939E+03  0.11521590835E+03  0.47000000000E+01 0. -1.
        -13    1    4    4    0    0 -0.11125271912E+02 -0.10962279302E+02  0.13022818538E+02  0.20335610275E+02  0.00000000000E+00 0.  1.
         14    1    4    4    0    0 -0.17574095865E+02  0.12880818503E+03  0.11161659723E+03  0.17134369598E+03  0.00000000000E+00 0. -1.
         -5    1    5    5    0  502  0.64041492543E+02 -0.51293434299E+02  0.41333748274E+03  0.42142887159E+03  0.47000000000E+01 0.  1.
         11    1    6    6    0    0 -0.28663722283E+02 -0.66490274653E+02  0.30809699562E+03  0.31649063858E+03  0.00000000000E+00 0. -1.
        -12    1    6    6    0    0 -0.42873036835E+02  0.16413678645E+02  0.20709876438E+03  0.21212591624E+03  0.00000000000E+00 0.  1.
</event>
<event>
12    1  0.1681255E-001  0.1968750E+03  0.7818608E-02  0.1152608E+00
         21   -1    0    0  503  502  0.00000000000E+00  0.00000000000E+00  0.81429200131E+03  0.81429200131E+03  0.00000000000E+00 0. -1.
         21   -1    0    0  501  503 -0.00000000000E+00 -0.00000000000E+00 -0.47410949350E+02  0.47410949350E+02  0.00000000000E+00 0. -1.
          6    2    1    2  501    0  0.38794591424E+02  0.85948519540E+02  0.36987871851E+03  0.41856572298E+03  0.17174058843E+03 0.  0.
         24    2    3    3    0    0  0.41647541287E+02  0.32485279829E+02  0.69479205561E+02  0.11339623777E+03  0.72398450499E+02 0.  0.
         -6    2    1    2    0  502 -0.38794591424E+02 -0.85948519540E+02  0.39700233345E+03  0.44313722768E+03  0.17282239859E+03 0.  0.
        -24    2    5    5    0    0  0.80126282614E+00  0.10887811117E+02  0.99071985684E+02  0.12733715053E+03  0.79248376034E+02 0.  0.
          5    1    3    3  501    0 -0.28529498632E+01  0.53463239711E+02  0.30039951294E+03  0.30516948521E+03  0.47000000000E+01 0. -1.
        -11    1    4    4    0    0  0.56610614615E+02  0.42325381334E+01  0.51869122711E+02  0.76896566613E+02  0.00000000000E+00 0.  1.
         12    1    4    4    0    0 -0.14963073328E+02  0.28252741696E+02  0.17610082849E+02  0.36499671159E+02  0.00000000000E+00 0. -1.
         -5    1    5    5    0  502 -0.39595854250E+02 -0.96836330657E+02  0.29793034777E+03  0.31580007715E+03  0.47000000000E+01 0.  1.
         11    1    6    6    0    0  0.20990617453E+02 -0.28216516133E+02  0.35078735489E+02  0.49671878233E+02  0.00000000000E+00 0. -1.
        -12    1    6    6    0    0 -0.20189354626E+02  0.39104327250E+02  0.63993250196E+02  0.77665272294E+02  0.00000000000E+00 0.  1.
</event>
<event>
12    1  0.1681255E-001  0.2187156E+03  0.7818608E-02  0.1134866E+00
         21   -1    0    0  503  502  0.00000000000E+00  0.00000000000E+00  0.50044804651E+02  0.50044804651E+02  0.00000000000E+00 0.  1.
         21   -1    0    0  501  503 -0.00000000000E+00 -0.00000000000E+00 -0.11672803720E+04  0.11672803720E+04  0.00000000000E+00 0. -1.
          6    2    1    2  501    0  0.53314642329E+02  0.12319833635E+03 -0.81783479066E+03  0.84654580245E+03  0.17252759106E+03 0.  0.
         24    2    3    3    0    0  0.71071058810E+02  0.67580263619E+02 -0.30495938097E+03  0.33033660436E+03  0.80646516999E+02 0.  0.
         -6    2    1    2    0  502 -0.53314642329E+02 -0.12319833635E+03 -0.29940077674E+03  0.37077937424E+03  0.17267379097E+03 0.  0.
        -24    2    5    5    0    0 -0.58078056449E+02 -0.10962630907E+03 -0.31601647533E+03  0.34830580136E+03  0.77842984883E+02 0.  0.
          5    1    3    3  501    0 -0.17756416481E+02  0.55618072731E+02 -0.51287540968E+03  0.51620919810E+03  0.47000000000E+01 0. -1.
        -11    1    4    4    0    0 -0.15183584131E+02  0.96070067225E+00 -0.65471904920E+02  0.67216326192E+02  0.00000000000E+00 0.  1.
         12    1    4    4    0    0  0.86254642941E+02  0.66619562946E+02 -0.23948747605E+03  0.26312027817E+03  0.00000000000E+00 0. -1.
         -5    1    5    5    0  502  0.47634141196E+01 -0.13572027275E+02  0.16615698595E+02  0.22473572886E+02  0.47000000000E+01 0.  1.
         13    1    6    6    0    0  0.82412353983E+01 -0.67930499876E+01 -0.95660537062E+02  0.96254879565E+02  0.00000000000E+00 0. -1.
        -14    1    6    6    0    0 -0.66319291847E+02 -0.10283325909E+03 -0.22035593827E+03  0.25205092179E+03  0.00000000000E+00 0.  1.
</event>
<event>
12    1  0.1681255E-001  0.1855577E+03  0.7818608E-02  0.1162669E+00
         21   -1    0    0  501  502  0.00000000000E+00  0.00000000000E+00  0.19080739471E+03  0.19080739471E+03  0.00000000000E+00 0.  1.
         21   -1    0    0  502  503 -0.00000000000E+00 -0.00000000000E+00 -0.64268647356E+03  0.64268647356E+03  0.00000000000E+00 0.  1.
         -6    2    1    2    0  503  0.31128217227E+02  0.60943215992E+02 -0.57948918175E+03  0.60829177040E+03  0.17183749499E+03 0.  0.
        -24    2    3    3    0    0  0.73145481432E+02  0.29300938526E+02 -0.24326517339E+03  0.26794583166E+03  0.80051343958E+02 0.  0.
          6    2    1    2  501    0 -0.31128217227E+02 -0.60943215992E+02  0.12761010290E+03  0.22520209786E+03  0.17247783926E+03 0.  0.
         24    2    5    5    0    0 -0.29025940424E+02 -0.40613549650E+02  0.16144263318E+03  0.18539701017E+03  0.76265076794E+02 0.  0.
          5    1    5    5  501    0 -0.21022768023E+01 -0.20329666342E+02 -0.33832530280E+02  0.39805087695E+02  0.47000000000E+01 0. -1.
        -11    1    6    6    0    0 -0.46854588299E+02 -0.38167645244E+02  0.71253739068E+02  0.93430278386E+02  0.00000000000E+00 0.  1.
         12    1    6    6    0    0  0.17828647875E+02 -0.24459044068E+01  0.90188894113E+02  0.91966731783E+02  0.00000000000E+00 0. -1.
         -5    1    3    3    0  503 -0.42017264206E+02  0.31642277466E+02 -0.33622400836E+03  0.34034593874E+03  0.47000000000E+01 0.  1.
         13    1    4    4    0    0  0.38494106906E+01  0.15319678580E+02 -0.12817291070E+01  0.15847818271E+02  0.00000000000E+00 0. -1.
        -14    1    4    4    0    0  0.69296070742E+02  0.13981259946E+02 -0.24198344428E+03  0.25209801339E+03  0.00000000000E+00 0.  1.
</event>
<event>
12    1  0.1681255E-001  0.1809529E+03  0.7818608E-02  0.1167305E+00
         21   -1    0    0  503  502  0.00000000000E+00  0.00000000000E+00  0.24006692248E+03  0.24006692248E+03  0.00000000000E+00 0.  1.
         21   -1    0    0  501  503 -0.00000000000E+00 -0.00000000000E+00 -0.13696332985E+03  0.13696332985E+03  0.00000000000E+00 0.  1.
          6    2    1    2  501    0  0.21479340179E+02 -0.47072716975E+02  0.29228401135E+02  0.18157822504E+03  0.17157840667E+03 0.  0.
         24    2    3    3    0    0  0.25849100961E+02  0.32418736236E+02 -0.13777299050E+02  0.90971568596E+02  0.79792617729E+02 0.  0.
         -6    2    1    2    0  502 -0.21479340179E+02  0.47072716975E+02  0.73875191498E+02  0.19545202729E+03  0.17339765949E+03 0.  0.
        -24    2    5    5    0    0 -0.28286068273E+02  0.96225282179E+02  0.68711065261E+02  0.14534150531E+03  0.79646318734E+02 0.  0.
          5    1    3    3  501    0 -0.43697607825E+01 -0.79491453211E+02  0.43005700185E+02  0.90606656441E+02  0.47000000000E+01 0. -1.
        -11    1    4    4    0    0  0.30510712434E+02 -0.17839483073E+02 -0.19174975192E+02  0.40209829683E+02  0.00000000000E+00 0.  1.
         12    1    4    4    0    0 -0.46616114733E+01  0.50258219310E+02  0.53976761417E+01  0.50761738912E+02  0.00000000000E+00 0. -1.
         -5    1    5    5    0  502  0.68067280944E+01 -0.49152565204E+02  0.51641262372E+01  0.50110521982E+02  0.47000000000E+01 0.  1.
         13    1    6    6    0    0 -0.39604872870E+01  0.52677024165E+02 -0.84137127528E+01  0.53491540422E+02  0.00000000000E+00 0. -1.
        -14    1    6    6    0    0 -0.24325580986E+02  0.43548258014E+02  0.77124778013E+02  0.91849964888E+02  0.00000000000E+00 0.  1.
</event>
<event>
12    1  0.1681255E-001  0.1778242E+03  0.7818608E-02  0.1171220E+00
         21   -1    0    0  503  502  0.00000000000E+00  0.00000000000E+00  0.95475621116E+02  0.95475621116E+02  0.00000000000E+00 0.  1.
         21   -1    0    0  501  503 -0.00000000000E+00 -0.00000000000E+00 -0.48263647089E+03  0.48263647089E+03  0.00000000000E+00 0.  1.
          6    2    1    2  501    0  0.92555044937E+01  0.16573870516E+02 -0.36243542390E+03  0.40370890104E+03  0.17680803923E+03 0.  0.
         24    2    3    3    0    0  0.35356642504E+02 -0.52530922031E+02 -0.23686081347E+03  0.25794259992E+03  0.80135821941E+02 0.  0.
         -6    2    1    2    0  502 -0.92555044937E+01 -0.16573870516E+02 -0.24725425874E+02  0.17440319096E+03  0.17159478076E+03 0.  0.
        -24    2    5    5    0    0 -0.21321275104E+02 -0.33860326237E+02  0.45378594263E+02  0.10104742765E+03  0.80933598414E+02 0.  0.
          5    1    3    3  501    0 -0.26101138010E+02  0.69104792547E+02 -0.12557461043E+03  0.14576630112E+03  0.47000000000E+01 0. -1.
        -11    1    4    4    0    0  0.32733735332E+02 -0.30188215433E+02 -0.23021989277E+03  0.23448672629E+03  0.00000000000E+00 0.  1.
         12    1    4    4    0    0  0.26229071720E+01 -0.22342706598E+02 -0.66409207038E+01  0.23455873634E+02  0.00000000000E+00 0. -1.
         -5    1    5    5    0  502  0.12065770610E+02  0.17286455721E+02 -0.70104020137E+02  0.73355763312E+02  0.47000000000E+01 0.  1.
         11    1    6    6    0    0  0.18544762011E+02 -0.25154489028E+02 -0.94973526918E+01  0.32662765107E+02  0.00000000000E+00 0. -1.
        -12    1    6    6    0    0 -0.39866037114E+02 -0.87058372089E+01  0.54875946955E+02  0.68384662541E+02  0.00000000000E+00 0.  1.
</event>
<event>
12    1  0.1681255E-001  0.1967126E+03  0.7818608E-02  0.1152576E+00
         21   -1    0    0  501  502  0.00000000000E+00  0.00000000000E+00  0.17504518910E+03  0.17504518910E+03  0.00000000000E+00 0.  1.
         21   -1    0    0  502  503 -0.00000000000E+00 -0.00000000000E+00 -0.48478260110E+03  0.48478260110E+03  0.00000000000E+00 0.  1.
         -6    2    1    2    0  503  0.93857476408E+02 -0.15431937611E+01 -0.39830804840E+03  0.44423547403E+03  0.17287060952E+03 0.  0.
        -24    2    3    3    0    0  0.43439720374E+02 -0.55519542182E+02 -0.31589966248E+03  0.33347163343E+03  0.80257739068E+02 0.  0.
          6    2    1    2  501    0 -0.93857476408E+02  0.15431937611E+01  0.88570636399E+02  0.21559231617E+03  0.17269534399E+03 0.  0.
         24    2    5    5    0    0 -0.33597787403E+02  0.28424651167E+02  0.11296716424E+03  0.14508612182E+03  0.79697116855E+02 0.  0.
          5    1    5    5  501    0 -0.60259689004E+02 -0.26881457406E+02 -0.24396527845E+02  0.70506194353E+02  0.47000000000E+01 0. -1.
        -11    1    6    6    0    0  0.12244653053E+02  0.36974049837E+02  0.27348144496E+02  0.47591311152E+02  0.00000000000E+00 0.  1.
         12    1    6    6    0    0 -0.45842440457E+02 -0.85493986700E+01  0.85619019748E+02  0.97494810668E+02  0.00000000000E+00 0. -1.
         -5    1    3    3    0  503  0.50417756034E+02  0.53976348421E+02 -0.82408385927E+02  0.11076384060E+03  0.47000000000E+01 0.  1.
         13    1    4    4    0    0  0.17101914144E+02  0.20276362565E+02 -0.73983526837E+02  0.78594965420E+02  0.00000000000E+00 0. -1.
        -14    1    4    4    0    0  0.26337806230E+02 -0.75795904747E+02 -0.24191613564E+03  0.25487666801E+03  0.00000000000E+00 0.  1.
</event>
<event>
12    1  0.1681255E-001  0.1821826E+03  0.7818608E-02  0.1165832E+00
         21   -1    0    0  503  502  0.00000000000E+00  0.00000000000E+00  0.64291071167E+03  0.64291071167E+03  0.00000000000E+00 0.  1.
         21   -1    0    0  501  503 -0.00000000000E+00 -0.00000000000E+00 -0.10147040524E+03  0.10147040524E+03  0.00000000000E+00 0.  1.
          6    2    1    2  501    0 -0.13087531583E+02 -0.59393924147E+02  0.96715431654E+01  0.18243916341E+03  0.17173115003E+03 0.  0.
         24    2    3    3    0    0 -0.37095766372E+02 -0.93055060297E+02  0.35688017818E+02  0.13336356481E+03  0.80478976588E+02 0.  0.
         -6    2    1    2    0  502  0.13087531583E+02  0.59393924147E+02  0.53176876327E+03  0.56194195350E+03  0.17117774330E+03 0.  0.
        -24    2    5    5    0    0  0.21793533370E+02  0.77891776875E+02  0.20883240517E+03  0.23832497866E+03  0.81521377570E+02 0.  0.
          5    1    3    3  501    0  0.24008234790E+02  0.33661136150E+02 -0.26016474653E+02  0.49075598600E+02  0.47000000000E+01 0. -1.
        -11    1    4    4    0    0  0.16902914343E+02 -0.65867108636E+02  0.17199139355E+02  0.70142675369E+02  0.00000000000E+00 0.  1.
         12    1    4    4    0    0 -0.53998680716E+02 -0.27187951661E+02  0.18488878463E+02  0.63220889438E+02  0.00000000000E+00 0. -1.
         -5    1    5    5    0  502 -0.87060017868E+01 -0.18497852728E+02  0.32293635810E+03  0.32361697484E+03  0.47000000000E+01 0.  1.
         11    1    6    6    0    0  0.30297265959E+02 -0.78913565155E+00  0.29441833347E+02  0.42253622454E+02  0.00000000000E+00 0. -1.
        -12    1    6    6    0    0 -0.85037325891E+01  0.78680912527E+02  0.17939057183E+03  0.19607135620E+03  0.00000000000E+00 0.  1.
</event>
<event>
12    1  0.1681255E-001  0.2560698E+03  0.7818608E-02  0.1109860E+00
         21   -1    0    0  503  502  0.00000000000E+00  0.00000000000E+00  0.17251439100E+03  0.17251439100E+03  0.00000000000E+00 0. -1.
         21   -1    0    0  501  503 -0.00000000000E+00 -0.00000000000E+00 -0.84999172095E+03  0.84999172095E+03  0.00000000000E+00 0.  1.
          6    2    1    2  501    0 -0.13861493720E+03  0.12644900796E+03 -0.71952109579E+03  0.76300771779E+03  0.17107518140E+03 0.  0.
         24    2    3    3    0    0 -0.43925029601E+02 -0.53064750813E+00 -0.19392210978E+03  0.21403923454E+03  0.79229536474E+02 0.  0.
         -6    2    1    2    0  502  0.13861493720E+03 -0.12644900796E+03  0.42043765835E+02  0.25949839416E+03  0.17426498758E+03 0.  0.
        -24    2    5    5    0    0  0.12265395227E+03 -0.15700274696E+03  0.56327331941E+02  0.22188996069E+03  0.79803081223E+02 0.  0.
          5    1    3    3  501    0 -0.94689907596E+02  0.12697965547E+03 -0.52559898602E+03  0.54896848325E+03  0.47000000000E+01 0. -1.
        -13    1    4    4    0    0 -0.56309150014E+02  0.71785789182E+01 -0.19087478239E+03  0.19913672419E+03  0.00000000000E+00 0.  1.
         14    1    4    4    0    0  0.12384120413E+02 -0.77092264263E+01 -0.30473273913E+01  0.14902510350E+02  0.00000000000E+00 0. -1.
         -5    1    5    5    0  502  0.15960984931E+02  0.30553739000E+02 -0.14283566106E+02  0.37608433463E+02  0.47000000000E+01 0.  1.
         11    1    6    6    0    0 -0.54583355146E+01 -0.29703983672E+02 -0.60809735448E+01  0.30807439229E+02  0.00000000000E+00 0. -1.
        -12    1    6    6    0    0  0.12811228778E+03 -0.12729876329E+03  0.62408305486E+02  0.19108252146E+03  0.00000000000E+00 0.  1.
</event>
<event>
12    1  0.1681255E-001  0.1994583E+03  0.7818608E-02  0.1151059E+00
         21   -1    0    0  501  502  0.00000000000E+00  0.00000000000E+00  0.11755545707E+03  0.11755545707E+03  0.00000000000E+00 0. -1.
         21   -1    0    0  502  503 -0.00000000000E+00 -0.00000000000E+00 -0.92857325965E+03  0.92857325965E+03  0.00000000000E+00 0. -1.
         -6    2    1    2    0  503  0.97870933073E+02 -0.13608568077E+02 -0.82341186853E+03  0.84628573248E+03  0.16860760094E+03 0.  0.
        -24    2    3    3    0    0  0.81502568477E+02  0.46734968193E+02 -0.41041024208E+03  0.42855172718E+03  0.79957427093E+02 0.  0.
          6    2    1    2  501    0 -0.97870933073E+02  0.13608568077E+02  0.12394065954E+02  0.19984298424E+03  0.17326191968E+03 0.  0.
         24    2    5    5    0    0  0.18417470105E+02  0.20100594649E+01  0.34475038617E+00  0.82264099561E+02  0.80149982406E+02 0.  0.
          5    1    5    5  501    0 -0.11628840318E+03  0.11598508612E+02  0.12049315568E+02  0.11757888468E+03  0.47000000000E+01 0. -1.
        -11    1    6    6    0    0  0.24224731899E+01  0.34217673239E+02 -0.21217056456E+02  0.40334613211E+02  0.00000000000E+00 0.  1.
         12    1    6    6    0    0  0.15994996915E+02 -0.32207613774E+02  0.21561806842E+02  0.41929486350E+02  0.00000000000E+00 0. -1.
         -5    1    3    3    0  503  0.16368364596E+02 -0.60343536270E+02 -0.41300162645E+03  0.41773400530E+03  0.47000000000E+01 0.  1.
         13    1    4    4    0    0  0.29092209687E+01  0.33536237425E+02 -0.21330884573E+03  0.21594861994E+03  0.00000000000E+00 0. -1.
        -14    1    4    4    0    0  0.78593347509E+02  0.13198730768E+02 -0.19710139635E+03  0.21260310724E+03  0.00000000000E+00 0.  1.
</event>
<event>
12    1  0.1681255E-001  0.1905100E+03  0.7818608E-02  0.1158428E+00
         21   -1    0    0  503  502  0.00000000000E+00  0.00000000000E+00  0.15102217589E+03  0.15102217589E+03  0.00000000000E+00 0. -1.
         21   -1    0    0  501  503 -0.00000000000E+00 -0.00000000000E+00 -0.24753223867E+03  0.24753223867E+03  0.00000000000E+00 0. -1.
          6    2    1    2  501    0  0.86737078401E+01  0.81686053666E+02 -0.87231995053E+02  0.20781860536E+03  0.16979784216E+03 0.  0.
         24    2    3    3    0    0 -0.56528814657E+02  0.44104153806E+02 -0.25277979481E+02  0.11022681174E+03  0.79814099695E+02 0.  0.
         -6    2    1    2    0  502 -0.86737078401E+01 -0.81686053666E+02 -0.92780677273E+01  0.19073580921E+03  0.17189014457E+03 0.  0.
        -24    2    5    5    0    0 -0.53246148065E+02 -0.86033062907E+02  0.28762403188E+02  0.13178866047E+03  0.79398583070E+02 0.  0.
          5    1    3    3  501    0  0.65202522497E+02  0.37581899860E+02 -0.61954015572E+02  0.97591793623E+02  0.47000000000E+01 0. -1.
        -13    1    4    4    0    0  0.67749797117E+01 -0.11156419154E+02 -0.22666361184E+02  0.26155878264E+02  0.00000000000E+00 0.  1.
         14    1    4    4    0    0 -0.63303794368E+02  0.55260572960E+02 -0.26116182969E+01  0.84070933475E+02  0.00000000000E+00 0. -1.
         -5    1    5    5    0  502  0.44572440225E+02  0.43470092407E+01 -0.38040470915E+02  0.58947148739E+02  0.47000000000E+01 0.  1.
         13    1    6    6    0    0 -0.48012750614E+02 -0.34687831763E+02 -0.18245177107E+02  0.61978676831E+02  0.00000000000E+00 0. -1.
        -14    1    6    6    0    0 -0.52333974510E+01 -0.51345231144E+02  0.47007580295E+02  0.69809983636E+02  0.00000000000E+00 0.  1.
</event>
<event>
12    1  0.1681255E-001  0.1785524E+03  0.7818608E-02  0.1169269E+00
         21   -1    0    0  503  502  0.00000000000E+00  0.00000000000E+00  0.52486274080E+03  0.52486274080E+03  0.00000000000E+00 0.  1.
         21   -1    0    0  501  503 -0.00000000000E+00 -0.00000000000E+00 -0.24185117753E+03  0.24185117753E+03  0.00000000000E+00 0.  1.
          6    2    1    2  501    0 -0.63438916255E+02 -0.58941833370E+01 -0.19028537612E+03  0.26093958350E+03  0.16679839440E+03 0.  0.
         24    2    3    3    0    0 -0.23840479401E+02  0.10502534869E+02 -0.19962330334E+03  0.21682410488E+03  0.80526750341E+02 0.  0.
         -6    2    1    2    0  502  0.63438916255E+02  0.58941833370E+01  0.47329693939E+03  0.50577433484E+03  0.16654863389E+03 0.  0.
        -24    2    5    5    0    0 -0.27826206421E+02  0.28400000439E+01  0.28085517686E+03  0.29271431368E+03  0.77586569046E+02 0.  0.
          5    1    3    3  501    0 -0.39598436854E+02 -0.16396718206E+02  0.93379272191E+01  0.44115478621E+02  0.47000000000E+01 0. -1.
        -13    1    4    4    0    0  0.28789650990E+02  0.25610533479E+01 -0.46893099176E+02  0.55085077369E+02  0.00000000000E+00 0.  1.
         14    1    4    4    0    0 -0.52630130391E+02  0.79414815210E+01 -0.15273020417E+03  0.16173902751E+03  0.00000000000E+00 0. -1.
         -5    1    5    5    0  502  0.91265122675E+02  0.30541832931E+01  0.19244176253E+03  0.21306002116E+03  0.47000000000E+01 0.  1.
         13    1    6    6    0    0 -0.11591664637E+02  0.30259025522E+02  0.49419821130E+02  0.59095634654E+02  0.00000000000E+00 0. -1.
        -14    1    6    6    0    0 -0.16234541783E+02 -0.27419025478E+02  0.23143535573E+03  0.23361867902E+03  0.00000000000E+00 0.  1.
</event>
<event>
12    1  0.1681255E-001  0.2239932E+03  0.7818608E-02  0.1131213E+00
         21   -1    0    0  503  502  0.00000000000E+00  0.00000000000E+00  0.41966297163E+03  0.41966297163E+03  0.00000000000E+00 0. -1.
         21   -1    0    0  501  503 -0.00000000000E+00 -0.00000000000E+00 -0.12215216075E+03  0.12215216075E+03  0.00000000000E+00 0. -1.
          6    2    1    2  501    0 -0.11673035643E+02 -0.14110235710E+03  0.19341480822E+03  0.29481529439E+03  0.17164100567E+03 0.  0.
         24    2    3    3    0    0  0.24857305598E+02 -0.61316771065E+02  0.27699379141E+02  0.10724157820E+03  0.79723700581E+02 0.  0.
         -6    2    1    2    0  502  0.11673035643E+02  0.14110235710E+03  0.10409600266E+03  0.24699983799E+03  0.17357075577E+03 0.  0.
        -24    2    5    5    0    0 -0.53665051092E+02  0.10231570996E+03  0.96742148185E+02  0.17051690689E+03  0.79803070653E+02 0.  0.
          5    1    3    3  501    0 -0.36530341241E+02 -0.79785586034E+02  0.16571542908E+03  0.18757371619E+03  0.47000000000E+01 0. -1.
        -13    1    4    4    0    0  0.16482905293E+02  0.92250592223E+01  0.30806763352E+02  0.36136471228E+02  0.00000000000E+00 0.  1.
         14    1    4    4    0    0  0.83744003050E+01 -0.70541830288E+02 -0.31073842111E+01  0.71105106972E+02  0.00000000000E+00 0. -1.
         -5    1    5    5    0  502  0.65338086735E+02  0.38786647142E+02  0.73538544745E+01  0.76482931105E+02  0.47000000000E+01 0.  1.
         13    1    6    6    0    0 -0.68772340017E+02  0.10455173013E+03  0.85898645712E+02  0.15178694397E+03  0.00000000000E+00 0. -1.
        -14    1    6    6    0    0  0.15107288925E+02 -0.22360201745E+01  0.10843502473E+02  0.18729962915E+02  0.00000000000E+00 0.  1.
</event>
<event>
12    1  0.1681255E-001  0.2211438E+03  0.7818608E-02  0.1133199E+00
         21   -1    0    0  503  502  0.00000000000E+00  0.00000000000E+00  0.49344161797E+03  0.49344161797E+03  0.00000000000E+00 0. -1.
         21   -1    0    0  501  503 -0.00000000000E+00 -0.00000000000E+00 -0.46676291469E+03  0.46676291469E+03  0.00000000000E+00 0.  1.
          6    2    1    2  501    0 -0.10594148604E+03 -0.89261799722E+02 -0.41298035161E+03  0.46846277547E+03  0.17237556042E+03 0.  0.
         24    2    3    3    0    0 -0.20992597650E+02 -0.80200816999E+02 -0.32771628643E+03  0.34767177473E+03  0.81270156601E+02 0.  0.
         -6    2    1    2    0  502  0.10594148604E+03  0.89261799722E+02  0.43965905489E+03  0.49174175718E+03  0.17122676151E+03 0.  0.
        -24    2    5    5    0    0  0.54584606925E+02  0.44006878211E+02  0.39640808333E+03  0.41063520076E+03  0.81029716369E+02 0.  0.
          5    1    3    3  501    0 -0.84948888392E+02 -0.90609827223E+01 -0.85264065188E+02  0.12079100074E+03  0.47000000000E+01 0. -1.
        -11    1    4    4    0    0 -0.51675754515E+02 -0.58469002088E+02 -0.20617855419E+03  0.22045091068E+03  0.00000000000E+00 0.  1.
         12    1    4    4    0    0  0.30683156865E+02 -0.21731814911E+02 -0.12153773223E+03  0.12722086406E+03  0.00000000000E+00 0. -1.
         -5    1    5    5    0  502  0.51356879116E+02  0.45254921511E+02  0.43250971561E+02  0.81106556421E+02  0.47000000000E+01 0.  1.
         13    1    6    6    0    0  0.49788585121E+02  0.89509136869E+01  0.99449077648E+02  0.11157571917E+03  0.00000000000E+00 0. -1.
        -14    1    6    6    0    0  0.47960218048E+01  0.35055964524E+02  0.29695900568E+03  0.29905948159E+03  0.00000000000E+00 0.  1.
</event>
<event>
12    1  0.1681255E-001  0.2053577E+03  0.7818608E-02  0.1145451E+00
         21   -1    0    0  501  502  0.00000000000E+00  0.00000000000E+00  0.93546534631E+03  0.93546534631E+03  0.00000000000E+00 0. -1.
         21   -1    0    0  502  503 -0.00000000000E+00 -0.00000000000E+00 -0.73534989036E+02  0.73534989036E+02  0.00000000000E+00 0. -1.
         -6    2    1    2    0  503  0.52111050780E+01  0.11157626292E+03  0.11573914715E+03  0.23506681938E+03  0.17141890599E+03 0.  0.
        -24    2    3    3    0    0 -0.48816505727E+02  0.75870359781E+00  0.52097187866E+02  0.96243539040E+02  0.64537391959E+02 0.  0.
          6    2    1    2  501    0 -0.52111050780E+01 -0.11157626292E+03  0.74619121013E+03  0.77393351596E+03  0.17232337912E+03 0.  0.
         24    2    5    5    0    0 -0.39315312716E+02 -0.10544716085E+03  0.34450052489E+03  0.37072369530E+03  0.78042610549E+02 0.  0.
          5    1    5    5  501    0  0.34104207638E+02 -0.61291020712E+01  0.40169068523E+03  0.40320982066E+03  0.47000000000E+01 0. -1.
        -13    1    6    6    0    0  0.27416636906E+01  0.90251624211E+01  0.66630457596E+01  0.11548439519E+02  0.00000000000E+00 0.  1.
         14    1    6    6    0    0 -0.42056976406E+02 -0.11447232327E+03  0.33783747913E+03  0.35917525579E+03  0.00000000000E+00 0. -1.
         -5    1    3    3    0  503  0.54027610805E+02  0.11081755933E+03  0.63641959279E+02  0.13882328034E+03  0.47000000000E+01 0.  1.
         11    1    4    4    0    0 -0.11187326697E+02  0.24294649632E+02  0.43454664623E+02  0.51026406466E+02  0.00000000000E+00 0. -1.
        -12    1    4    4    0    0 -0.37629179030E+02 -0.23535946034E+02  0.86425232431E+01  0.45217132574E+02  0.00000000000E+00 0.  1.
</event>
<event>
12    1  0.1681255E-001  0.1850811E+03  0.7818608E-02  0.1163010E+00
         21   -1    0    0  503  502  0.00000000000E+00  0.00000000000E+00  0.11503472173E+03  0.11503472173E+03  0.00000000000E+00 0. -1.
         21   -1    0    0  501  503 -0.00000000000E+00 -0.00000000000E+00 -0.39126864833E+03  0.39126864833E+03  0.00000000000E+00 0. -1.
          6    2    1    2  501    0 -0.37272214790E+02  0.55409856537E+02 -0.26206655760E+03  0.32083312504E+03  0.17261385609E+03 0.  0.
         24    2    3    3    0    0  0.11604092030E+01  0.58868025588E+01 -0.43672233486E+02  0.93571667094E+02  0.82537215311E+02 0.  0.
         -6    2    1    2    0  502  0.37272214790E+02 -0.55409856537E+02 -0.14167369003E+02  0.18547024502E+03  0.17245007175E+03 0.  0.
        -24    2    5    5    0    0  0.77223438299E+02  0.48564942232E+01 -0.14109496960E+02  0.11301179732E+03  0.81151361484E+02 0.  0.
          5    1    3    3  501    0 -0.38432623993E+02  0.49523053978E+02 -0.21839432411E+03  0.22726145794E+03  0.47000000000E+01 0. -1.
        -11    1    4    4    0    0  0.41612543275E+02  0.45628163004E+01 -0.17497630643E+02  0.45371688623E+02  0.00000000000E+00 0.  1.
         12    1    4    4    0    0 -0.40452134072E+02  0.13239862584E+01 -0.26174602842E+02  0.48199978471E+02  0.00000000000E+00 0. -1.
         -5    1    5    5    0  502 -0.39951223508E+02 -0.60266350761E+02 -0.57872043070E-01  0.72458447699E+02  0.47000000000E+01 0.  1.
         13    1    6    6    0    0  0.59129815837E+02  0.25191387507E+01  0.29215889062E+02  0.66001889023E+02  0.00000000000E+00 0. -1.
        -14    1    6    6    0    0  0.18093622462E+02  0.23373554725E+01 -0.43325386021E+02  0.47009908299E+02  0.00000000000E+00 0.  1.
</event>
<event>
12    1  0.1681255E-001  0.2827479E+03  0.7818608E-02  0.1094312E+00
         21   -1    0    0  501  502  0.00000000000E+00  0.00000000000E+00  0.11195469807E+03  0.11195469807E+03  0.00000000000E+00 0. -1.
         21   -1    0    0  502  503 -0.00000000000E+00 -0.00000000000E+00 -0.75699659926E+03  0.75699659926E+03  0.00000000000E+00 0. -1.
         -6    2    1    2    0  503 -0.21203055489E+03 -0.68574320295E+02 -0.42894310393E+03  0.51374952525E+03  0.17403159101E+03 0.  0.
        -24    2    3    3    0    0 -0.16605302090E+03 -0.29826766997E+00 -0.36606195452E+03  0.41005920774E+03  0.81077152089E+02 0.  0.
          6    2    1    2  501    0  0.21203055489E+03  0.68574320295E+02 -0.21609879725E+03  0.35520177208E+03  0.17265634973E+03 0.  0.
         24    2    5    5    0    0  0.18250060410E+03  0.10903388728E+03 -0.15463980928E+03  0.27577701676E+03  0.83334466387E+02 0.  0.
          5    1    5    5  501    0  0.29529950795E+02 -0.40459566983E+02 -0.61458987977E+02  0.79424755320E+02  0.47000000000E+01 0. -1.
        -13    1    6    6    0    0  0.45827708422E+02  0.51669177542E+02 -0.12060088938E+02  0.70109403879E+02  0.00000000000E+00 0.  1.
         14    1    6    6    0    0  0.13667289568E+03  0.57364709736E+02 -0.14257972034E+03  0.20566761288E+03  0.00000000000E+00 0. -1.
         -5    1    3    3    0  503 -0.45977533996E+02 -0.68276052625E+02 -0.62881149415E+02  0.10369031751E+03  0.47000000000E+01 0.  1.
         13    1    4    4    0    0 -0.90919607520E+02 -0.12763942510E+02 -0.11196840251E+03  0.14479715612E+03  0.00000000000E+00 0. -1.
        -14    1    4    4    0    0 -0.75133413379E+02  0.12465674840E+02 -0.25409355201E+03  0.26526205162E+03  0.00000000000E+00 0.  1.
</event>
<event>
12    1  0.1681255E-001  0.1753175E+03  0.7818608E-02  0.1172783E+00
         21   -1    0    0  501  502  0.00000000000E+00  0.00000000000E+00  0.92705233920E+02  0.92705233920E+02  0.00000000000E+00 0. -1.
         21   -1    0    0  502  503 -0.00000000000E+00 -0.00000000000E+00 -0.66759380033E+03  0.66759380033E+03  0.00000000000E+00 0. -1.
         -6    2    1    2    0  503 -0.33113528957E+02  0.61789402507E+01 -0.55886009910E+03  0.58571396037E+03  0.17205100379E+03 0.  0.
        -24    2    3    3    0    0  0.14341701668E+02  0.53543175840E+02 -0.25767453394E+03  0.27712004535E+03  0.85596717278E+02 0.  0.
          6    2    1    2  501    0  0.33113528957E+02 -0.61789402507E+01 -0.16028467306E+02  0.17458507388E+03  0.17055307430E+03 0.  0.
         24    2    5    5    0    0  0.75553915887E+02  0.93830517106E+01 -0.48823902857E+02  0.11854051455E+03  0.76626654861E+02 0.  0.
          5    1    5    5  501    0 -0.42440386930E+02 -0.15561991961E+02  0.32795435550E+02  0.56044559322E+02  0.47000000000E+01 0. -1.
        -13    1    6    6    0    0  0.32950509041E+02  0.42451698857E+02 -0.29126236551E+02  0.61124630367E+02  0.00000000000E+00 0.  1.
         14    1    6    6    0    0  0.42603406846E+02 -0.33068647147E+02 -0.19697666306E+02  0.57415884186E+02  0.00000000000E+00 0. -1.
         -5    1    3    3    0  503 -0.47455230624E+02 -0.47364235590E+02 -0.30118556516E+03  0.30859391502E+03  0.47000000000E+01 0.  1.
         13    1    4    4    0    0 -0.31179470769E+02  0.24437308173E+02 -0.16641519280E+03  0.17106536126E+03  0.00000000000E+00 0. -1.
        -14    1    4    4    0    0  0.45521172437E+02  0.29105867667E+02 -0.91259341144E+02  0.10605468410E+03  0.00000000000E+00 0.  1.
</event>
<event>
12    1  0.1681255E-001  0.1826366E+03  0.7818608E-02  0.1165372E+00
         21   -1    0    0  501  502  0.00000000000E+00  0.00000000000E+00  0.11092614255E+04  0.11092614255E+04  0.00000000000E+00 0.  1.
         21   -1    0    0  502  503 -0.00000000000E+00 -0.00000000000E+00 -0.43413996191E+02  0.43413996191E+02  0.00000000000E+00 0.  1.
         -6    2    1    2    0  503 -0.26716156901E+02  0.56243514389E+02  0.21301586301E+03  0.28059199596E+03  0.17169456705E+03 0.  0.
        -24    2    3    3    0    0  0.16151075531E+02  0.21323795218E+02  0.30876080082E+02  0.90187224681E+02  0.80404239261E+02 0.  0.
          6    2    1    2  501    0  0.26716156901E+02 -0.56243514389E+02  0.85283156629E+03  0.87208342571E+03  0.17126218203E+03 0.  0.
         24    2    5    5    0    0  0.83741363524E+02 -0.26495098761E+02  0.55195388737E+03  0.56437201856E+03  0.78409663453E+02 0.  0.
          5    1    5    5  501    0 -0.57025206623E+02 -0.29748415627E+02  0.30087767892E+03  0.30771140715E+03  0.47000000000E+01 0. -1.
        -13    1    6    6    0    0  0.52192917347E+02 -0.36511139569E+02  0.49006927703E+03  0.49419131946E+03  0.00000000000E+00 0.  1.
         14    1    6    6    0    0  0.31548446177E+02  0.10016040807E+02  0.61884610336E+02  0.70180699100E+02  0.00000000000E+00 0. -1.
         -5    1    3    3    0  503 -0.42867232432E+02  0.34919719171E+02  0.18213978292E+03  0.19040477128E+03  0.47000000000E+01 0.  1.
         13    1    4    4    0    0  0.48892244096E+02  0.12921745553E+02  0.22573957595E+02  0.55380561593E+02  0.00000000000E+00 0. -1.
        -14    1    4    4    0    0 -0.32741168565E+02  0.84020496652E+01  0.83021224870E+01  0.34806663088E+02  0.00000000000E+00 0.  1.
</event>
<event>
12    1  0.1681255E-001  0.2128439E+03  0.7818608E-02  0.1139381E+00
         21   -1    0    0  503  502  0.00000000000E+00  0.00000000000E+00  0.61852961154E+03  0.61852961154E+03  0.00000000000E+00 0.  1.
         21   -1    0    0  501  503 -0.00000000000E+00 -0.00000000000E+00 -0.12624930919E+03  0.12624930919E+03  0.00000000000E+00 0.  1.
          6    2    1    2  501    0 -0.11815057925E+03  0.43496122466E+02  0.45723825282E+01  0.21264965118E+03  0.17131110710E+03 0.  0.
         24    2    3    3    0    0 -0.12738223583E+03 -0.11518417978E+02  0.24365659672E+02  0.15327215575E+03  0.80868785077E+02 0.  0.
         -6    2    1    2    0  502  0.11815057925E+03 -0.43496122466E+02  0.48770791982E+03  0.53212926955E+03  0.17161314755E+03 0.  0.
        -24    2    5    5    0    0  0.77438134152E+02 -0.12835706985E+02  0.12970937032E+03  0.17049047779E+03  0.77981166144E+02 0.  0.
          5    1    3    3  501    0  0.92316565732E+01  0.55014540444E+02 -0.19793277144E+02  0.59377495429E+02  0.47000000000E+01 0. -1.
        -11    1    4    4    0    0 -0.16531527920E+02  0.27789366318E+02  0.13893007848E+02  0.35193123800E+02  0.00000000000E+00 0.  1.
         12    1    4    4    0    0 -0.11085070791E+03 -0.39307784297E+02  0.10472651824E+02  0.11807903195E+03  0.00000000000E+00 0. -1.
         -5    1    5    5    0  502  0.40712445103E+02 -0.30660415481E+02  0.35799854950E+03  0.36163879176E+03  0.47000000000E+01 0.  1.
         11    1    6    6    0    0 -0.14900485380E+02  0.29833658666E+01  0.30274819054E+02  0.33874615942E+02  0.00000000000E+00 0. -1.
        -12    1    6    6    0    0  0.92338619531E+02 -0.15819072852E+02  0.99434551266E+02  0.13661586185E+03  0.00000000000E+00 0.  1.
</event>
<event>
12    1  0.1681255E-001  0.2308878E+03  0.7818608E-02  0.1128114E+00
         21   -1    0    0  501  502  0.00000000000E+00  0.00000000000E+00  0.48653511221E+03  0.48653511221E+03  0.00000000000E+00 0. -1.
         21   -1    0    0  502  503 -0.00000000000E+00 -0.00000000000E+00 -0.10422975434E+03  0.10422975434E+03  0.00000000000E+00 0. -1.
         -6    2    1    2    0  503 -0.75530592206E+02  0.13451908168E+03  0.20610565780E+03  0.30949752069E+03  0.17178160391E+03 0.  0.
        -24    2    3    3    0    0  0.27115969417E+02  0.71361261482E+02  0.10804925879E+03  0.15405500961E+03  0.78934138515E+02 0.  0.
          6    2    1    2  501    0  0.75530592206E+02 -0.13451908168E+03  0.17619970007E+03  0.28126734586E+03  0.15577140896E+03 0.  0.
         24    2    5    5    0    0 -0.10105560552E+02 -0.33223892790E+02  0.66782058369E+02  0.10925404328E+03  0.79187456368E+02 0.  0.
          5    1    5    5  501    0  0.85636152758E+02 -0.10129518889E+03  0.10941764170E+03  0.17201330259E+03  0.47000000000E+01 0. -1.
        -11    1    6    6    0    0  0.14322219084E+02  0.20400244999E+02  0.32918699032E+02  0.41290879157E+02  0.00000000000E+00 0.  1.
         12    1    6    6    0    0 -0.24427779636E+02 -0.53624137789E+02  0.33863359336E+02  0.67963164120E+02  0.00000000000E+00 0. -1.
         -5    1    3    3    0  503 -0.10264656162E+03  0.63157820199E+02  0.98056399003E+02  0.15544251108E+03  0.47000000000E+01 0.  1.
         11    1    4    4    0    0  0.13835029570E+02  0.82393574272E+02  0.10830856643E+03  0.13678762622E+03  0.00000000000E+00 0. -1.
        -12    1    4    4    0    0  0.13280939847E+02 -0.11032312790E+02 -0.25930763942E+00  0.17267383391E+02  0.00000000000E+00 0.  1.
</event>
<event>
12    1  0.1681255E-001  0.2589471E+03  0.7818608E-02  0.1109111E+00
         21   -1    0    0  503  502  0.00000000000E+00  0.00000000000E+00  0.11197767061E+04  0.11197767061E+04  0.00000000000E+00 0.  1.
         21   -1    0    0  501  503 -0.00000000000E+00 -0.00000000000E+00 -0.14817232799E+03  0.14817232799E+03  0.00000000000E+00 0. -1.
          6    2    1    2  501    0 -0.17142891302E+03  0.61576580214E+02 -0.57992157570E+01  0.25901205674E+03  0.18404908906E+03 0.  0.
         24    2    3    3    0    0 -0.94562452274E+02 -0.37303503071E+02  0.20222605946E+02  0.13100835030E+03  0.80128804657E+02 0.  0.
         -6    2    1    2    0  502  0.17142891302E+03 -0.61576580214E+02  0.97740359390E+03  0.10089369774E+04  0.17162893553E+03 0.  0.
        -24    2    5    5    0    0  0.15467776313E+03 -0.21047128330E+02  0.50919135862E+03  0.53865193110E+03  0.80634181124E+02 0.  0.
          5    1    3    3  501    0 -0.76866460748E+02  0.98880083285E+02 -0.26021821703E+02  0.12800370644E+03  0.47000000000E+01 0. -1.
        -13    1    4    4    0    0  0.47328674922E+01 -0.27836533141E+02  0.12756019516E+02  0.30983683543E+02  0.00000000000E+00 0.  1.
         14    1    4    4    0    0 -0.99295319766E+02 -0.94669699306E+01  0.74665864296E+01  0.10002466676E+03  0.00000000000E+00 0. -1.
         -5    1    5    5    0  502  0.16751149896E+02 -0.40529451884E+02  0.46821223529E+03  0.47028504629E+03  0.47000000000E+01 0.  1.
         11    1    6    6    0    0  0.64262230871E+02  0.24030005179E+02  0.14030905138E+03  0.15618484358E+03  0.00000000000E+00 0. -1.
        -12    1    6    6    0    0  0.90415532255E+02 -0.45077133509E+02  0.36888230724E+03  0.38246708752E+03  0.00000000000E+00 0.  1.
</event>
<event>
12    1  0.1681255E-001  0.1804042E+03  0.7818608E-02  0.1167771E+00
         21   -1    0    0  503  502  0.00000000000E+00  0.00000000000E+00  0.16254240517E+03  0.16254240517E+03  0.00000000000E+00 0.  1.
         21   -1    0    0  501  503 -0.00000000000E+00 -0.00000000000E+00 -0.20925040837E+03  0.20925040837E+03  0.00000000000E+00 0.  1.
          6    2    1    2  501    0 -0.17173576220E+02 -0.49303824479E+02 -0.65405700939E+02  0.19189475130E+03  0.17268436823E+03 0.  0.
         24    2    3    3    0    0  0.22670067034E+02 -0.55881943476E+02  0.19946477615E+02  0.97354432169E+02  0.73778722866E+02 0.  0.
         -6    2    1    2    0  502  0.17173576220E+02  0.49303824479E+02  0.18697697741E+02  0.17989806224E+03  0.17113710898E+03 0.  0.
        -24    2    5    5    0    0 -0.36636362859E+02  0.10002721666E+02 -0.34469163195E+02  0.94523058126E+02  0.79399041442E+02 0.  0.
          5    1    3    3  501    0 -0.39843643254E+02  0.65781189970E+01 -0.85352178553E+02  0.94540319129E+02  0.47000000000E+01 0. -1.
        -13    1    4    4    0    0  0.99759413475E+00 -0.68961259271E+02  0.82191487899E+01  0.69456496321E+02  0.00000000000E+00 0.  1.
         14    1    4    4    0    0  0.21672472899E+02  0.13079315795E+02  0.11727328825E+02  0.27897935848E+02  0.00000000000E+00 0. -1.
         -5    1    5    5    0  502  0.53809939079E+02  0.39301102814E+02  0.53166860936E+02  0.85375004116E+02  0.47000000000E+01 0.  1.
         13    1    6    6    0    0  0.15186840839E+02  0.12548226990E+02 -0.37699979281E+02  0.42536884854E+02  0.00000000000E+00 0. -1.
        -14    1    6    6    0    0 -0.51823203698E+02 -0.25455053247E+01  0.32308160865E+01  0.51986173272E+02  0.00000000000E+00 0.  1.
</event>
<event>
12    1  0.1681255E-001  0.2896174E+03  0.7818608E-02  0.1090945E+00
         21   -1    0    0  501  502  0.00000000000E+00  0.00000000000E+00  0.27097073169E+03  0.27097073169E+03  0.00000000000E+00 0.  1.
         21   -1    0    0  502  503 -0.00000000000E+00 -0.00000000000E+00 -0.50804673177E+03  0.50804673177E+03  0.00000000000E+00 0. -1.
         -6    2    1    2    0  503  0.16225794419E+03  0.16135301665E+03 -0.36434276154E+03  0.46542870263E+03  0.17752687942E+03 0.  0.
        -24    2    3    3    0    0  0.35866602904E+02  0.10498643402E+03 -0.10708872790E+03  0.17327516318E+03  0.79042532859E+02 0.  0.
          6    2    1    2  501    0 -0.16225794419E+03 -0.16135301665E+03  0.12726676146E+03  0.31358876083E+03  0.17256490348E+03 0.  0.
         24    2    5    5    0    0 -0.16706032331E+03 -0.12360366824E+03  0.51480200604E+02  0.22865485148E+03  0.80285812110E+02 0.  0.
          5    1    5    5  501    0  0.48023791243E+01 -0.37749348409E+02  0.75786560853E+02  0.84933909344E+02  0.47000000000E+01 0. -1.
        -11    1    6    6    0    0 -0.31397470232E+02  0.42941804833E+01  0.24944623607E+02  0.40329584301E+02  0.00000000000E+00 0.  1.
         12    1    6    6    0    0 -0.13566285308E+03 -0.12789784872E+03  0.26535576997E+02  0.18832526718E+03  0.00000000000E+00 0. -1.
         -5    1    3    3    0  503  0.12639134129E+03  0.56366582626E+02 -0.25725403364E+03  0.29215353945E+03  0.47000000000E+01 0.  1.
         13    1    4    4    0    0 -0.12318640824E+02  0.29528759040E+02 -0.68849277722E+02  0.75920481855E+02  0.00000000000E+00 0. -1.
        -14    1    4    4    0    0  0.48185243728E+02  0.75457674980E+02 -0.38239450175E+02  0.97354681326E+02  0.00000000000E+00 0.  1.
</event>
<event>
12    1  0.1681255E-001  0.2112180E+03  0.7818608E-02  0.1141059E+00
         21   -1    0    0  503  502  0.00000000000E+00  0.00000000000E+00  0.63326353816E+02  0.63326353816E+02  0.00000000000E+00 0.  1.
         21   -1    0    0  501  503 -0.00000000000E+00 -0.00000000000E+00 -0.71659898685E+03  0.71659898685E+03  0.00000000000E+00 0.  1.
          6    2    1    2  501    0  0.16922751705E+02 -0.11666049384E+03 -0.26015535252E+03  0.33365832216E+03  0.17248483457E+03 0.  0.
         24    2    3    3    0    0  0.35258190793E+02 -0.43389624663E+02 -0.49634870350E+02  0.10994919850E+03  0.80618895736E+02 0.  0.
         -6    2    1    2    0  502 -0.16922751705E+02  0.11666049384E+03 -0.39311728051E+03  0.44626701850E+03  0.17526267492E+03 0.  0.
        -24    2    5    5    0    0 -0.23485268371E+01  0.73045380514E+02 -0.38479150202E+03  0.39929793582E+03  0.77673665612E+02 0.  0.
          5    1    3    3  501    0 -0.18335439087E+02 -0.73270869175E+02 -0.21052048217E+03  0.22370912366E+03  0.47000000000E+01 0. -1.
        -13    1    4    4    0    0  0.51367173236E+02 -0.39608384308E+02 -0.61659441876E+02  0.89494677866E+02  0.00000000000E+00 0.  1.
         14    1    4    4    0    0 -0.16108982444E+02 -0.37812403544E+01  0.12024571526E+02  0.20454520634E+02  0.00000000000E+00 0. -1.
         -5    1    5    5    0  502 -0.14574224868E+02  0.43615113324E+02 -0.83257784928E+01  0.46969082686E+02  0.47000000000E+01 0.  1.
         13    1    6    6    0    0 -0.20126390584E+02 -0.35862708512E+01 -0.15656660141E+03  0.15789564152E+03  0.00000000000E+00 0. -1.
        -14    1    6    6    0    0  0.17777863747E+02  0.76631651365E+02 -0.22822490061E+03  0.24140229429E+03  0.00000000000E+00 0.  1.
</event>
<event>
12    1  0.1681255E-001  0.2810179E+03  0.7818608E-02  0.1095283E+00
         21   -1    0    0  501  502  0.00000000000E+00  0.00000000000E+00  0.90454056660E+03  0.90454056660E+03  0.00000000000E+00 0. -1.
         21   -1    0    0  502  503 -0.00000000000E+00 -0.00000000000E+00 -0.10171037945E+03  0.10171037945E+03  0.00000000000E+00 0.  1.
         -6    2    1    2    0  503  0.21970444758E+03  0.17969429955E+02  0.59230158214E+03  0.65511941512E+03  0.17253213951E+03 0.  0.
        -24    2    3    3    0    0  0.23151794560E+03  0.49371337996E+00  0.58179650464E+03  0.63109014009E+03  0.78656145440E+02 0.  0.
          6    2    1    2  501    0 -0.21970444758E+03 -0.17969429955E+02  0.21052860501E+03  0.35113153092E+03  0.17429318340E+03 0.  0.
         24    2    5    5    0    0 -0.21150368715E+03 -0.35483561388E+02  0.22944902262E+03  0.32367120547E+03  0.78251533312E+02 0.  0.
          5    1    5    5  501    0 -0.82007604354E+01  0.17514131433E+02 -0.18920417605E+02  0.27460325452E+02  0.47000000000E+01 0. -1.
        -13    1    6    6    0    0  0.26628099252E+00 -0.24488483619E+01 -0.52702785775E+01  0.58175252600E+01  0.00000000000E+00 0.  1.
         14    1    6    6    0    0 -0.21176996814E+03 -0.33034713026E+02  0.23471930119E+03  0.31785368021E+03  0.00000000000E+00 0. -1.
         -5    1    3    3    0  503 -0.11813498024E+02  0.17475716575E+02  0.10505077500E+02  0.24029275034E+02  0.47000000000E+01 0.  1.
         13    1    4    4    0    0  0.57066949965E+02 -0.28663174799E+02  0.10949769849E+03  0.12675945859E+03  0.00000000000E+00 0. -1.
        -14    1    4    4    0    0  0.17445099564E+03  0.29156888179E+02  0.47229880615E+03  0.50433068150E+03  0.00000000000E+00 0.  1.
</event>
<event>
12    1  0.1681255E-001  0.1893124E+03  0.7818608E-02  0.1159112E+00
         21   -1    0    0  503  502  0.00000000000E+00  0.00000000000E+00  0.64548420117E+03  0.64548420117E+03  0.00000000000E+00 0.  1.
         21   -1    0    0  501  503 -0.00000000000E+00 -0.00000000000E+00 -0.15612585003E+03  0.15612585003E+03  0.00000000000E+00 0. -1.
          6    2    1    2  501    0  0.41403515509E+02 -0.66410004030E+02 -0.77147771965E+02  0.20430915154E+03  0.17223794864E+03 0.  0.
         24    2    3    3    0    0  0.88869208138E+02 -0.75433381707E+02 -0.57421115178E+02  0.15191025547E+03  0.78686784265E+02 0.  0.
         -6    2    1    2    0  502 -0.41403515509E+02  0.66410004030E+02  0.56650612311E+03  0.59730089965E+03  0.17237934179E+03 0.  0.
        -24    2    5    5    0    0 -0.19641186141E+02  0.95665883304E+02  0.26336167486E+03  0.29193529590E+03  0.79555689845E+02 0.  0.
          5    1    3    3  501    0 -0.47465692629E+02  0.90233776773E+01 -0.19726656787E+02  0.52398896071E+02  0.47000000000E+01 0. -1.
        -11    1    4    4    0    0  0.40234682347E+02  0.22303580496E+01  0.56172923675E+01  0.40686092638E+02  0.00000000000E+00 0.  1.
         12    1    4    4    0    0  0.48634525791E+02 -0.77663739757E+02 -0.63038407546E+02  0.11122416283E+03  0.00000000000E+00 0. -1.
         -5    1    5    5    0  502 -0.21762329368E+02 -0.29255879274E+02  0.30314444825E+03  0.30536560375E+03  0.47000000000E+01 0.  1.
         13    1    6    6    0    0 -0.47345794562E+02  0.81957960978E+02  0.20816012414E+03  0.22866868809E+03  0.00000000000E+00 0. -1.
        -14    1    6    6    0    0  0.27704608420E+02  0.13707922326E+02  0.55201550720E+02  0.63266607812E+02  0.00000000000E+00 0.  1.
</event>
<event>
12    1  0.1681255E-001  0.1886962E+03  0.7818608E-02  0.1159812E+00
         21   -1    0    0  503  502  0.00000000000E+00  0.00000000000E+00  0.10429800135E+03  0.10429800135E+03  0.00000000000E+00 0.  1.
         21   -1    0    0  501  503 -0.00000000000E+00 -0.00000000000E+00 -0.34027473033E+03  0.34027473033E+03  0.00000000000E+00 0.  1.
          6    2    1    2  501    0 -0.74525746973E+02 -0.22574335926E+01 -0.11243251083E+03  0.21965274591E+03  0.17334092513E+03 0.  0.
         24    2    3    3    0    0 -0.24681222772E+02  0.26509657223E+02  0.61795721260E+01  0.87732549078E+02  0.79667360773E+02 0.  0.
         -6    2    1    2    0  502  0.74525746973E+02  0.22574335926E+01 -0.12354421815E+03  0.22491998578E+03  0.17253012258E+03 0.  0.
        -24    2    5    5    0    0  0.24420909376E+02  0.65429929434E+02 -0.88256407052E+02  0.13678044532E+03  0.77731849035E+02 0.  0.
          5    1    3    3  501    0 -0.49844524201E+02 -0.28767090816E+02 -0.11861208296E+03  0.13192019683E+03  0.47000000000E+01 0. -1.
        -11    1    4    4    0    0 -0.49582874655E+02 -0.18074492802E+01  0.64657267801E+00  0.49620020034E+02  0.00000000000E+00 0.  1.
         12    1    4    4    0    0  0.24901651883E+02  0.28317106503E+02  0.55329994480E+01  0.38112529044E+02  0.00000000000E+00 0. -1.
         -5    1    5    5    0  502  0.50104837597E+02 -0.63172495842E+02 -0.35287811095E+02  0.88139540465E+02  0.47000000000E+01 0.  1.
         13    1    6    6    0    0 -0.22815159715E+02  0.11259158799E+02 -0.35463195976E+01  0.25688062449E+02  0.00000000000E+00 0. -1.
        -14    1    6    6    0    0  0.47236069091E+02  0.54170770635E+02 -0.84710087454E+02  0.11109238287E+03  0.00000000000E+00 0.  1.
</event>
<event>
12    1  0.1681255E-001  0.7231316E+03  0.7818608E-02  0.9678599E-01
         21   -1    0    0  501  502  0.00000000000E+00  0.00000000000E+00  0.23561847821E+03  0.23561847821E+03  0.00000000000E+00 0. -1.
         21   -1    0    0  502  503 -0.00000000000E+00 -0.00000000000E+00 -0.22835140884E+04  0.22835140884E+04  0.00000000000E+00 0. -1.
         -6    2    1    2    0  503 -0.68931888597E+03 -0.13386610023E+03 -0.12368639459E+04  0.14327427530E+04  0.17273886715E+03 0.  0.
        -24    2    3    3    0    0 -0.53610303789E+03 -0.11624601781E+03 -0.83415612397E+03  0.10014873261E+04  0.78998868456E+02 0.  0.
          6    2    1    2  501    0  0.68931888597E+03  0.13386610023E+03 -0.81103166426E+03  0.10863898136E+04  0.17143455689E+03 0.  0.
         24    2    5    5    0    0  0.17485991097E+03  0.63964268962E+02 -0.20986658758E+03  0.29204993521E+03  0.81128070995E+02 0.  0.
          5    1    5    5  501    0  0.51445897500E+03  0.69901831270E+02 -0.60116507669E+03  0.79433987839E+03  0.47000000000E+01 0. -1.
        -11    1    6    6    0    0  0.54522986669E+02 -0.65918093775E+01 -0.24700571384E+02  0.60218985817E+02  0.00000000000E+00 0.  1.
         12    1    6    6    0    0  0.12033692430E+03  0.70556078340E+02 -0.18516601620E+03  0.23183094939E+03  0.00000000000E+00 0. -1.
         -5    1    3    3    0  503 -0.15321584808E+03 -0.17620082420E+02 -0.40270782193E+03  0.43125542693E+03  0.47000000000E+01 0.  1.
         13    1    4    4    0    0 -0.29786221813E+03 -0.98404985095E+02 -0.51106048708E+03  0.59965678811E+03  0.00000000000E+00 0. -1.
        -14    1    4    4    0    0 -0.23824081977E+03 -0.17841032718E+02 -0.32309563689E+03  0.40183053795E+03  0.00000000000E+00 0.  1.
</event>
<event>
12    1  0.1681255E-001  0.2175357E+03  0.7818608E-02  0.1136716E+00
         21   -1    0    0  501  502  0.00000000000E+00  0.00000000000E+00  0.22171902892E+04  0.22171902892E+04  0.00000000000E+00 0.  1.
         21   -1    0    0  502  503 -0.00000000000E+00 -0.00000000000E+00 -0.21121960876E+02  0.21121960876E+02  0.00000000000E+00 0.  1.
         -6    2    1    2    0  503  0.93790590573E+02 -0.95078117959E+02  0.12137078173E+04  0.12321542296E+04  0.16516917543E+03 0.  0.
        -24    2    3    3    0    0  0.92981370575E+01 -0.98741171371E+02  0.78779985055E+03  0.79790536231E+03  0.78664403597E+02 0.  0.
          6    2    1    2  501    0 -0.93790590573E+02  0.95078117959E+02  0.98236051110E+03  0.10061580205E+04  0.17171273985E+03 0.  0.
         24    2    5    5    0    0 -0.75505508892E+02  0.43857278638E+02  0.89749666047E+03  0.90525270974E+03  0.79734999705E+02 0.  0.
          5    1    5    5  501    0 -0.18285081681E+02  0.51220839321E+02  0.84863850635E+02  0.10090531075E+03  0.47000000000E+01 0. -1.
        -13    1    6    6    0    0 -0.61527311227E+02  0.64968774743E+02  0.59400009862E+03  0.60070181362E+03  0.00000000000E+00 0.  1.
         14    1    6    6    0    0 -0.13978197665E+02 -0.21111496105E+02  0.30349656184E+03  0.30455089612E+03  0.00000000000E+00 0. -1.
         -5    1    3    3    0  503  0.84492453515E+02  0.36630534117E+01  0.42590796671E+03  0.43424886732E+03  0.47000000000E+01 0.  1.
         13    1    4    4    0    0 -0.78524106192E+01  0.39798168528E+01  0.10689955049E+02  0.13848264644E+02  0.00000000000E+00 0. -1.
        -14    1    4    4    0    0  0.17150547677E+02 -0.10272098822E+03  0.77710989550E+03  0.78405709766E+03  0.00000000000E+00 0.  1.
</event>
<event>
12    1  0.1681255E-001  0.1956368E+03  0.7818608E-02  0.1153809E+00
         21   -1    0    0  501  502  0.00000000000E+00  0.00000000000E+00  0.11487330671E+03  0.11487330671E+03  0.00000000000E+00 0. -1.
         21   -1    0    0  502  503 -0.00000000000E+00 -0.00000000000E+00 -0.41560851468E+03  0.41560851468E+03  0.00000000000E+00 0. -1.
         -6    2    1    2    0  503 -0.32623602051E+02 -0.83953996389E+02 -0.26987732600E+03  0.33242634838E+03  0.17193293195E+03 0.  0.
        -24    2    3    3    0    0  0.79770549552E+01 -0.10272664039E+03 -0.12482502383E+03  0.18056099395E+03  0.80028681804E+02 0.  0.
          6    2    1    2  501    0  0.32623602051E+02  0.83953996389E+02 -0.30857881974E+02  0.19805547300E+03  0.17366976877E+03 0.  0.
         24    2    5    5    0    0  0.46656668737E+01  0.10981115066E+03 -0.61843515606E+02  0.14873571978E+03  0.78850723911E+02 0.  0.
          5    1    5    5  501    0  0.27957935177E+02 -0.25857154267E+02  0.30985633632E+02  0.49319753220E+02  0.47000000000E+01 0. -1.
        -13    1    6    6    0    0 -0.18171483915E+02  0.99475305373E+02 -0.69293115067E+02  0.12258497054E+03  0.00000000000E+00 0.  1.
         14    1    6    6    0    0  0.22837150789E+02  0.10335845283E+02  0.74495994608E+01  0.26150749243E+02  0.00000000000E+00 0. -1.
         -5    1    3    3    0  503 -0.40600657006E+02  0.18772643997E+02 -0.14505230217E+03  0.15186535443E+03  0.47000000000E+01 0.  1.
         13    1    4    4    0    0 -0.34748460634E+02 -0.62367265198E+02 -0.62380671851E+02  0.94807592023E+02  0.00000000000E+00 0. -1.
        -14    1    4    4    0    0  0.42725515589E+02 -0.40359375189E+02 -0.62444351983E+02  0.85753401930E+02  0.00000000000E+00 0.  1.
</event>
<event>
12    1  0.1681255E-001  0.2521117E+03  0.7818608E-02  0.1112079E+00
         21   -1    0    0  501  502  0.00000000000E+00  0.00000000000E+00  0.28143181012E+03  0.28143181012E+03  0.00000000000E+00 0.  1.
         21   -1    0    0  502  503 -0.00000000000E+00 -0.00000000000E+00 -0.22561289377E+03  0.22561289377E+03  0.00000000000E+00 0.  1.
         -6    2    1    2    0  503 -0.76453277534E+02 -0.16721665355E+03  0.17967511917E+02  0.25210738579E+03  0.17154821368E+03 0.  0.
        -24    2    3    3    0    0 -0.35577800492E+02 -0.83758851516E+02 -0.55626408924E+02  0.13347280176E+03  0.80245662464E+02 0.  0.
          6    2    1    2  501    0  0.76453277534E+02  0.16721665355E+03  0.37851404436E+02  0.25493731809E+03  0.17249288236E+03 0.  0.
         24    2    5    5    0    0  0.10204371721E+03  0.15404731465E+03 -0.64891065498E+01  0.20186686487E+03  0.81022387373E+02 0.  0.
          5    1    5    5  501    0 -0.25590439681E+02  0.13169338900E+02  0.44340510986E+02  0.53070453217E+02  0.47000000000E+01 0. -1.
        -13    1    6    6    0    0  0.50464804694E+02  0.10081297058E+03  0.33544881191E+02  0.11762317205E+03  0.00000000000E+00 0.  1.
         14    1    6    6    0    0  0.51578912521E+02  0.53234344075E+02 -0.40033987740E+02  0.84243692822E+02  0.00000000000E+00 0. -1.
         -5    1    3    3    0  503 -0.40875477042E+02 -0.83457802037E+02  0.73593920840E+02  0.11863458403E+03  0.47000000000E+01 0.  1.
         13    1    4    4    0    0  0.24200996891E+02 -0.33210150648E+02 -0.30768374997E+02  0.51335126926E+02  0.00000000000E+00 0. -1.
        -14    1    4    4    0    0 -0.59778797384E+02 -0.50548700869E+02 -0.24858033927E+02  0.82137674832E+02  0.00000000000E+00 0.  1.
</event>
<event>
12    1  0.1681255E-001  0.1765252E+03  0.7818608E-02  0.1171598E+00
         21   -1    0    0  503  502  0.00000000000E+00  0.00000000000E+00  0.11628515220E+03  0.11628515220E+03  0.00000000000E+00 0.  1.
         21   -1    0    0  501  503 -0.00000000000E+00 -0.00000000000E+00 -0.29707047380E+03  0.29707047380E+03  0.00000000000E+00 0.  1.
          6    2    1    2  501    0 -0.23958334551E+02  0.27536039573E+02 -0.15729278705E+03  0.23527406023E+03  0.17111583003E+03 0.  0.
         24    2    3    3    0    0 -0.74181406363E+02 -0.15500118943E+01 -0.78050926756E+02  0.13693933719E+03  0.84588127507E+02 0.  0.
         -6    2    1    2    0  502  0.23958334551E+02 -0.27536039573E+02 -0.23492534547E+02  0.17808156577E+03  0.17271047918E+03 0.  0.
        -24    2    5    5    0    0 -0.40227327877E+02 -0.41635506901E+02 -0.47611330176E+02  0.10792174434E+03  0.77643485222E+02 0.  0.
          5    1    3    3  501    0  0.50223071812E+02  0.29086051468E+02 -0.79241860297E+02  0.98334723041E+02  0.47000000000E+01 0. -1.
        -13    1    4    4    0    0 -0.59858299514E+02  0.13296822158E+02 -0.93047735993E+02  0.11143474626E+03  0.00000000000E+00 0.  1.
         14    1    4    4    0    0 -0.14323106849E+02 -0.14846834053E+02  0.14996809237E+02  0.25504590930E+02  0.00000000000E+00 0. -1.
         -5    1    5    5    0  502  0.64185662429E+02  0.14099467328E+02  0.24118795629E+02  0.70159821429E+02  0.47000000000E+01 0.  1.
         11    1    6    6    0    0 -0.64162639361E+01  0.22728451492E+02 -0.69430818909E+01  0.24616200687E+02  0.00000000000E+00 0. -1.
        -12    1    6    6    0    0 -0.33811063941E+02 -0.64363958393E+02 -0.40668248285E+02  0.83305543654E+02  0.00000000000E+00 0.  1.
</event>
<event>
12    1  0.1681255E-001  0.1858594E+03  0.7818608E-02  0.1162526E+00
         21   -1    0    0  501  502  0.00000000000E+00  0.00000000000E+00  0.34359543350E+02  0.34359543350E+02  0.00000000000E+00 0. -1.
         21   -1    0    0  502  503 -0.00000000000E+00 -0.00000000000E+00 -0.10515614080E+04  0.10515614080E+04  0.00000000000E+00 0. -1.
         -6    2    1    2    0  503 -0.78267037290E+01 -0.65292394813E+02 -0.63158170740E+03  0.65836096692E+03  0.17383715231E+03 0.  0.
        -24    2    3    3    0    0 -0.34886956489E+02  0.14862423283E+02 -0.44445205441E+03  0.45294273702E+03  0.78622534899E+02 0.  0.
          6    2    1    2  501    0  0.78267037290E+01  0.65292394813E+02 -0.38562015725E+03  0.42755998444E+03  0.17256963957E+03 0.  0.
         24    2    5    5    0    0  0.56486259052E+01 -0.18365745313E+02 -0.28452342284E+03  0.29623569825E+03  0.80204757968E+02 0.  0.
          5    1    5    5  501    0  0.21780778238E+01  0.83658140127E+02 -0.10109673441E+03  0.13132428618E+03  0.47000000000E+01 0. -1.
        -11    1    6    6    0    0 -0.36304670348E+02 -0.50507718317E+01 -0.99151124195E+02  0.10570943579E+03  0.00000000000E+00 0.  1.
         12    1    6    6    0    0  0.41953296254E+02 -0.13314973482E+02 -0.18537229864E+03  0.19052626247E+03  0.00000000000E+00 0. -1.
         -5    1    3    3    0  503  0.27060252760E+02 -0.80154818097E+02 -0.18712965299E+03  0.20541822989E+03  0.47000000000E+01 0.  1.
         13    1    4    4    0    0 -0.29650457444E+02 -0.12366515948E+01 -0.42898961300E+03  0.43001484509E+03  0.00000000000E+00 0. -1.
        -14    1    4    4    0    0 -0.52364990441E+01  0.16099074878E+02 -0.15462441405E+02  0.22927891930E+02  0.00000000000E+00 0.  1.
</event>
<event>
12    1  0.1681255E-001  0.1766972E+03  0.7818608E-02  0.1171413E+00
         21   -1    0    0  501  502  0.00000000000E+00  0.00000000000E+00  0.15218949995E+03  0.15218949995E+03  0.00000000000E+00 0. -1.
         21   -1    0    0  502  503 -0.00000000000E+00 -0.00000000000E+00 -0.24971562639E+03  0.24971562639E+03  0.00000000000E+00 0.  1.
         -6    2    1    2    0  503  0.26350908641E+02  0.13822256428E+02 -0.13546650207E+03  0.22265008768E+03  0.17417365817E+03 0.  0.
        -24    2    3    3    0    0  0.78551969114E+01  0.24796418404E+02 -0.16349045143E+03  0.18701365518E+03  0.86996626556E+02 0.  0.
          6    2    1    2  501    0 -0.26350908641E+02 -0.13822256428E+02  0.37940375629E+02  0.17925503866E+03  0.17264840464E+03 0.  0.
         24    2    5    5    0    0  0.29477140181E+02 -0.17611515871E+02 -0.26443708695E+02  0.93823605120E+02  0.83213772079E+02 0.  0.
          5    1    5    5  501    0 -0.55828048823E+02  0.37892594429E+01  0.64384084324E+02  0.85431433540E+02  0.47000000000E+01 0. -1.
        -13    1    6    6    0    0  0.12158024437E+02 -0.50607495083E+02 -0.95858185364E+01  0.52922812036E+02  0.00000000000E+00 0.  1.
         14    1    6    6    0    0  0.17319115744E+02  0.32995979212E+02 -0.16857890159E+02  0.40900793084E+02  0.00000000000E+00 0. -1.
         -5    1    3    3    0  503  0.18495711730E+02 -0.10974161977E+02  0.28023949358E+02  0.35636432497E+02  0.47000000000E+01 0.  1.
         11    1    4    4    0    0 -0.41616124030E+00 -0.25960501167E+02 -0.15261096294E+02  0.30116803800E+02  0.00000000000E+00 0. -1.
        -12    1    4    4    0    0  0.82713581517E+01  0.50756919571E+02 -0.14822935514E+03  0.15689685138E+03  0.00000000000E+00 0.  1.
</event>
<event>
12    1  0.1681255E-001  0.2191666E+03  0.7818608E-02  0.1134547E+00
         21   -1    0    0  501  502  0.00000000000E+00  0.00000000000E+00  0.22311266827E+03  0.22311266827E+03  0.00000000000E+00 0.  1.
         21   -1    0    0  502  503 -0.00000000000E+00 -0.00000000000E+00 -0.22053259613E+03  0.22053259613E+03  0.00000000000E+00 0.  1.
         -6    2    1    2    0  503  0.11761429081E+03  0.70275163936E+02 -0.33601631536E+02  0.22172751124E+03  0.17106226799E+03 0.  0.
        -24    2    3    3    0    0  0.61146921581E+02 -0.29823095653E+02 -0.13883835011E+02  0.10502658211E+03  0.78800120692E+02 0.  0.
          6    2    1    2  501    0 -0.11761429081E+03 -0.70275163936E+02  0.36181703676E+02  0.22191775316E+03  0.17078247397E+03 0.  0.
         24    2    5    5    0    0 -0.12385313832E+03 -0.17565427574E+02  0.64482984582E+02  0.16158292054E+03  0.79390432620E+02 0.  0.
          5    1    5    5  501    0  0.62388475161E+01 -0.52709736363E+02 -0.28301280906E+02  0.60334832615E+02  0.47000000000E+01 0. -1.
        -13    1    6    6    0    0 -0.12541500653E+03 -0.20181864626E+02  0.34752240900E+02  0.13169643037E+03  0.00000000000E+00 0.  1.
         14    1    6    6    0    0  0.15618682086E+01  0.26164370522E+01  0.29730743683E+02  0.29886490177E+02  0.00000000000E+00 0. -1.
         -5    1    3    3    0  503  0.56467369228E+02  0.10009825959E+03 -0.19717796526E+02  0.11670092913E+03  0.47000000000E+01 0.  1.
         13    1    4    4    0    0 -0.11813224012E+02  0.14366734451E+02 -0.50380534294E+01  0.19270114237E+02  0.00000000000E+00 0. -1.
        -14    1    4    4    0    0  0.72960145593E+02 -0.44189830104E+02 -0.88457815813E+01  0.85756467869E+02  0.00000000000E+00 0.  1.
</event>
<event>
12    1  0.1681255E-001  0.1875534E+03  0.7818608E-02  0.1160826E+00
         21   -1    0    0  501  502  0.00000000000E+00  0.00000000000E+00  0.90392570886E+03  0.90392570886E+03  0.00000000000E+00 0. -1.
         21   -1    0    0  502  503 -0.00000000000E+00 -0.00000000000E+00 -0.56000215308E+02  0.56000215308E+02  0.00000000000E+00 0. -1.
         -6    2    1    2    0  503  0.45716895993E+02 -0.58655198216E+02  0.68956818789E+03  0.71446040873E+03  0.17151945380E+03 0.  0.
        -24    2    3    3    0    0 -0.81016319371E+01  0.34659374539E+01  0.15326087865E+03  0.17187116317E+03  0.77286160754E+02 0.  0.
          6    2    1    2  501    0 -0.45716895993E+02  0.58655198216E+02  0.15835730566E+03  0.24546551544E+03  0.17217960436E+03 0.  0.
         24    2    5    5    0    0  0.16516929441E+02  0.38233590305E+02  0.18857458956E+02  0.91282545145E+02  0.79008119229E+02 0.  0.
          5    1    5    5  501    0 -0.62233825434E+02  0.20421607911E+02  0.13949984671E+03  0.15418297030E+03  0.47000000000E+01 0. -1.
        -11    1    6    6    0    0  0.35258593403E+02  0.21230049785E+02  0.40679060331E+02  0.57867688497E+02  0.00000000000E+00 0.  1.
         12    1    6    6    0    0 -0.18741663962E+02  0.17003540520E+02 -0.21821601374E+02  0.33414856648E+02  0.00000000000E+00 0. -1.
         -5    1    3    3    0  503  0.53818527930E+02 -0.62121135670E+02  0.53630730924E+03  0.54258924556E+03  0.47000000000E+01 0.  1.
         11    1    4    4    0    0  0.12226020201E+02 -0.32878352277E+02  0.84380581110E+02  0.91381311475E+02  0.00000000000E+00 0. -1.
        -12    1    4    4    0    0 -0.20327652138E+02  0.36344289731E+02  0.68880297538E+02  0.80489851698E+02  0.00000000000E+00 0.  1.
</event>
<event>
12    1  0.1681255E-001  0.2478348E+03  0.7818608E-02  0.1114920E+00
         21   -1    0    0  501  502  0.00000000000E+00  0.00000000000E+00  0.51047065539E+03  0.51047065539E+03  0.00000000000E+00 0. -1.
         21   -1    0    0  502  503 -0.00000000000E+00 -0.00000000000E+00 -0.12333884012E+03  0.12333884012E+03  0.00000000000E+00 0. -1.
         -6    2    1    2    0  503  0.93758743402E+02  0.15007950323E+03  0.24817338453E+03  0.34967657420E+03  0.17137420604E+03 0.  0.
        -24    2    3    3    0    0  0.47705347584E+02  0.67880697666E+01  0.12072785884E+03  0.15240061978E+03  0.79554100654E+02 0.  0.
          6    2    1    2  501    0 -0.93758743402E+02 -0.15007950323E+03  0.13895843074E+03  0.28413292131E+03  0.17351516430E+03 0.  0.
         24    2    5    5    0    0 -0.63671590485E+02 -0.19180330098E+02  0.99349980940E+02  0.14402314437E+03  0.80313703088E+02 0.  0.
          5    1    5    5  501    0 -0.30087152917E+02 -0.13089917314E+03  0.39608449803E+02  0.14010977694E+03  0.47000000000E+01 0. -1.
        -13    1    6    6    0    0 -0.65986350819E+01 -0.17629611095E+02  0.82317923866E+02  0.84442795797E+02  0.00000000000E+00 0.  1.
         14    1    6    6    0    0 -0.57072955403E+02 -0.15507190030E+01  0.17032057074E+02  0.59580348572E+02  0.00000000000E+00 0. -1.
         -5    1    3    3    0  503  0.46053395817E+02  0.14329143347E+03  0.12744552569E+03  0.19727595441E+03  0.47000000000E+01 0.  1.
         11    1    4    4    0    0  0.24625457980E+02  0.42782845410E+02  0.75080949392E+02  0.89855072220E+02  0.00000000000E+00 0. -1.
        -12    1    4    4    0    0  0.23079889605E+02 -0.35994775643E+02  0.45646909445E+02  0.62545547561E+02  0.00000000000E+00 0.  1.
</event>
<event>
12    1  0.1681255E-001  0.2567912E+03  0.7818608E-02  0.1109556E+00
         21   -1    0    0  501  502  0.00000000000E+00  0.00000000000E+00  0.21622834835E+03  0.21622834835E+03  0.00000000000E+00 0.  1.
         21   -1    0    0  502  503 -0.00000000000E+00 -0.00000000000E+00 -0.31475107347E+03  0.31475107347E+03  0.00000000000E+00 0.  1.
         -6    2    1    2    0  503 -0.18035046807E+03  0.46019167413E+02 -0.10376853294E+03  0.27413467743E+03  0.17244668114E+03 0.  0.
        -24    2    3    3    0    0 -0.19711146950E+03  0.46736325811E+02 -0.58449157824E+02  0.22558180680E+03  0.80209924267E+02 0.  0.
          6    2    1    2  501    0  0.18035046807E+03 -0.46019167413E+02  0.52458078235E+01  0.25684474440E+03  0.17691141603E+03 0.  0.
         24    2    5    5    0    0  0.65274466653E+02 -0.94403218371E+02  0.24232148105E+00  0.13182223696E+03  0.64840726412E+02 0.  0.
          5    1    5    5  501    0  0.11507600142E+03  0.48384050958E+02  0.50034863424E+01  0.12502250744E+03  0.47000000000E+01 0. -1.
        -11    1    6    6    0    0  0.45286892064E+02 -0.55970765638E+02 -0.31024928565E+02  0.78397547101E+02  0.00000000000E+00 0.  1.
         12    1    6    6    0    0  0.19987574589E+02 -0.38432452733E+02  0.31267250046E+02  0.53424689859E+02  0.00000000000E+00 0. -1.
         -5    1    3    3    0  503  0.16761001428E+02 -0.71715839806E+00 -0.45319375117E+02  0.48552870626E+02  0.47000000000E+01 0.  1.
         13    1    4    4    0    0 -0.23103588010E+02  0.36316666301E+01 -0.38716229738E+02  0.45231750204E+02  0.00000000000E+00 0. -1.
        -14    1    4    4    0    0 -0.17400788149E+03  0.43104659181E+02 -0.19732928086E+02  0.18035005660E+03  0.00000000000E+00 0.  1.
</event>
<event>
12    1  0.1681255E-001  0.2076621E+03  0.7818608E-02  0.1144194E+00
         21   -1    0    0  501  502  0.00000000000E+00  0.00000000000E+00  0.34529616482E+02  0.34529616482E+02  0.00000000000E+00 0.  1.
         21   -1    0    0  502  503 -0.00000000000E+00 -0.00000000000E+00 -0.13165470481E+04  0.13165470481E+04  0.00000000000E+00 0. -1.
         -6    2    1    2    0  503 -0.87394324127E+02 -0.78964359122E+02 -0.46966075338E+03  0.51352194755E+03  0.17102756927E+03 0.  0.
        -24    2    3    3    0    0  0.12807561679E+02 -0.10308209939E+02 -0.14286165626E+03  0.16484756562E+03  0.80591402964E+02 0.  0.
          6    2    1    2  501    0  0.87394324127E+02  0.78964359122E+02 -0.81235667828E+03  0.83755471708E+03  0.16643735592E+03 0.  0.
         24    2    5    5    0    0  0.11487477019E+03  0.95738842952E+02 -0.63099558267E+03  0.65329811549E+03  0.79251898939E+02 0.  0.
          5    1    5    5  501    0 -0.27480446065E+02 -0.16774483830E+02 -0.18136109562E+03  0.18425660158E+03  0.47000000000E+01 0. -1.
        -11    1    6    6    0    0 -0.36634388931E+01  0.58290057979E+01 -0.23310346091E+01  0.72685497497E+01  0.00000000000E+00 0.  1.
         12    1    6    6    0    0  0.11853820909E+03  0.89909837154E+02 -0.62866454806E+03  0.64602956574E+03  0.00000000000E+00 0. -1.
         -5    1    3    3    0  503 -0.10020188581E+03 -0.68656149184E+02 -0.32679909712E+03  0.34867438193E+03  0.47000000000E+01 0.  1.
         13    1    4    4    0    0 -0.25042469933E+02  0.15178829629E+02 -0.91848837009E+02  0.96403999031E+02  0.00000000000E+00 0. -1.
        -14    1    4    4    0    0  0.37850031612E+02 -0.25487039568E+02 -0.51012819254E+02  0.68443566587E+02  0.00000000000E+00 0.  1.
</event>
<event>
12    1  0.1681255E-001  0.2171330E+03  0.7818608E-02  0.1136224E+00
         21   -1    0    0  501  502  0.00000000000E+00  0.00000000000E+00  0.14106036574E+03  0.14106036574E+03  0.00000000000E+00 0. -1.
         21   -1    0    0  502  503 -0.00000000000E+00 -0.00000000000E+00 -0.50334122206E+03  0.50334122206E+03  0.00000000000E+00 0.  1.
         -6    2    1    2    0  503  0.67997931871E+02  0.11215294900E+03 -0.36845403233E+03  0.42718089509E+03  0.17182299172E+03 0.  0.
        -24    2    3    3    0    0  0.94835139475E+02  0.28687808551E+02 -0.19540679584E+03  0.23313424751E+03  0.79693584823E+02 0.  0.
          6    2    1    2  501    0 -0.67997931871E+02 -0.11215294900E+03  0.61731760119E+01  0.21722069271E+03  0.17304542332E+03 0.  0.
         24    2    5    5    0    0 -0.36243127663E+02  0.30459478451E+01 -0.37885969528E+02  0.89774815062E+02  0.72810223398E+02 0.  0.
          5    1    5    5  501    0 -0.31754804209E+02 -0.11519889685E+03  0.44059145540E+02  0.12744587765E+03  0.47000000000E+01 0. -1.
        -11    1    6    6    0    0  0.13035122828E+02  0.12495430888E+02 -0.35158933696E+02  0.39524686449E+02  0.00000000000E+00 0.  1.
         12    1    6    6    0    0 -0.49278250491E+02 -0.94494830430E+01 -0.27270358327E+01  0.50250128613E+02  0.00000000000E+00 0. -1.
         -5    1    3    3    0  503 -0.26837207604E+02  0.83465140450E+02 -0.17304723649E+03  0.19404664759E+03  0.47000000000E+01 0.  1.
         11    1    4    4    0    0  0.86243975269E+02 -0.10197942953E+01 -0.17763355912E+03  0.19746580610E+03  0.00000000000E+00 0. -1.
        -12    1    4    4    0    0  0.85911642055E+01  0.29707602846E+02 -0.17773236715E+02  0.35668441410E+02  0.00000000000E+00 0.  1.
</event>
<event>
12    1  0.1681255E-001  0.2105332E+03  0.7818608E-02  0.1141436E+00
         21   -1    0    0  501  502  0.00000000000E+00  0.00000000000E+00  0.22798217013E+03  0.22798217013E+03  0.00000000000E+00 0.  1.
         21   -1    0    0  502  503 -0.00000000000E+00 -0.00000000000E+00 -0.23646947624E+03  0.23646947624E+03  0.00000000000E+00 0. -1.
         -6    2    1    2    0  503 -0.24910333137E+02  0.12174505358E+03 -0.10372604698E+03  0.23337879022E+03  0.16811955309E+03 0.  0.
        -24    2    3    3    0    0 -0.14775430942E+02  0.11322224200E+03 -0.13782657587E+03  0.19649667218E+03  0.81099862637E+02 0.  0.
          6    2    1    2  501    0  0.24910333137E+02 -0.12174505358E+03  0.95238740864E+02  0.23107285616E+03  0.16994665140E+03 0.  0.
         24    2    5    5    0    0  0.74619933479E+02 -0.43975564626E+02  0.57620775125E+02  0.13129139934E+03  0.80095524580E+02 0.  0.
          5    1    5    5  501    0 -0.49709600342E+02 -0.77769488955E+02  0.37617965739E+02  0.99781456818E+02  0.47000000000E+01 0. -1.
        -11    1    6    6    0    0 -0.95882377328E+01  0.11743395596E+02  0.26014365982E+00  0.15162760885E+02  0.00000000000E+00 0.  1.
         12    1    6    6    0    0  0.84208171211E+02 -0.55718960222E+02  0.57360631465E+02  0.11612863845E+03  0.00000000000E+00 0. -1.
         -5    1    3    3    0  503 -0.10134902195E+02  0.85228115820E+01  0.34100528892E+02  0.36882118031E+02  0.47000000000E+01 0.  1.
         11    1    4    4    0    0 -0.21077449169E+02  0.11014501503E+03 -0.78813709073E+02  0.13706853737E+03  0.00000000000E+00 0. -1.
        -12    1    4    4    0    0  0.63020182271E+01  0.30772269722E+01 -0.59012866800E+02  0.59428134815E+02  0.00000000000E+00 0.  1.
</event>
<event>
12    1  0.1681255E-001  0.1940370E+03  0.7818608E-02  0.1154914E+00
         21   -1    0    0  501  502  0.00000000000E+00  0.00000000000E+00  0.11377175167E+04  0.11377175167E+04  0.00000000000E+00 0. -1.
         21   -1    0    0  502  503 -0.00000000000E+00 -0.00000000000E+00 -0.33952188856E+02  0.33952188856E+02  0.00000000000E+00 0.  1.
         -6    2    1    2    0  503  0.68204692609E+02  0.58136339257E+02  0.64663130433E+03  0.67505930561E+03  0.17187585143E+03 0.  0.
        -24    2    3    3    0    0  0.10991664781E+03  0.52339245777E+02  0.42938829695E+03  0.45372221483E+03  0.81660716086E+02 0.  0.
          6    2    1    2  501    0 -0.68204692609E+02 -0.58136339257E+02  0.45713402352E+03  0.49661039996E+03  0.17210072589E+03 0.  0.
         24    2    5    5    0    0 -0.17547287704E+02  0.33829860160E+02  0.18397685137E+03  0.20393159102E+03  0.79298456670E+02 0.  0.
          5    1    5    5  501    0 -0.50657404905E+02 -0.91966199417E+02  0.27315717215E+03  0.29267880894E+03  0.47000000000E+01 0. -1.
        -11    1    6    6    0    0 -0.41289938753E+02  0.45264352408E+02  0.11988032359E+03  0.13462916707E+03  0.00000000000E+00 0.  1.
         12    1    6    6    0    0  0.23742651049E+02 -0.11434492248E+02  0.64096527774E+02  0.69302423944E+02  0.00000000000E+00 0. -1.
         -5    1    3    3    0  503 -0.41711955201E+02  0.57970934798E+01  0.21724300738E+03  0.22133709078E+03  0.47000000000E+01 0.  1.
         11    1    4    4    0    0  0.55369860241E+02  0.62533295895E+02  0.32429511507E+03  0.33487842000E+03  0.00000000000E+00 0. -1.
        -12    1    4    4    0    0  0.54546787569E+02 -0.10194050117E+02  0.10509318188E+03  0.11884379483E+03  0.00000000000E+00 0.  1.
</event>
<event>
12    1  0.1681255E-001  0.2044695E+03  0.7818608E-02  0.1146481E+00
         21   -1    0    0  503  502  0.00000000000E+00  0.00000000000E+00  0.11927723084E+04  0.11927723084E+04  0.00000000000E+00 0.  1.
         21   -1    0    0  501  503 -0.00000000000E+00 -0.00000000000E+00 -0.48959988909E+02  0.48959988909E+02  0.00000000000E+00 0.  1.
          6    2    1    2  501    0  0.69595328195E+02 -0.85549408833E+02  0.23870772870E+03  0.31430740969E+03  0.17217885174E+03 0.  0.
         24    2    3    3    0    0  0.80711607158E+02 -0.98689799888E+02  0.25117196988E+03  0.29254301576E+03  0.78993781293E+02 0.  0.
         -6    2    1    2    0  502 -0.69595328195E+02  0.85549408833E+02  0.90510459076E+03  0.92742488759E+03  0.16952991137E+03 0.  0.
        -24    2    5    5    0    0 -0.20470187445E+02  0.10506395171E+03  0.46565914383E+03  0.48478678748E+03  0.81989807689E+02 0.  0.
          5    1    3    3  501    0 -0.11116278963E+02  0.13140391056E+02 -0.12464241178E+02  0.21764393932E+02  0.47000000000E+01 0. -1.
        -11    1    4    4    0    0  0.67336974519E+02 -0.93931602819E+02  0.25307864652E+03  0.27821972517E+03  0.00000000000E+00 0.  1.
         12    1    4    4    0    0  0.13374632639E+02 -0.47581970689E+01 -0.19066766420E+01  0.14323290592E+02  0.00000000000E+00 0. -1.
         -5    1    5    5    0  502 -0.49125140750E+02 -0.19514542875E+02  0.43944544693E+03  0.44263810011E+03  0.47000000000E+01 0.  1.
         11    1    6    6    0    0  0.18615602001E+02  0.66551810644E+02  0.16067904303E+03  0.17490980249E+03  0.00000000000E+00 0. -1.
        -12    1    6    6    0    0 -0.39085789446E+02  0.38512141063E+02  0.30498010079E+03  0.30987698499E+03  0.00000000000E+00 0.  1.
</event>
<event>
12    1  0.1681255E-001  0.2198482E+03  0.7818608E-02  0.1134198E+00
         21   -1    0    0  503  502  0.00000000000E+00  0.00000000000E+00  0.15210490274E+03  0.15210490274E+03  0.00000000000E+00 0.  1.
         21   -1    0    0  501  503 -0.00000000000E+00 -0.00000000000E+00 -0.40644641029E+03  0.40644641029E+03  0.00000000000E+00 0.  1.
          6    2    1    2  501    0  0.13571994938E+03  0.13921139874E+02 -0.25851977737E+03  0.33866337400E+03  0.17101667404E+03 0.  0.
         24    2    3    3    0    0  0.10855519604E+03 -0.47564210659E+02 -0.12548993444E+03  0.18954127214E+03  0.78304440961E+02 0.  0.
         -6    2    1    2    0  502 -0.13571994938E+03 -0.13921139874E+02  0.41782698235E+01  0.21988793903E+03  0.17239357586E+03 0.  0.
        -24    2    5    5    0    0 -0.12746368319E+03 -0.68994168610E+01 -0.54798731664E+02  0.15973939599E+03  0.78861785138E+02 0.  0.
          5    1    3    3  501    0  0.27164753341E+02  0.61485350533E+02 -0.13302984293E+03  0.14912210186E+03  0.47000000000E+01 0. -1.
        -13    1    4    4    0    0  0.10179037969E+03 -0.26870292074E+02 -0.13002590004E+03  0.16730220762E+03  0.00000000000E+00 0.  1.
         14    1    4    4    0    0  0.67648163455E+01 -0.20693918585E+02  0.45359655964E+01  0.22239064515E+02  0.00000000000E+00 0. -1.
         -5    1    5    5    0  502 -0.82562661895E+01 -0.70217230131E+01  0.58977001487E+02  0.60148543040E+02  0.47000000000E+01 0.  1.
         13    1    6    6    0    0 -0.18255886526E+01  0.98133332437E+01  0.12690808446E+02  0.16145925254E+02  0.00000000000E+00 0. -1.
        -14    1    6    6    0    0 -0.12563809454E+03 -0.16712750105E+02 -0.67489540110E+02  0.14359347074E+03  0.00000000000E+00 0.  1.
</event>
<event>
12    1  0.1681255E-001  0.1903913E+03  0.7818608E-02  0.1158456E+00
         21   -1    0    0  501  502  0.00000000000E+00  0.00000000000E+00  0.52734367985E+02  0.52734367985E+02  0.00000000000E+00 0. -1.
         21   -1    0    0  502  503 -0.00000000000E+00 -0.00000000000E+00 -0.68354552413E+03  0.68354552413E+03  0.00000000000E+00 0. -1.
         -6    2    1    2    0  503 -0.15448704821E+02  0.73988513090E+02 -0.33499093968E+03  0.38531517998E+03  0.17474523084E+03 0.  0.
        -24    2    3    3    0    0 -0.55035141293E+02  0.10096637594E+03 -0.21946885798E+03  0.26016593948E+03  0.79351500273E+02 0.  0.
          6    2    1    2  501    0  0.15448704821E+02 -0.73988513090E+02 -0.29582021646E+03  0.35096471213E+03  0.17307127476E+03 0.  0.
         24    2    5    5    0    0 -0.73044012788E+01 -0.59109315361E+02 -0.66997106276E+02  0.12048434395E+03  0.80502170456E+02 0.  0.
          5    1    5    5  501    0  0.22753106099E+02 -0.14879197729E+02 -0.22882311018E+03  0.23048036818E+03  0.47000000000E+01 0. -1.
        -13    1    6    6    0    0 -0.36533372671E+02 -0.29334673535E+02 -0.63080763059E+02  0.78577306255E+02  0.00000000000E+00 0.  1.
         14    1    6    6    0    0  0.29228971392E+02 -0.29774641826E+02 -0.39163432168E+01  0.41907037699E+02  0.00000000000E+00 0. -1.
         -5    1    3    3    0  503  0.39586436472E+02 -0.26977862847E+02 -0.11552208171E+03  0.12514924050E+03  0.47000000000E+01 0.  1.
         11    1    4    4    0    0 -0.46207903455E+02  0.86251673108E+02 -0.10160895405E+03  0.14106346444E+03  0.00000000000E+00 0. -1.
        -12    1    4    4    0    0 -0.88272378376E+01  0.14714702829E+02 -0.11785990393E+03  0.11910247504E+03  0.00000000000E+00 0.  1.
</event>
<event>
12    1  0.1681255E-001  0.1901289E+03  0.7818608E-02  0.1158373E+00
         21   -1    0    0  503  502  0.00000000000E+00  0.00000000000E+00  0.63520158687E+02  0.63520158687E+02  0.00000000000E+00 0.  1.
         21   -1    0    0  501  503 -0.00000000000E+00 -0.00000000000E+00 -0.71021468222E+03  0.71021468222E+03  0.00000000000E+00 0.  1.
          6    2    1    2  501    0  0.45037673652E+02  0.67235407672E+02 -0.49611028249E+03  0.53129501922E+03  0.17204648490E+03 0.  0.
         24    2    3    3    0    0  0.56997872247E+02 -0.10435670311E+02 -0.36899186454E+03  0.38177236246E+03  0.78977718262E+02 0.  0.
         -6    2    1    2    0  502 -0.45037673652E+02 -0.67235407672E+02 -0.15058424105E+03  0.24243982169E+03  0.17190829356E+03 0.  0.
        -24    2    5    5    0    0  0.20425809354E+02 -0.87037727299E+02 -0.10283772765E+03  0.15889690450E+03  0.81730339357E+02 0.  0.
          5    1    3    3  501    0 -0.11960198595E+02  0.77671077983E+02 -0.12711841795E+03  0.14952265677E+03  0.47000000000E+01 0. -1.
        -13    1    4    4    0    0  0.14107214216E+02  0.79058151623E+01 -0.28687823915E+03  0.28733367277E+03  0.00000000000E+00 0.  1.
         14    1    4    4    0    0  0.42890658031E+02 -0.18341485473E+02 -0.82113625387E+02  0.94438689687E+02  0.00000000000E+00 0. -1.
         -5    1    5    5    0  502 -0.65463483006E+02  0.19802319628E+02 -0.47746513402E+02  0.83542917186E+02  0.47000000000E+01 0.  1.
         11    1    6    6    0    0 -0.16988177754E+02 -0.21434579801E+02 -0.72538816562E+02  0.77523669308E+02  0.00000000000E+00 0. -1.
        -12    1    6    6    0    0  0.37413987108E+02 -0.65603147498E+02 -0.30298911084E+02  0.81373235194E+02  0.00000000000E+00 0.  1.
</event>
<event>
12    1  0.1681255E-001  0.1983982E+03  0.7818608E-02  0.1151269E+00
         21   -1    0    0  503  502  0.00000000000E+00  0.00000000000E+00  0.54847730288E+03  0.54847730288E+03  0.00000000000E+00 0. -1.
         21   -1    0    0  501  503 -0.00000000000E+00 -0.00000000000E+00 -0.90022109859E+02  0.90022109859E+02  0.00000000000E+00 0. -1.
          6    2    1    2  501    0  0.83627349669E+02 -0.48314480801E+02  0.83956020257E+02  0.21469345228E+03  0.17238573737E+03 0.  0.
         24    2    3    3    0    0  0.21399555825E+02  0.24648870265E+02  0.81577939739E+02  0.11865338673E+03  0.79738059513E+02 0.  0.
         -6    2    1    2    0  502 -0.83627349669E+02  0.48314480801E+02  0.37449917276E+03  0.42380596045E+03  0.17330331517E+03 0.  0.
        -24    2    5    5    0    0 -0.72395012400E+02  0.94847962063E+02  0.23088024852E+03  0.27234634314E+03  0.81422771587E+02 0.  0.
          5    1    3    3  501    0  0.62227793843E+02 -0.72963351065E+02  0.23780805182E+01  0.96040065557E+02  0.47000000000E+01 0. -1.
        -11    1    4    4    0    0  0.49258185181E+01  0.60721840719E+01 -0.16084474341E+02  0.17884222720E+02  0.00000000000E+00 0.  1.
         12    1    4    4    0    0  0.16473737307E+02  0.18576686193E+02  0.97662414080E+02  0.10076916401E+03  0.00000000000E+00 0. -1.
         -5    1    5    5    0  502 -0.11232337269E+02 -0.46533481262E+02  0.14361892423E+03  0.15145961732E+03  0.47000000000E+01 0.  1.
         11    1    6    6    0    0 -0.26296537631E+02  0.69028911372E+02  0.19488315294E+03  0.20841291178E+03  0.00000000000E+00 0. -1.
        -12    1    6    6    0    0 -0.46098474768E+02  0.25819050691E+02  0.35997095587E+02  0.63933431358E+02  0.00000000000E+00 0.  1.
</event>
<event>
12    1  0.1681255E-001  0.2000192E+03  0.7818608E-02  0.1149880E+00
         21   -1    0    0  503  502  0.00000000000E+00  0.00000000000E+00  0.81559596081E+03  0.81559596081E+03  0.00000000000E+00 0.  1.
         21   -1    0    0  501  503 -0.00000000000E+00 -0.00000000000E+00 -0.52130746357E+02  0.52130746357E+02  0.00000000000E+00 0.  1.
          6    2    1    2  501    0  0.69159053872E+02 -0.75725418005E+02  0.27391548214E+03  0.33917158957E+03  0.17172758121E+03 0.  0.
         24    2    3    3    0    0  0.13379207237E+01 -0.82228180543E+02  0.23467438012E+03  0.26040645699E+03  0.77305850037E+02 0.  0.
         -6    2    1    2    0  502 -0.69159053872E+02  0.75725418005E+02  0.48954973231E+03  0.52855511759E+03  0.17086327361E+03 0.  0.
        -24    2    5    5    0    0 -0.80371788433E+02  0.11010773087E+03  0.44084265034E+03  0.46770827143E+03  0.76324622732E+02 0.  0.
          5    1    3    3  501    0  0.67821133148E+02  0.65027625381E+01  0.39241102021E+02  0.78765132578E+02  0.47000000000E+01 0. -1.
        -13    1    4    4    0    0  0.45220186786E+01  0.36618768159E+01  0.10299477989E+03  0.10315901647E+03  0.00000000000E+00 0.  1.
         14    1    4    4    0    0 -0.31840979549E+01 -0.85890057358E+02  0.13167960023E+03  0.15724744052E+03  0.00000000000E+00 0. -1.
         -5    1    5    5    0  502  0.11212734561E+02 -0.34382312863E+02  0.48707081970E+02  0.60846846165E+02  0.47000000000E+01 0.  1.
         11    1    6    6    0    0 -0.55065372577E+02  0.82906313809E+02  0.40126804444E+03  0.41342677177E+03  0.00000000000E+00 0. -1.
        -12    1    6    6    0    0 -0.25306415856E+02  0.27201417059E+02  0.39574605893E+02  0.54281499658E+02  0.00000000000E+00 0.  1.
</event>
<event>
12    1  0.1681255E-001  0.2708706E+03  0.7818608E-02  0.1100935E+00
         21   -1    0    0  501  502  0.00000000000E+00  0.00000000000E+00  0.26058789365E+03  0.26058789365E+03  0.00000000000E+00 0. -1.
         21   -1    0    0  502  503 -0.00000000000E+00 -0.00000000000E+00 -0.37435975562E+03  0.37435975562E+03  0.00000000000E+00 0. -1.
         -6    2    1    2    0  503  0.20704177186E+03 -0.21513852291E+02 -0.21597946487E+03  0.34643619319E+03  0.17332560563E+03 0.  0.
        -24    2    3    3    0    0  0.14563667818E+03  0.34793242485E+02 -0.19756273692E+03  0.26098246114E+03  0.81610037675E+02 0.  0.
          6    2    1    2  501    0 -0.20704177186E+03  0.21513852291E+02  0.10220760291E+03  0.28851145608E+03  0.17164884231E+03 0.  0.
         24    2    5    5    0    0 -0.33104660731E+02 -0.10593420627E+02  0.62266672181E+02  0.10712136940E+03  0.79935662842E+02 0.  0.
          5    1    5    5  501    0 -0.17393711113E+03  0.32107272918E+02  0.39940930725E+02  0.18139008669E+03  0.47000000000E+01 0. -1.
        -11    1    6    6    0    0 -0.31159830455E+02 -0.11195593697E+02 -0.10184945054E+02  0.34641152665E+02  0.00000000000E+00 0.  1.
         12    1    6    6    0    0 -0.19448302761E+01  0.60217306989E+00  0.72451617236E+02  0.72480216731E+02  0.00000000000E+00 0. -1.
         -5    1    3    3    0  503  0.61405093682E+02 -0.56307094775E+02 -0.18416727946E+02  0.85453732045E+02  0.47000000000E+01 0.  1.
         11    1    4    4    0    0  0.36959805555E+02 -0.26572465288E+02 -0.58571684458E+02  0.74180626571E+02  0.00000000000E+00 0. -1.
        -12    1    4    4    0    0  0.10867687262E+03  0.61365707773E+02 -0.13899105247E+03  0.18680183457E+03  0.00000000000E+00 0.  1.
</event>
<event>
12    1  0.1681255E-001  0.1915627E+03  0.7818608E-02  0.1157307E+00
         21   -1    0    0  501  502  0.00000000000E+00  0.00000000000E+00  0.43184786750E+03  0.43184786750E+03  0.00000000000E+00 0.  1.
         21   -1    0    0  502  503 -0.00000000000E+00 -0.00000000000E+00 -0.15904136419E+03  0.15904136419E+03  0.00000000000E+00 0. -1.
         -6    2    1    2    0  503 -0.51105214691E+02  0.67604380039E+02 -0.65671887187E+02  0.20250692409E+03  0.17179686368E+03 0.  0.
        -24    2    3    3    0    0  0.34902290888E+02  0.57281628736E+02 -0.36469682738E+02  0.11097163606E+03  0.80531430826E+02 0.  0.
          6    2    1    2  501    0  0.51105214691E+02 -0.67604380039E+02  0.33847839050E+03  0.38838230759E+03  0.17056113522E+03 0.  0.
         24    2    5    5    0    0  0.16843380574E+02 -0.60676266531E+02  0.33811174784E+03  0.35311055600E+03  0.80013760948E+02 0.  0.
          5    1    5    5  501    0  0.34261834117E+02 -0.69281135074E+01  0.36664265879E+00  0.35271751596E+02  0.47000000000E+01 0. -1.
        -13    1    6    6    0    0  0.33764599478E+02 -0.17589503644E+02  0.25628805705E+03  0.25910038017E+03  0.00000000000E+00 0.  1.
         14    1    6    6    0    0 -0.16921218904E+02 -0.43086762887E+02  0.81823690785E+02  0.94010175827E+02  0.00000000000E+00 0. -1.
         -5    1    3    3    0  503 -0.86007505578E+02  0.10322751303E+02 -0.29202204448E+02  0.91535288031E+02  0.47000000000E+01 0.  1.
         11    1    4    4    0    0  0.67037555107E+01  0.58727285976E+02  0.65954463180E+01  0.59475493846E+02  0.00000000000E+00 0. -1.
        -12    1    4    4    0    0  0.28198535377E+02 -0.14456572400E+01 -0.43065129056E+02  0.51496142214E+02  0.00000000000E+00 0.  1.
</event>
<event>
12    1  0.1681255E-001  0.2243533E+03  0.7818608E-02  0.1133017E+00
         21   -1    0    0  501  502  0.00000000000E+00  0.00000000000E+00  0.36674736271E+03  0.36674736271E+03  0.00000000000E+00 0. -1.
         21   -1    0    0  502  503 -0.00000000000E+00 -0.00000000000E+00 -0.31362509459E+03  0.31362509459E+03  0.00000000000E+00 0. -1.
         -6    2    1    2    0  503  0.73917483293E+02 -0.95610781221E+02 -0.23358366616E+03  0.32387610766E+03  0.18902166065E+03 0.  0.
        -24    2    3    3    0    0  0.85020256008E+01 -0.12765510290E+03 -0.14075982395E+03  0.20578979881E+03  0.78536638064E+02 0.  0.
          6    2    1    2  501    0 -0.73917483293E+02  0.95610781221E+02  0.28670593429E+03  0.35649634964E+03  0.17402338557E+03 0.  0.
         24    2    5    5    0    0 -0.41788305702E+02  0.15741708497E+02  0.24462519850E+03  0.26055766528E+03  0.77812244018E+02 0.  0.
          5    1    5    5  501    0 -0.32129177591E+02  0.79869072725E+02  0.42080735793E+02  0.95938684353E+02  0.47000000000E+01 0. -1.
        -11    1    6    6    0    0 -0.18381460309E+02 -0.31257621358E+02  0.11897749937E+03  0.12438071527E+03  0.00000000000E+00 0.  1.
         12    1    6    6    0    0 -0.23406845394E+02  0.46999329855E+02  0.12564769913E+03  0.13617695001E+03  0.00000000000E+00 0. -1.
         -5    1    3    3    0  503  0.65415457692E+02  0.32044321675E+02 -0.92823842211E+02  0.11808630886E+03  0.47000000000E+01 0.  1.
         11    1    4    4    0    0  0.38847250945E+02 -0.55505331078E+02 -0.89405257239E+02  0.11217508951E+03  0.00000000000E+00 0. -1.
        -12    1    4    4    0    0 -0.30345225344E+02 -0.72149771818E+02 -0.51354566714E+02  0.93614709298E+02  0.00000000000E+00 0.  1.
</event>
<event>
12    1  0.1681255E-001  0.1974559E+03  0.7818608E-02  0.1151912E+00
         21   -1    0    0  503  502  0.00000000000E+00  0.00000000000E+00  0.20836431580E+03  0.20836431580E+03  0.00000000000E+00 0.  1.
         21   -1    0    0  501  503 -0.00000000000E+00 -0.00000000000E+00 -0.20292847018E+03  0.20292847018E+03  0.00000000000E+00 0.  1.
          6    2    1    2  501    0  0.74119225382E+02 -0.60886420143E+02 -0.54750276601E+02  0.20486798324E+03  0.17254704298E+03 0.  0.
         24    2    3    3    0    0  0.86668048699E+01 -0.89809019108E+02 -0.57594457962E+02  0.13309949817E+03  0.79104875988E+02 0.  0.
         -6    2    1    2    0  502 -0.74119225382E+02  0.60886420143E+02  0.60186122219E+02  0.20642480275E+03  0.17259204545E+03 0.  0.
        -24    2    5    5    0    0 -0.36187114986E+01  0.69986431773E+02 -0.12629486034E+02  0.10455559506E+03  0.76558296973E+02 0.  0.
          5    1    3    3  501    0  0.65452420512E+02  0.28922598965E+02  0.28441813611E+01  0.71768485071E+02  0.47000000000E+01 0. -1.
        -11    1    4    4    0    0  0.31739537622E+02 -0.22589016985E+02 -0.47316837750E+02  0.61290660557E+02  0.00000000000E+00 0.  1.
         12    1    4    4    0    0 -0.23072732752E+02 -0.67220002123E+02 -0.10277620212E+02  0.71808837612E+02  0.00000000000E+00 0. -1.
         -5    1    5    5    0  502 -0.70500513884E+02 -0.91000116300E+01  0.72815608254E+02  0.10186920769E+03  0.47000000000E+01 0.  1.
         13    1    6    6    0    0 -0.14100431807E+02 -0.11414703756E+02 -0.13275013684E+02  0.22479849361E+02  0.00000000000E+00 0. -1.
        -14    1    6    6    0    0  0.10481720308E+02  0.81401135529E+02  0.64552764988E+00  0.82075745698E+02  0.00000000000E+00 0.  1.
</event>
<event>
12    1  0.1681255E-001  0.1884273E+03  0.7818608E-02  0.1160167E+00
         21   -1    0    0  503  502  0.00000000000E+00  0.00000000000E+00  0.61713873309E+02  0.61713873309E+02  0.00000000000E+00 0.  1.
         21   -1    0    0  501  503 -0.00000000000E+00 -0.00000000000E+00 -0.95068340021E+03  0.95068340021E+03  0.00000000000E+00 0.  1.
          6    2    1    2  501    0  0.68729585429E+02  0.37826920365E+02 -0.76326666555E+03  0.78588884389E+03  0.16997246949E+03 0.  0.
         24    2    3    3    0    0  0.31405636182E+02  0.63975575842E+02 -0.70409995229E+03  0.71105823966E+03  0.69049902855E+02 0.  0.
         -6    2    1    2    0  502 -0.68729585429E+02 -0.37826920365E+02 -0.12570286135E+03  0.22650842963E+03  0.17131908103E+03 0.  0.
        -24    2    5    5    0    0  0.15994401693E+02  0.15326395434E+02 -0.84217083401E+02  0.11812674877E+03  0.79816617045E+02 0.  0.
          5    1    3    3  501    0  0.37323949247E+02 -0.26148655477E+02 -0.59166713262E+02  0.74830604227E+02  0.47000000000E+01 0. -1.
        -11    1    4    4    0    0  0.31665199576E+02  0.76053490693E+02 -0.51261668506E+03  0.51919426433E+03  0.00000000000E+00 0.  1.
         12    1    4    4    0    0 -0.25956339367E+00 -0.12077914851E+02 -0.19148326723E+03  0.19186397533E+03  0.00000000000E+00 0. -1.
         -5    1    5    5    0  502 -0.84723987122E+02 -0.53153315799E+02 -0.41485777946E+02  0.10838168086E+03  0.47000000000E+01 0.  1.
         13    1    6    6    0    0  0.41476006617E+02 -0.12277854300E+02 -0.32024211110E+02  0.53819651878E+02  0.00000000000E+00 0. -1.
        -14    1    6    6    0    0 -0.25481604925E+02  0.27604249734E+02 -0.52192872291E+02  0.64307096894E+02  0.00000000000E+00 0.  1.
</event>
<event>
12    1  0.1681255E-001  0.2762821E+03  0.7818608E-02  0.1098035E+00
         21   -1    0    0  503  502  0.00000000000E+00  0.00000000000E+00  0.78824245694E+03  0.78824245694E+03  0.00000000000E+00 0.  1.
         21   -1    0    0  501  503 -0.00000000000E+00 -0.00000000000E+00 -0.18941393748E+03  0.18941393748E+03  0.00000000000E+00 0. -1.
          6    2    1    2  501    0  0.11726836579E+03 -0.17820507060E+03 -0.43113066588E+02  0.27962573254E+03  0.17556450947E+03 0.  0.
         24    2    3    3    0    0  0.12166396717E+03 -0.15620585764E+03  0.19401820268E+02  0.21304129171E+03  0.76208729640E+02 0.  0.
         -6    2    1    2    0  502 -0.11726836579E+03  0.17820507060E+03  0.64194158605E+03  0.69803066188E+03  0.17218852522E+03 0.  0.
        -24    2    5    5    0    0 -0.12439245959E+03  0.69200425894E+02  0.39131341093E+03  0.42459083771E+03  0.83000065919E+02 0.  0.
          5    1    3    3  501    0 -0.43956013798E+01 -0.21999212961E+02 -0.62514886856E+02  0.66584440833E+02  0.47000000000E+01 0. -1.
        -11    1    4    4    0    0  0.59301586959E+02 -0.91247748645E+02  0.47459638561E+02  0.11872340604E+03  0.00000000000E+00 0.  1.
         12    1    4    4    0    0  0.62362380211E+02 -0.64958108997E+02 -0.28057818292E+02  0.94317885671E+02  0.00000000000E+00 0. -1.
         -5    1    5    5    0  502  0.71240937960E+01  0.10900464471E+03  0.25062817512E+03  0.27343982418E+03  0.47000000000E+01 0.  1.
         11    1    6    6    0    0 -0.39025939622E+02  0.35368960716E+02  0.55767953135E+02  0.76707574218E+02  0.00000000000E+00 0. -1.
        -12    1    6    6    0    0 -0.85366519964E+02  0.33831465178E+02  0.33554545780E+03  0.34788326349E+03  0.00000000000E+00 0.  1.
</event>
<event>
12    1  0.1681255E-001  0.2818802E+03  0.7818608E-02  0.1094670E+00
         21   -1    0    0  501  502  0.00000000000E+00  0.00000000000E+00  0.72548816884E+02  0.72548816884E+02  0.00000000000E+00 0. -1.
         21   -1    0    0  502  503 -0.00000000000E+00 -0.00000000000E+00 -0.12266861437E+04  0.12266861437E+04  0.00000000000E+00 0.  1.
         -6    2    1    2    0  503 -0.87841077954E+02  0.20446406101E+03 -0.36428300213E+03  0.46058944286E+03  0.17297087042E+03 0.  0.
        -24    2    3    3    0    0  0.15730645612E+02  0.62835420398E+02 -0.17023190626E+03  0.19893376917E+03  0.79999995884E+02 0.  0.
          6    2    1    2  501    0  0.87841077954E+02 -0.20446406101E+03 -0.78985432471E+03  0.83864551774E+03  0.17301688630E+03 0.  0.
         24    2    5    5    0    0  0.53160348354E+02 -0.17656895269E+03 -0.75712480946E+03  0.78320003783E+03  0.78496525198E+02 0.  0.
          5    1    5    5  501    0  0.34680729600E+02 -0.27895108325E+02 -0.32729515245E+02  0.55445479908E+02  0.47000000000E+01 0. -1.
        -11    1    6    6    0    0  0.31251669326E+02 -0.10353571933E+03 -0.58543222549E+03  0.59533788948E+03  0.00000000000E+00 0.  1.
         12    1    6    6    0    0  0.21908679028E+02 -0.73033233358E+02 -0.17169258398E+03  0.18786214835E+03  0.00000000000E+00 0. -1.
         -5    1    3    3    0  503 -0.10357172357E+03  0.14162864062E+03 -0.19405109587E+03  0.26165567369E+03  0.47000000000E+01 0.  1.
         11    1    4    4    0    0 -0.13353920132E+02  0.45272766178E+02 -0.33086688165E+02  0.57642687949E+02  0.00000000000E+00 0. -1.
        -12    1    4    4    0    0  0.29084565744E+02  0.17562654220E+02 -0.13714521809E+03  0.14129108123E+03  0.00000000000E+00 0.  1.
</event>
<event>
12    1  0.1681255E-001  0.2161028E+03  0.7818608E-02  0.1136827E+00
         21   -1    0    0  501  502  0.00000000000E+00  0.00000000000E+00  0.69757601742E+02  0.69757601742E+02  0.00000000000E+00 0. -1.
         21   -1    0    0  502  503 -0.00000000000E+00 -0.00000000000E+00 -0.66949399072E+03  0.66949399072E+03  0.00000000000E+00 0.  1.
         -6    2    1    2    0  503  0.13106772237E+03 -0.11411342361E+02 -0.29543552640E+03  0.36603632465E+03  0.17143941822E+03 0.  0.
        -24    2    3    3    0    0  0.74131911700E+02  0.54128382808E+02 -0.12612412653E+03  0.17570613199E+03  0.80869817405E+02 0.  0.
          6    2    1    2  501    0 -0.13106772237E+03  0.11411342361E+02 -0.30430086257E+03  0.37321526781E+03  0.17141077733E+03 0.  0.
         24    2    5    5    0    0 -0.87323247938E+02  0.51062782970E+01 -0.30678439583E+03  0.32870020504E+03  0.79219540262E+02 0.  0.
          5    1    5    5  501    0 -0.43744474430E+02  0.63050640638E+01  0.24835332595E+01  0.44515062770E+02  0.47000000000E+01 0. -1.
        -11    1    6    6    0    0 -0.59152467333E+02 -0.60047977655E+01 -0.28564896091E+03  0.29177114466E+03  0.00000000000E+00 0.  1.
         12    1    6    6    0    0 -0.28170780605E+02  0.11111076062E+02 -0.21135434921E+02  0.36929060379E+02  0.00000000000E+00 0. -1.
         -5    1    3    3    0  503  0.56935810668E+02 -0.65539725169E+02 -0.16931139987E+03  0.19033019266E+03  0.47000000000E+01 0.  1.
         13    1    4    4    0    0  0.54303307732E+02 -0.46245860301E+01 -0.32641092036E+02  0.63526977859E+02  0.00000000000E+00 0. -1.
        -14    1    4    4    0    0  0.19828603969E+02  0.58752968838E+02 -0.93483034497E+02  0.11217915413E+03  0.00000000000E+00 0.  1.
</event>
<event>
12    1  0.1681255E-001  0.2148130E+03  0.7818608E-02  0.1138206E+00
         21   -1    0    0  503  502  0.00000000000E+00  0.00000000000E+00  0.20101026316E+03  0.20101026316E+03  0.00000000000E+00 0. -1.
         21   -1    0    0  501  503 -0.00000000000E+00 -0.00000000000E+00 -0.24080680784E+03  0.24080680784E+03  0.00000000000E+00 0. -1.
          6    2    1    2  501    0  0.10881541321E+03  0.62563322217E+02 -0.72147094518E+02  0.22660498988E+03  0.17432628818E+03 0.  0.
         24    2    3    3    0    0  0.10832911171E+03  0.89987477417E+01  0.23783176728E+01  0.13470544042E+03  0.79521854725E+02 0.  0.
         -6    2    1    2    0  502 -0.10881541321E+03 -0.62563322217E+02  0.32350549838E+02  0.21521208113E+03  0.17179848180E+03 0.  0.
        -24    2    5    5    0    0 -0.10932765004E+03 -0.84368876030E+02  0.67068698848E+02  0.17394242600E+03  0.81774781512E+02 0.  0.
          5    1    3    3  501    0  0.48630150140E+00  0.53564574475E+02 -0.74525412191E+02  0.91899549455E+02  0.47000000000E+01 0. -1.
        -11    1    4    4    0    0  0.24091862700E+02 -0.13854114246E+01  0.36061710721E+02  0.43391061214E+02  0.00000000000E+00 0.  1.
         12    1    4    4    0    0  0.84237249013E+02  0.10384159166E+02 -0.33683393048E+02  0.91314379208E+02  0.00000000000E+00 0. -1.
         -5    1    5    5    0  502  0.51223682910E+00  0.21805553813E+02 -0.34718149010E+02  0.41269655128E+02  0.47000000000E+01 0.  1.
         13    1    6    6    0    0 -0.44365565765E+02 -0.76555168206E+02  0.13760551123E+02  0.89545239806E+02  0.00000000000E+00 0. -1.
        -14    1    6    6    0    0 -0.64962084279E+02 -0.78137078244E+01  0.53308147726E+02  0.84397186196E+02  0.00000000000E+00 0.  1.
</event>
<event>
12    1  0.1681255E-001  0.1906150E+03  0.7818608E-02  0.1159165E+00
         21   -1    0    0  501  502  0.00000000000E+00  0.00000000000E+00  0.56393629769E+02  0.56393629769E+02  0.00000000000E+00 0.  1.
         21   -1    0    0  502  503 -0.00000000000E+00 -0.00000000000E+00 -0.83262275950E+03  0.83262275950E+03  0.00000000000E+00 0.  1.
         -6    2    1    2    0  503  0.74482005539E+02  0.69364051194E+01 -0.60535755326E+03  0.63302581247E+03  0.16931694865E+03 0.  0.
        -24    2    3    3    0    0  0.74428964708E+02  0.52982245493E+02 -0.53887515643E+03  0.55201827383E+03  0.77401235756E+02 0.  0.
          6    2    1    2  501    0 -0.74482005539E+02 -0.69364051194E+01 -0.17087157647E+03  0.25599057680E+03  0.17532369178E+03 0.  0.
         24    2    5    5    0    0 -0.28659230431E+02  0.32239998427E+02 -0.19862192498E+02  0.93323919607E+02  0.80337278349E+02 0.  0.
          5    1    5    5  501    0 -0.45822775108E+02 -0.39176403547E+02 -0.15100938397E+03  0.16266665719E+03  0.47000000000E+01 0. -1.
        -11    1    6    6    0    0 -0.32384498571E+02 -0.10414315349E+02  0.15887333439E+02  0.37544920771E+02  0.00000000000E+00 0.  1.
         12    1    6    6    0    0  0.37252681401E+01  0.42654313776E+02 -0.35749525937E+02  0.55778998836E+02  0.00000000000E+00 0. -1.
         -5    1    3    3    0  503  0.53040830303E-01 -0.46045840374E+02 -0.66482396835E+02  0.81007538649E+02  0.47000000000E+01 0.  1.
         11    1    4    4    0    0  0.32295299539E+02 -0.23286167360E+01 -0.60529869187E+02  0.68646004195E+02  0.00000000000E+00 0. -1.
        -12    1    4    4    0    0  0.42133665169E+02  0.55310862229E+02 -0.47834528724E+03  0.48337226963E+03  0.00000000000E+00 0.  1.
</event>
<event>
12    1  0.1681255E-001  0.1891526E+03  0.7818608E-02  0.1160203E+00
         21   -1    0    0  501  502  0.00000000000E+00  0.00000000000E+00  0.75262133847E+02  0.75262133847E+02  0.00000000000E+00 0. -1.
         21   -1    0    0  502  503 -0.00000000000E+00 -0.00000000000E+00 -0.80877291259E+03  0.80877291259E+03  0.00000000000E+00 0. -1.
         -6    2    1    2    0  503 -0.69778462839E+02  0.37539372224E+02 -0.65740998184E+03  0.68408084364E+03  0.17175703207E+03 0.  0.
        -24    2    3    3    0    0 -0.26012054840E+02  0.84724632920E+02 -0.29307528692E+03  0.31407569879E+03  0.69968066596E+02 0.  0.
          6    2    1    2  501    0  0.69778462839E+02 -0.37539372224E+02 -0.76100796905E+02  0.19995420280E+03  0.16706918802E+03 0.  0.
         24    2    5    5    0    0  0.58843777675E+02 -0.72575518748E+02 -0.33171595768E+02  0.14327876532E+03  0.10343429670E+03 0.  0.
          5    1    5    5  501    0  0.10934685163E+02  0.35036146524E+02 -0.42929201137E+02  0.56675437476E+02  0.47000000000E+01 0. -1.
        -13    1    6    6    0    0 -0.57990824651E+01  0.21149100673E+02  0.62316738165E+01  0.22797973052E+02  0.00000000000E+00 0.  1.
         14    1    6    6    0    0  0.64642860140E+02 -0.93724619421E+02 -0.39403269585E+02  0.12048079227E+03  0.00000000000E+00 0. -1.
         -5    1    3    3    0  503 -0.43766407999E+02 -0.47185260696E+02 -0.36433469492E+03  0.37000514485E+03  0.47000000000E+01 0.  1.
         11    1    4    4    0    0  0.16027634301E+02  0.63123975555E+02 -0.15465558750E+03  0.16780903461E+03  0.00000000000E+00 0. -1.
        -12    1    4    4    0    0 -0.42039689141E+02  0.21600657365E+02 -0.13841969942E+03  0.14626666418E+03  0.00000000000E+00 0.  1.
</event>
<event>
12    1  0.1681255E-001  0.1818565E+03  0.7818608E-02  0.1166333E+00
         21   -1    0    0  501  502  0.00000000000E+00  0.00000000000E+00  0.10145234290E+03  0.10145234290E+03  0.00000000000E+00 0. -1.
         21   -1    0    0  502  503 -0.00000000000E+00 -0.00000000000E+00 -0.33430610297E+03  0.33430610297E+03  0.00000000000E+00 0. -1.
         -6    2    1    2    0  503  0.44021575539E+02 -0.33770886237E+02 -0.77913004550E+02  0.19784396226E+03  0.17318610006E+03 0.  0.
        -24    2    3    3    0    0 -0.40394753683E+02 -0.64883281468E+01 -0.55532185078E+02  0.10622821200E+03  0.80788457828E+02 0.  0.
          6    2    1    2  501    0 -0.44021575539E+02  0.33770886237E+02 -0.15494075552E+03  0.23791448360E+03  0.17180888195E+03 0.  0.
         24    2    5    5    0    0 -0.58052418395E+02  0.40665151672E+02 -0.17969918696E+03  0.20825870213E+03  0.77821278427E+02 0.  0.
          5    1    5    5  501    0  0.14030842856E+02 -0.68942654350E+01  0.24758431445E+02  0.29655781473E+02  0.47000000000E+01 0. -1.
        -11    1    6    6    0    0 -0.24597155537E+02  0.44173548414E+02 -0.16308141829E+03  0.17073919125E+03  0.00000000000E+00 0.  1.
         12    1    6    6    0    0 -0.33455262858E+02 -0.35083967426E+01 -0.16617768678E+02  0.37519510877E+02  0.00000000000E+00 0. -1.
         -5    1    3    3    0  503  0.84416329222E+02 -0.27282558090E+02 -0.22380819472E+02  0.91615750259E+02  0.47000000000E+01 0.  1.
         11    1    4    4    0    0 -0.40579794387E+02 -0.28130286809E+02 -0.30638466719E+01  0.49471404921E+02  0.00000000000E+00 0. -1.
        -12    1    4    4    0    0  0.18504070428E+00  0.21641958662E+02 -0.52468338406E+02  0.56756807080E+02  0.00000000000E+00 0.  1.
</event>
<event>
12    1  0.1681255E-001  0.2244261E+03  0.7818608E-02  0.1132415E+00
         21   -1    0    0  503  502  0.00000000000E+00  0.00000000000E+00  0.65784614607E+03  0.65784614607E+03  0.00000000000E+00 0. -1.
         21   -1    0    0  501  503 -0.00000000000E+00 -0.00000000000E+00 -0.54235011382E+03  0.54235011382E+03  0.00000000000E+00 0. -1.
          6    2    1    2  501    0  0.11594462004E+03  0.56001018365E+02 -0.50047025016E+03  0.54461898926E+03  0.17193051850E+03 0.  0.
         24    2    3    3    0    0  0.58237727721E+02  0.88177335325E+02 -0.42057672962E+03  0.44083813641E+03  0.79288092537E+02 0.  0.
         -6    2    1    2    0  502 -0.11594462004E+03 -0.56001018365E+02  0.61596628241E+03  0.65557727062E+03  0.18381465589E+03 0.  0.
        -24    2    5    5    0    0 -0.12430999915E+03 -0.21806024376E+02  0.59680377461E+03  0.61522173957E+03  0.79966023164E+02 0.  0.
          5    1    3    3  501    0  0.57706892318E+02 -0.32176316960E+02 -0.79893520540E+02  0.10378085285E+03  0.47000000000E+01 0. -1.
        -11    1    4    4    0    0 -0.16496913984E+02  0.82759180579E+01 -0.11040219083E+03  0.11193427863E+03  0.00000000000E+00 0.  1.
         12    1    4    4    0    0  0.74734641705E+02  0.79901417267E+02 -0.31017453879E+03  0.32890385779E+03  0.00000000000E+00 0. -1.
         -5    1    5    5    0  502  0.83653791148E+01 -0.34194993989E+02  0.19162507798E+02  0.40355531055E+02  0.47000000000E+01 0.  1.
         11    1    6    6    0    0 -0.24926404977E+02 -0.17924277560E+02  0.31285526080E+03  0.31435810726E+03  0.00000000000E+00 0. -1.
        -12    1    6    6    0    0 -0.99383594177E+02 -0.38817468166E+01  0.28394851381E+03  0.30086363230E+03  0.00000000000E+00 0.  1.
</event>
<event>
12    1  0.1681255E-001  0.2465674E+03  0.7818608E-02  0.1115749E+00
         21   -1    0    0  503  502  0.00000000000E+00  0.00000000000E+00  0.17119549312E+03  0.17119549312E+03  0.00000000000E+00 0. -1.
         21   -1    0    0  501  503 -0.00000000000E+00 -0.00000000000E+00 -0.36754195793E+03  0.36754195793E+03  0.00000000000E+00 0.  1.
          6    2    1    2  501    0 -0.12214702804E+03 -0.12641423599E+03 -0.15233107595E+03  0.28982796997E+03  0.17290182173E+03 0.  0.
         24    2    3    3    0    0 -0.12432034250E+03 -0.12002423665E+03 -0.64511231901E+02  0.20162382950E+03  0.81419313667E+02 0.  0.
         -6    2    1    2    0  502  0.12214702804E+03  0.12641423599E+03 -0.44015388860E+02  0.24890948108E+03  0.17064032289E+03 0.  0.
        -24    2    5    5    0    0 -0.22701125236E+01  0.22576673195E+02 -0.23116382330E+02  0.85444736299E+02  0.79066909930E+02 0.  0.
          5    1    3    3  501    0  0.21733144632E+01 -0.63899993389E+01 -0.87819844049E+02  0.88204140470E+02  0.47000000000E+01 0. -1.
        -13    1    4    4    0    0 -0.13058324689E+03 -0.10049130310E+03 -0.71958529906E+02  0.17980132479E+03  0.00000000000E+00 0.  1.
         14    1    4    4    0    0  0.62629043931E+01 -0.19532933547E+02  0.74472980058E+01  0.21822504713E+02  0.00000000000E+00 0. -1.
         -5    1    5    5    0  502  0.12441714056E+03  0.10383756279E+03 -0.20899006531E+02  0.16346474478E+03  0.47000000000E+01 0.  1.
         13    1    6    6    0    0  0.11088122863E+02 -0.27358615608E+02 -0.15025856042E+02  0.33124260994E+02  0.00000000000E+00 0. -1.
        -14    1    6    6    0    0 -0.13358235386E+02  0.49935288804E+02 -0.80905262873E+01  0.52320475305E+02  0.00000000000E+00 0.  1.
</event>
<event>
12    1  0.1681255E-001  0.2455222E+03  0.7818608E-02  0.1116275E+00
         21   -1    0    0  503  502  0.00000000000E+00  0.00000000000E+00  0.37957928231E+03  0.37957928231E+03  0.00000000000E+00 0. -1.
         21   -1    0    0  501  503 -0.00000000000E+00 -0.00000000000E+00 -0.18254140398E+03  0.18254140398E+03  0.00000000000E+00 0.  1.
          6    2    1    2  501    0  0.49947597921E+02  0.16648633047E+03  0.20088361558E+03  0.31723076279E+03  0.17340319800E+03 0.  0.
         24    2    3    3    0    0  0.69092122061E+02  0.18116826978E+03  0.14104406575E+03  0.25253969795E+03  0.79291911648E+02 0.  0.
         -6    2    1    2    0  502 -0.49947597921E+02 -0.16648633047E+03 -0.38457372489E+01  0.24488992350E+03  0.17246397933E+03 0.  0.
        -24    2    5    5    0    0 -0.41086594397E+02 -0.98161535899E+02  0.63383100923E+02  0.14851253186E+03  0.81943634704E+02 0.  0.
          5    1    3    3  501    0 -0.19144524140E+02 -0.14681939303E+02  0.59839549823E+02  0.64691064833E+02  0.47000000000E+01 0. -1.
        -13    1    4    4    0    0 -0.15527205459E+02  0.57567560712E+02  0.37319775645E+02  0.70341195681E+02  0.00000000000E+00 0.  1.
         14    1    4    4    0    0  0.84619327520E+02  0.12360070906E+03  0.10372429011E+03  0.18219850227E+03  0.00000000000E+00 0. -1.
         -5    1    5    5    0  502 -0.88610035243E+01 -0.68324794574E+02 -0.67228838172E+02  0.96377391638E+02  0.47000000000E+01 0.  1.
         11    1    6    6    0    0 -0.57826590188E+02 -0.45751011898E+02  0.15002020425E+02  0.75247127781E+02  0.00000000000E+00 0. -1.
        -12    1    6    6    0    0  0.16739995791E+02 -0.52410524001E+02  0.48381080498E+02  0.73265404082E+02  0.00000000000E+00 0.  1.
</event>
<event>
12    1  0.1681255E-001  0.2713097E+03  0.7818608E-02  0.1100798E+00
         21   -1    0    0  503  502  0.00000000000E+00  0.00000000000E+00  0.31709262879E+03  0.31709262879E+03  0.00000000000E+00 0.  1.
         21   -1    0    0  501  503 -0.00000000000E+00 -0.00000000000E+00 -0.65893721332E+03  0.65893721332E+03  0.00000000000E+00 0. -1.
          6    2    1    2  501    0 -0.68611154084E+02 -0.19572794088E+03 -0.56420380186E+03  0.62524130228E+03  0.17199953122E+03 0.  0.
         24    2    3    3    0    0  0.30129716434E+02 -0.85509933316E+02 -0.28252613540E+03  0.30702413353E+03  0.78886328867E+02 0.  0.
         -6    2    1    2    0  502  0.68611154084E+02  0.19572794088E+03  0.22235921733E+03  0.35078853983E+03  0.17490586280E+03 0.  0.
        -24    2    5    5    0    0 -0.19239979921E+02  0.40814160923E+02  0.92714368848E+02  0.13045702210E+03  0.79919383543E+02 0.  0.
          5    1    3    3  501    0 -0.98740870518E+02 -0.11021800757E+03 -0.28167766646E+03  0.31821716875E+03  0.47000000000E+01 0. -1.
        -13    1    4    4    0    0  0.29481815079E+01  0.11128215653E+02 -0.81676762333E+02  0.82484073996E+02  0.00000000000E+00 0.  1.
         14    1    4    4    0    0  0.27181534926E+02 -0.96638148969E+02 -0.20084937306E+03  0.22454005954E+03  0.00000000000E+00 0. -1.
         -5    1    5    5    0  502  0.87851134005E+02  0.15491377996E+03  0.12964484848E+03  0.22033151773E+03  0.47000000000E+01 0.  1.
         11    1    6    6    0    0 -0.20752571648E+02  0.43682616200E+02  0.12199039132E+02  0.49876414705E+02  0.00000000000E+00 0. -1.
        -12    1    6    6    0    0  0.15125917272E+01 -0.28684552773E+01  0.80515329716E+02  0.80580607398E+02  0.00000000000E+00 0.  1.
</event>
<event>
12    1  0.1681255E-001  0.2263735E+03  0.7818608E-02  0.1130130E+00
         21   -1    0    0  501  502  0.00000000000E+00  0.00000000000E+00  0.78290620609E+02  0.78290620609E+02  0.00000000000E+00 0. -1.
         21   -1    0    0  502  503 -0.00000000000E+00 -0.00000000000E+00 -0.68185908595E+03  0.68185908595E+03  0.00000000000E+00 0.  1.
         -6    2    1    2    0  503  0.10921773393E+03  0.85096712269E+02 -0.39896511636E+03  0.45871353531E+03  0.17909488984E+03 0.  0.
        -24    2    3    3    0    0 -0.96578148049E+01 -0.27924216767E+01 -0.14368516597E+03  0.16367821705E+03  0.77743558006E+02 0.  0.
          6    2    1    2  501    0 -0.10921773393E+03 -0.85096712269E+02 -0.20460334898E+03  0.30143617124E+03  0.17271731551E+03 0.  0.
         24    2    5    5    0    0  0.50617785175E+01 -0.51038855859E+02 -0.55309065811E+02  0.11030632654E+03  0.80484821582E+02 0.  0.
          5    1    5    5  501    0 -0.11427951245E+03 -0.34057856410E+02 -0.14929428317E+03  0.19112984470E+03  0.47000000000E+01 0. -1.
        -13    1    6    6    0    0  0.71025451087E+01 -0.23582496100E+02 -0.73360332112E+02  0.77384227055E+02  0.00000000000E+00 0.  1.
         14    1    6    6    0    0 -0.20407665912E+01 -0.27456359759E+02  0.18051266301E+02  0.32922099486E+02  0.00000000000E+00 0. -1.
         -5    1    3    3    0  503  0.11887554873E+03  0.87889133945E+02 -0.25527995039E+03  0.29503531827E+03  0.47000000000E+01 0.  1.
         13    1    4    4    0    0 -0.17699837123E+02  0.30492056347E+02 -0.34812138267E+02  0.49547297658E+02  0.00000000000E+00 0. -1.
        -14    1    4    4    0    0  0.80420223183E+01 -0.33284478024E+02 -0.10887302770E+03  0.11413091939E+03  0.00000000000E+00 0.  1.
</event>
<event>
12    1  0.1681255E-001  0.1830384E+03  0.7818608E-02  0.1165984E+00
         21   -1    0    0  503  502  0.00000000000E+00  0.00000000000E+00  0.13774697319E+04  0.13774697319E+04  0.00000000000E+00 0. -1.
         21   -1    0    0  501  503 -0.00000000000E+00 -0.00000000000E+00 -0.47531221524E+02  0.47531221524E+02  0.00000000000E+00 0. -1.
          6    2    1    2  501    0 -0.26156927661E+02 -0.35580467647E+02  0.15654795527E+03  0.23742002565E+03  0.17294754042E+03 0.  0.
         24    2    3    3    0    0 -0.84121640435E+02 -0.30884404175E+02  0.89527019568E+02  0.14856139207E+03  0.77621538064E+02 0.  0.
         -6    2    1    2    0  502  0.26156927661E+02  0.35580467647E+02  0.11733905551E+04  0.11875809278E+04  0.17763138983E+03 0.  0.
        -24    2    5    5    0    0 -0.32190370705E+02  0.13738070226E+02  0.30944838303E+03  0.32138253004E+03  0.79394422425E+02 0.  0.
          5    1    3    3  501    0  0.57964712774E+02 -0.46960634721E+01  0.67020935701E+02  0.88858633578E+02  0.47000000000E+01 0. -1.
        -13    1    4    4    0    0 -0.35733530985E+02 -0.53605613798E+02  0.56758545194E+02  0.85860232470E+02  0.00000000000E+00 0.  1.
         14    1    4    4    0    0 -0.48388109450E+02  0.22721209622E+02  0.32768474375E+02  0.62701159604E+02  0.00000000000E+00 0. -1.
         -5    1    5    5    0  502  0.58347298366E+02  0.21842397421E+02  0.86394217209E+03  0.86619839775E+03  0.47000000000E+01 0.  1.
         13    1    6    6    0    0 -0.22001739345E+02  0.45701374063E+02  0.14695243613E+03  0.15545967519E+03  0.00000000000E+00 0. -1.
        -14    1    6    6    0    0 -0.10188631360E+02 -0.31963303837E+02  0.16249594690E+03  0.16592285484E+03  0.00000000000E+00 0.  1.
</event>
<event>
12    1  0.1681255E-001  0.1850044E+03  0.7818608E-02  0.1163320E+00
         21   -1    0    0  501  502  0.00000000000E+00  0.00000000000E+00  0.16201812996E+03  0.16201812996E+03  0.00000000000E+00 0. -1.
         21   -1    0    0  502  503 -0.00000000000E+00 -0.00000000000E+00 -0.21327398204E+03  0.21327398204E+03  0.00000000000E+00 0. -1.
         -6    2    1    2    0  503  0.62862655172E+02  0.25591277729E+02 -0.20082659488E+01  0.18384509958E+03  0.17084601428E+03 0.  0.
        -24    2    3    3    0    0  0.10844566582E+03  0.21353280057E+02 -0.55596757794E+01  0.13768804165E+03  0.81918629227E+02 0.  0.
          6    2    1    2  501    0 -0.62862655172E+02 -0.25591277729E+02 -0.49247586137E+02  0.19144701242E+03  0.17210463943E+03 0.  0.
         24    2    5    5    0    0 -0.10805588381E+03 -0.26840662955E+02 -0.50518572814E+02  0.14597510587E+03  0.79750298563E+02 0.  0.
          5    1    5    5  501    0  0.45193228640E+02  0.12493852259E+01  0.12709866776E+01  0.45471906553E+02  0.47000000000E+01 0. -1.
        -13    1    6    6    0    0 -0.20015916355E+01 -0.10940813648E+02  0.16218093919E+02  0.19665562354E+02  0.00000000000E+00 0.  1.
         14    1    6    6    0    0 -0.10605429218E+03 -0.15899849307E+02 -0.66736666733E+02  0.12630954352E+03  0.00000000000E+00 0. -1.
         -5    1    3    3    0  503 -0.45583010652E+02  0.42379976719E+01  0.35514098306E+01  0.46157057923E+02  0.47000000000E+01 0.  1.
         11    1    4    4    0    0  0.95552058926E+02  0.24358474409E+01  0.25666037863E+02  0.98969059899E+02  0.00000000000E+00 0. -1.
        -12    1    4    4    0    0  0.12893606897E+02  0.18917432616E+02 -0.31225713642E+02  0.38718981754E+02  0.00000000000E+00 0.  1.
</event>
<event>
12    1  0.1681255E-001  0.2225178E+03  0.7818608E-02  0.1132534E+00
         21   -1    0    0  503  502  0.00000000000E+00  0.00000000000E+00  0.16543289953E+03  0.16543289953E+03  0.00000000000E+00 0.  1.
         21   -1    0    0  501  503 -0.00000000000E+00 -0.00000000000E+00 -0.17141344054E+04  0.17141344054E+04  0.00000000000E+00 0.  1.
          6    2    1    2  501    0  0.70095723079E+02  0.12200922365E+03 -0.16284368170E+04  0.16431949475E+04  0.16877057661E+03 0.  0.
         24    2    3    3    0    0  0.97015774766E+02  0.60781784178E+02 -0.13266259086E+04  0.13340260569E+04  0.81134044260E+02 0.  0.
         -6    2    1    2    0  502 -0.70095723079E+02 -0.12200922365E+03  0.79735311135E+02  0.23637235741E+03  0.17237897336E+03 0.  0.
        -24    2    5    5    0    0 -0.68869675752E+02 -0.72284259216E+02 -0.16075104820E+02  0.12831773657E+03  0.78987253116E+02 0.  0.
          5    1    3    3  501    0 -0.26920051687E+02  0.61227439476E+02 -0.30181090841E+03  0.30916889068E+03  0.47000000000E+01 0. -1.
        -11    1    4    4    0    0  0.33836366215E+02  0.68553899877E+02 -0.76028937136E+03  0.76412333106E+03  0.00000000000E+00 0.  1.
         12    1    4    4    0    0  0.63179408551E+02 -0.77721156987E+01 -0.56633653725E+03  0.56990272580E+03  0.00000000000E+00 0. -1.
         -5    1    5    5    0  502 -0.12260473270E+01 -0.49724964438E+02  0.95810415955E+02  0.10805462084E+03  0.47000000000E+01 0.  1.
         11    1    6    6    0    0 -0.12119227733E+02  0.78993729466E+01 -0.25824729336E+02  0.29600547614E+02  0.00000000000E+00 0. -1.
        -12    1    6    6    0    0 -0.56750448019E+02 -0.80183632162E+02  0.97496245161E+01  0.98717188956E+02  0.00000000000E+00 0.  1.
</event>
<event>
12    1  0.1681255E-001  0.2143446E+03  0.7818608E-02  0.1138202E+00
         21   -1    0    0  501  502  0.00000000000E+00  0.00000000000E+00  0.30936287759E+03  0.30936287759E+03  0.00000000000E+00 0. -1.
         21   -1    0    0  502  503 -0.00000000000E+00 -0.00000000000E+00 -0.37272048782E+03  0.37272048782E+03  0.00000000000E+00 0. -1.
         -6    2    1    2    0  503  0.10606657524E+03  0.69042897334E+02 -0.29624997438E+03  0.36556724214E+03  0.17279560513E+03 0.  0.
        -24    2    3    3    0    0  0.83001599830E+02  0.11097918353E+03 -0.25934876047E+03  0.30495012592E+03  0.80790810062E+02 0.  0.
          6    2    1    2  501    0 -0.10606657524E+03 -0.69042897334E+02  0.23289236415E+03  0.31651612327E+03  0.17299295637E+03 0.  0.
         24    2    5    5    0    0 -0.86062910120E+02 -0.34799331727E+02  0.24535047795E+03  0.27468236892E+03  0.81459982687E+02 0.  0.
          5    1    5    5  501    0 -0.20003665118E+02 -0.34243565607E+02 -0.12458113796E+02  0.41833754350E+02  0.47000000000E+01 0. -1.
        -13    1    6    6    0    0  0.14612601918E+02  0.45148456704E+01  0.34795793664E+02  0.38008672996E+02  0.00000000000E+00 0.  1.
         14    1    6    6    0    0 -0.10067551204E+03 -0.39314177398E+02  0.21055468429E+03  0.23667369593E+03  0.00000000000E+00 0. -1.
         -5    1    3    3    0  503  0.23064975408E+02 -0.41936286200E+02 -0.36901213918E+02  0.60617116225E+02  0.47000000000E+01 0.  1.
         13    1    4    4    0    0  0.30947929991E+02  0.29323081302E+02 -0.20679879217E+02  0.47384331505E+02  0.00000000000E+00 0. -1.
        -14    1    4    4    0    0  0.52053669839E+02  0.81656102232E+02 -0.23866888125E+03  0.25756579441E+03  0.00000000000E+00 0.  1.
</event>
<event>
12    1  0.1681255E-001  0.2172788E+03  0.7818608E-02  0.1137404E+00
         21   -1    0    0  503  502  0.00000000000E+00  0.00000000000E+00  0.82434516764E+03  0.82434516764E+03  0.00000000000E+00 0.  1.
         21   -1    0    0  501  503 -0.00000000000E+00 -0.00000000000E+00 -0.63520656750E+02  0.63520656750E+02  0.00000000000E+00 0. -1.
          6    2    1    2  501    0 -0.10526954220E+03 -0.61686201465E+02  0.21453629627E+03  0.29995350956E+03  0.17046824196E+03 0.  0.
         24    2    3    3    0    0 -0.75125754363E+02 -0.93986784310E+02  0.21147237812E+03  0.25541753319E+03  0.77718433820E+02 0.  0.
         -6    2    1    2    0  502  0.10526954220E+03  0.61686201465E+02  0.54628821462E+03  0.58791231482E+03  0.17978657492E+03 0.  0.
        -24    2    5    5    0    0  0.93464409336E+02 -0.18376902811E+02  0.25612920959E+03  0.28664200426E+03  0.86534156436E+02 0.  0.
          5    1    3    3  501    0 -0.30143787839E+02  0.32300582844E+02  0.30639181413E+01  0.44535976376E+02  0.47000000000E+01 0. -1.
        -11    1    4    4    0    0 -0.40960798440E+02 -0.57681862245E+01  0.10572654714E+03  0.11353044416E+03  0.00000000000E+00 0.  1.
         12    1    4    4    0    0 -0.34164955923E+02 -0.88218598085E+02  0.10574583098E+03  0.14188708902E+03  0.00000000000E+00 0. -1.
         -5    1    5    5    0  502  0.11805132867E+02  0.80063104277E+02  0.29015900503E+03  0.30127031056E+03  0.47000000000E+01 0.  1.
         11    1    6    6    0    0  0.10302184741E+03 -0.11148137160E+02  0.16577871192E+03  0.19550028985E+03  0.00000000000E+00 0. -1.
        -12    1    6    6    0    0 -0.95574380766E+01 -0.72287656512E+01  0.90350497674E+02  0.91141714409E+02  0.00000000000E+00 0.  1.
</event>
<event>
12    1  0.1681255E-001  0.1816197E+03  0.7818608E-02  0.1166556E+00
         21   -1    0    0  503  502  0.00000000000E+00  0.00000000000E+00  0.17088643134E+04  0.17088643134E+04  0.00000000000E+00 0. -1.
         21   -1    0    0  501  503 -0.00000000000E+00 -0.00000000000E+00 -0.36789945641E+02  0.36789945641E+02  0.00000000000E+00 0. -1.
          6    2    1    2  501    0  0.53584750762E+02  0.21792050019E+01  0.23035830111E+03  0.29254347564E+03  0.17216464155E+03 0.  0.
         24    2    3    3    0    0  0.10304639990E+03 -0.91430147172E-01  0.17798925988E+03  0.22032009301E+03  0.79007581021E+02 0.  0.
         -6    2    1    2    0  502 -0.53584750762E+02 -0.21792050019E+01  0.14417160666E+04  0.14531107834E+04  0.17352134613E+03 0.  0.
        -24    2    5    5    0    0 -0.21110683983E+02  0.16054813493E+02  0.13677657452E+04  0.13701783742E+04  0.76825943190E+02 0.  0.
          5    1    3    3  501    0 -0.49461649136E+02  0.22706351490E+01  0.52369041230E+02  0.72223382630E+02  0.47000000000E+01 0. -1.
        -11    1    4    4    0    0 -0.69041341094E+01  0.41468990783E+01 -0.29283123468E+01  0.85696471904E+01  0.00000000000E+00 0.  1.
         12    1    4    4    0    0  0.10995053401E+03 -0.42383292255E+01  0.18091757223E+03  0.21175044582E+03  0.00000000000E+00 0. -1.
         -5    1    5    5    0  502 -0.32474066779E+02 -0.18234018495E+02  0.73950321480E+02  0.82932409170E+02  0.47000000000E+01 0.  1.
         11    1    6    6    0    0 -0.16555492513E+02 -0.17330007768E+02  0.11051609705E+04  0.11054208177E+04  0.00000000000E+00 0. -1.
        -12    1    6    6    0    0 -0.45551914701E+01  0.33384821261E+02  0.26260477471E+03  0.26475755657E+03  0.00000000000E+00 0.  1.
</event>
<event>
12    1  0.1681255E-001  0.1824859E+03  0.7818608E-02  0.1165657E+00
         21   -1    0    0  501  502  0.00000000000E+00  0.00000000000E+00  0.88509287824E+02  0.88509287824E+02  0.00000000000E+00 0. -1.
         21   -1    0    0  502  503 -0.00000000000E+00 -0.00000000000E+00 -0.10785855569E+04  0.10785855569E+04  0.00000000000E+00 0. -1.
         -6    2    1    2    0  503  0.31517502325E+01  0.59245262838E+02 -0.96709294232E+03  0.98415947473E+03  0.17257223970E+03 0.  0.
        -24    2    3    3    0    0  0.36655545932E+02  0.79181094604E+02 -0.88647179194E+03  0.89448338202E+03  0.81578232513E+02 0.  0.
          6    2    1    2  501    0 -0.31517502325E+01 -0.59245262838E+02 -0.22983326771E+02  0.18293537001E+03  0.17151437722E+03 0.  0.
         24    2    5    5    0    0  0.28953011478E+01  0.27357121222E+02 -0.41256428945E+02  0.94095423937E+02  0.79969125456E+02 0.  0.
          5    1    5    5  501    0 -0.60470513804E+01 -0.86602384060E+02  0.18273102173E+02  0.88839946074E+02  0.47000000000E+01 0. -1.
        -11    1    6    6    0    0  0.35361296447E+02  0.29236840199E+01 -0.39963381250E+02  0.53441940978E+02  0.00000000000E+00 0.  1.
         12    1    6    6    0    0 -0.32465995299E+02  0.24433437202E+02 -0.12930476950E+01  0.40653482958E+02  0.00000000000E+00 0. -1.
         -5    1    3    3    0  503 -0.33503795699E+02 -0.19935831766E+02 -0.80621150382E+02  0.89676092708E+02  0.47000000000E+01 0.  1.
         11    1    4    4    0    0 -0.20106682509E+02  0.31992316398E+02 -0.47034251199E+03  0.47185788705E+03  0.00000000000E+00 0. -1.
        -12    1    4    4    0    0  0.56762228441E+02  0.47188778205E+02 -0.41612927994E+03  0.42262549496E+03  0.00000000000E+00 0.  1.
</event>
<event>
12    1  0.1681255E-001  0.2122587E+03  0.7818608E-02  0.1140085E+00
         21   -1    0    0  503  502  0.00000000000E+00  0.00000000000E+00  0.50956298120E+03  0.50956298120E+03  0.00000000000E+00 0.  1.
         21   -1    0    0  501  503 -0.00000000000E+00 -0.00000000000E+00 -0.14887622691E+03  0.14887622691E+03  0.00000000000E+00 0. -1.
          6    2    1    2  501    0 -0.89605355000E+02 -0.81252703513E+02 -0.30160778460E+02  0.21439087386E+03  0.17442090691E+03 0.  0.
         24    2    3    3    0    0 -0.12421715368E+03 -0.20377263298E+02 -0.31820949387E+02  0.14418658627E+03  0.62706177611E+02 0.  0.
         -6    2    1    2    0  502  0.89605355000E+02  0.81252703513E+02  0.39084753275E+03  0.44404833425E+03  0.17258623300E+03 0.  0.
        -24    2    5    5    0    0  0.95915274450E+02  0.43264548093E+02  0.38215091451E+03  0.40429111850E+03  0.79626792210E+02 0.  0.
          5    1    3    3  501    0  0.34611798684E+02 -0.60875440215E+02  0.16601709267E+01  0.70204287597E+02  0.47000000000E+01 0. -1.
        -11    1    4    4    0    0 -0.41468348819E+02 -0.22986052402E+01  0.18716756860E+02  0.45554632335E+02  0.00000000000E+00 0.  1.
         12    1    4    4    0    0 -0.82748804865E+02 -0.18078658058E+02 -0.50537706247E+02  0.98631953932E+02  0.00000000000E+00 0. -1.
         -5    1    5    5    0  502 -0.63099194494E+01  0.37988155420E+02  0.86966182365E+01  0.39757215753E+02  0.47000000000E+01 0.  1.
         13    1    6    6    0    0 -0.16659495666E+01 -0.88825515182E+01  0.33102521742E+01  0.96245975962E+01  0.00000000000E+00 0. -1.
        -14    1    6    6    0    0  0.97581224017E+02  0.52147099611E+02  0.37884066234E+03  0.39466652090E+03  0.00000000000E+00 0.  1.
</event>
<event>
12    1  0.1681255E-001  0.1959057E+03  0.7818608E-02  0.1153542E+00
         21   -1    0    0  503  502  0.00000000000E+00  0.00000000000E+00  0.39659864086E+02  0.39659864086E+02  0.00000000000E+00 0.  1.
         21   -1    0    0  501  503 -0.00000000000E+00 -0.00000000000E+00 -0.13326115458E+04  0.13326115458E+04  0.00000000000E+00 0.  1.
          6    2    1    2  501    0 -0.53012172951E+02  0.76074647170E+02 -0.10105275861E+04  0.10293420513E+04  0.17257292335E+03 0.  0.
         24    2    3    3    0    0 -0.98115394936E+02  0.69657489276E+02 -0.64562461785E+03  0.66157616545E+03  0.79831566381E+02 0.  0.
         -6    2    1    2    0  502  0.53012172951E+02 -0.76074647170E+02 -0.28242409567E+03  0.34292935864E+03  0.17099570984E+03 0.  0.
        -24    2    5    5    0    0  0.66931703613E+02 -0.10185257251E+03 -0.27667200813E+03  0.31270633299E+03  0.79900257430E+02 0.  0.
          5    1    3    3  501    0  0.45103221986E+02  0.64171578944E+01 -0.36490296822E+03  0.36776588581E+03  0.47000000000E+01 0. -1.
        -11    1    4    4    0    0 -0.13061375639E+01 -0.66843974527E+01 -0.17305145603E+03  0.17318543125E+03  0.00000000000E+00 0.  1.
         12    1    4    4    0    0 -0.96809257373E+02  0.76341886728E+02 -0.47257316182E+03  0.48839073420E+03  0.00000000000E+00 0. -1.
         -5    1    5    5    0  502 -0.13919530662E+02  0.25777925335E+02 -0.57520875395E+01  0.30223025651E+02  0.47000000000E+01 0.  1.
         13    1    6    6    0    0  0.18001539265E+02 -0.49384126852E+01 -0.12383831130E+03  0.12523725756E+03  0.00000000000E+00 0. -1.
        -14    1    6    6    0    0  0.48930164348E+02 -0.96914159820E+02 -0.15283369682E+03  0.18746907543E+03  0.00000000000E+00 0.  1.
</event>
<event>
12    1  0.1681255E-001  0.1776689E+03  0.7818608E-02  0.1170489E+00
         21   -1    0    0  503  502  0.00000000000E+00  0.00000000000E+00  0.34505918890E+02  0.34505918890E+02  0.00000000000E+00 0.  1.
         21   -1    0    0  501  503 -0.00000000000E+00 -0.00000000000E+00 -0.10032541902E+04  0.10032541902E+04  0.00000000000E+00 0.  1.
          6    2    1    2  501    0 -0.35028484437E+02 -0.11412084802E+01 -0.64363707291E+03  0.66726915855E+03  0.17248522037E+03 0.  0.
         24    2    3    3    0    0  0.44236161375E+02 -0.20822377163E+02 -0.31385630126E+03  0.32749323264E+03  0.79722206567E+02 0.  0.
         -6    2    1    2    0  502  0.35028484437E+02  0.11412084802E+01 -0.32511119842E+03  0.37049095056E+03  0.17417794359E+03 0.  0.
        -24    2    5    5    0    0 -0.38342114141E+02  0.30338711664E+02 -0.14419294541E+03  0.17303401045E+03  0.82210754305E+02 0.  0.
          5    1    3    3  501    0 -0.79264645813E+02  0.19681168682E+02 -0.32978077165E+03  0.33977592591E+03  0.47000000000E+01 0. -1.
        -13    1    4    4    0    0 -0.17643273242E+02  0.27964217256E+01 -0.22634347751E+02  0.28834333065E+02  0.00000000000E+00 0.  1.
         14    1    4    4    0    0  0.61879434618E+02 -0.23618798888E+02 -0.29122195351E+03  0.29865889957E+03  0.00000000000E+00 0. -1.
         -5    1    5    5    0  502  0.73370598579E+02 -0.29197503183E+02 -0.18091825301E+03  0.19745694011E+03  0.47000000000E+01 0.  1.
         13    1    6    6    0    0  0.11403355053E+02  0.40489886124E+02 -0.44977312122E+02  0.61582676058E+02  0.00000000000E+00 0. -1.
        -14    1    6    6    0    0 -0.49745469195E+02 -0.10151174461E+02 -0.99215633291E+02  0.11145133439E+03  0.00000000000E+00 0.  1.
</event>
<event>
12    1  0.1681255E-001  0.1856513E+03  0.7818608E-02  0.1163334E+00
         21   -1    0    0  501  502  0.00000000000E+00  0.00000000000E+00  0.30783401915E+03  0.30783401915E+03  0.00000000000E+00 0.  1.
         21   -1    0    0  502  503 -0.00000000000E+00 -0.00000000000E+00 -0.11926244122E+03  0.11926244122E+03  0.00000000000E+00 0. -1.
         -6    2    1    2    0  503  0.48848221562E+02 -0.41189936068E+02  0.34682332231E+02  0.18886304819E+03  0.17430899925E+03 0.  0.
        -24    2    3    3    0    0  0.73564233171E+02 -0.31157325241E+02  0.78652081617E+02  0.13722039750E+03  0.79125294490E+02 0.  0.
          6    2    1    2  501    0 -0.48848221562E+02  0.41189936068E+02  0.15388924570E+03  0.23823341219E+03  0.17026596594E+03 0.  0.
         24    2    5    5    0    0 -0.92757741469E+02  0.34724264977E+02  0.78637420214E+02  0.15074182356E+03  0.82033409851E+02 0.  0.
          5    1    5    5  501    0  0.43909519907E+02  0.64656710908E+01  0.75251825486E+02  0.87491588625E+02  0.47000000000E+01 0. -1.
        -11    1    6    6    0    0 -0.21646283894E+02  0.41646050432E+01  0.69371315976E+02  0.72789319422E+02  0.00000000000E+00 0.  1.
         12    1    6    6    0    0 -0.71111457575E+02  0.30559659934E+02  0.92661042375E+01  0.77952504139E+02  0.00000000000E+00 0. -1.
         -5    1    3    3    0  503 -0.24716011609E+02 -0.10032610827E+02 -0.43969749386E+02  0.51642650696E+02  0.47000000000E+01 0.  1.
         11    1    4    4    0    0  0.69336800349E+02  0.33171578559E+01  0.75161869432E+02  0.10231276575E+03  0.00000000000E+00 0. -1.
        -12    1    4    4    0    0  0.42274328216E+01 -0.34474483096E+02  0.34902121853E+01  0.34907631746E+02  0.00000000000E+00 0.  1.
</event>
<event>
12    1  0.1681255E-001  0.2034700E+03  0.7818608E-02  0.1146853E+00
         21   -1    0    0  501  502  0.00000000000E+00  0.00000000000E+00  0.59548537826E+03  0.59548537826E+03  0.00000000000E+00 0. -1.
         21   -1    0    0  502  503 -0.00000000000E+00 -0.00000000000E+00 -0.11042798360E+03  0.11042798360E+03  0.00000000000E+00 0. -1.
         -6    2    1    2    0  503  0.12707641064E+02 -0.10803218464E+03  0.27656240784E+02  0.20529790218E+03  0.17190091310E+03 0.  0.
        -24    2    3    3    0    0 -0.31886053803E+02 -0.98084511212E+02  0.65120362443E+02  0.14602561320E+03  0.80284035397E+02 0.  0.
          6    2    1    2  501    0 -0.12707641064E+02  0.10803218464E+03  0.45740115387E+03  0.50061545968E+03  0.17195227784E+03 0.  0.
         24    2    5    5    0    0  0.27958280767E+02  0.87247661581E+02  0.43153083667E+03  0.44791748146E+03  0.77571820146E+02 0.  0.
          5    1    5    5  501    0 -0.40665921831E+02  0.20784523063E+02  0.25870317197E+02  0.52697978227E+02  0.47000000000E+01 0. -1.
        -11    1    6    6    0    0  0.34491714392E+02  0.20025651960E+01  0.12309371621E+03  0.12785050489E+03  0.00000000000E+00 0.  1.
         12    1    6    6    0    0 -0.65334336245E+01  0.85245096386E+02  0.30843712046E+03  0.32006697657E+03  0.00000000000E+00 0. -1.
         -5    1    3    3    0  503  0.44593694867E+02 -0.99476734329E+01 -0.37464121660E+02  0.59272288975E+02  0.47000000000E+01 0.  1.
         11    1    4    4    0    0  0.92383835653E+01 -0.27466011013E+01 -0.12933523037E+02  0.16129710681E+02  0.00000000000E+00 0. -1.
        -12    1    4    4    0    0 -0.41124437368E+02 -0.95337910110E+02  0.78053885481E+02  0.12989590252E+03  0.00000000000E+00 0.  1.
</event>
<event>
12    1  0.1681255E-001  0.2294387E+03  0.7818608E-02  0.1127258E+00
         21   -1    0    0  501  502  0.00000000000E+00  0.00000000000E+00  0.36074471894E+03  0.36074471894E+03  0.00000000000E+00 0. -1.
         21   -1    0    0  502  503 -0.00000000000E+00 -0.00000000000E+00 -0.18460127526E+03  0.18460127526E+03  0.00000000000E+00 0. -1.
         -6    2    1    2    0  503  0.14529008851E+03 -0.41991284094E+02 -0.37826780559E+02  0.23253602085E+03  0.17253885912E+03 0.  0.
        -24    2    3    3    0    0  0.52691766554E+02 -0.43854949746E+02 -0.78304808732E+02  0.13135063039E+03  0.80135299040E+02 0.  0.
          6    2    1    2  501    0 -0.14529008851E+03  0.41991284094E+02  0.21397022424E+03  0.31280997335E+03  0.17086352685E+03 0.  0.
         24    2    5    5    0    0 -0.91887108225E+02 -0.45155846232E+02  0.12902729767E+03  0.17982918000E+03  0.72167855219E+02 0.  0.
          5    1    5    5  501    0 -0.53402980286E+02  0.87147130327E+02  0.84942926564E+02  0.13298079335E+03  0.47000000000E+01 0. -1.
        -11    1    6    6    0    0 -0.44476259101E+02 -0.48209431725E+02  0.34680840391E+02  0.74196008121E+02  0.00000000000E+00 0.  1.
         12    1    6    6    0    0 -0.47410849124E+02  0.30535854930E+01  0.94346457281E+02  0.10563317188E+03  0.00000000000E+00 0. -1.
         -5    1    3    3    0  503  0.92598321957E+02  0.18636656517E+01  0.40478028173E+02  0.10118539047E+03  0.47000000000E+01 0.  1.
         11    1    4    4    0    0  0.60486902384E+02 -0.37161635627E+02 -0.22299230417E+02  0.74410403841E+02  0.00000000000E+00 0. -1.
        -12    1    4    4    0    0 -0.77951358308E+01 -0.66933141195E+01 -0.56005578315E+02  0.56940226545E+02  0.00000000000E+00 0.  1.
</event>
<event>
12    1  0.1681255E-001  0.2183058E+03  0.7818608E-02  0.1135281E+00
         21   -1    0    0  501  502  0.00000000000E+00  0.00000000000E+00  0.23836280361E+02  0.23836280361E+02  0.00000000000E+00 0.  1.
         21   -1    0    0  502  503 -0.00000000000E+00 -0.00000000000E+00 -0.24453005762E+04  0.24453005762E+04  0.00000000000E+00 0.  1.
         -6    2    1    2    0  503  0.10387355992E+03 -0.85373719985E+02 -0.17431638400E+04  0.17567804664E+04  0.17198559678E+03 0.  0.
        -24    2    3    3    0    0  0.56058522099E+02 -0.40294445199E+02 -0.43938373722E+03  0.45133683863E+03  0.76685547256E+02 0.  0.
          6    2    1    2  501    0 -0.10387355992E+03  0.85373719985E+02 -0.67830045584E+03  0.71235639017E+03  0.17111905128E+03 0.  0.
         24    2    5    5    0    0 -0.11474032392E+03  0.16081053233E+02 -0.52929617773E+03  0.54760225480E+03  0.79308533584E+02 0.  0.
          5    1    5    5  501    0  0.10866764005E+02  0.69292666751E+02 -0.14900427811E+03  0.16475413536E+03  0.47000000000E+01 0. -1.
        -11    1    6    6    0    0 -0.80456451061E+02  0.40233372823E+02 -0.26143954001E+03  0.27648254536E+03  0.00000000000E+00 0.  1.
         12    1    6    6    0    0 -0.34283872860E+02 -0.24152319590E+02 -0.26785663772E+03  0.27111970945E+03  0.00000000000E+00 0. -1.
         -5    1    3    3    0  503  0.47815037817E+02 -0.45079274785E+02 -0.13037801028E+04  0.13054436278E+04  0.47000000000E+01 0.  1.
         11    1    4    4    0    0  0.11156385913E+02 -0.30798629161E+02 -0.53488105324E+02  0.62721590509E+02  0.00000000000E+00 0. -1.
        -12    1    4    4    0    0  0.44902136186E+02 -0.94958160380E+01 -0.38589563189E+03  0.38861524812E+03  0.00000000000E+00 0.  1.
</event>
<event>
12    1  0.1681255E-001  0.2379719E+03  0.7818608E-02  0.1121226E+00
         21   -1    0    0  501  502  0.00000000000E+00  0.00000000000E+00  0.10311499121E+03  0.10311499121E+03  0.00000000000E+00 0. -1.
         21   -1    0    0  502  503 -0.00000000000E+00 -0.00000000000E+00 -0.67433066839E+03  0.67433066839E+03  0.00000000000E+00 0.  1.
         -6    2    1    2    0  503 -0.13198651592E+03 -0.97496891198E+02 -0.45395455925E+03  0.51254789378E+03  0.17234998513E+03 0.  0.
        -24    2    3    3    0    0 -0.41425837104E+02 -0.11478460088E+03 -0.26520063814E+03  0.30242832261E+03  0.78993083673E+02 0.  0.
          6    2    1    2  501    0  0.13198651592E+03  0.97496891198E+02 -0.11726111792E+03  0.26489776582E+03  0.17173983924E+03 0.  0.
         24    2    5    5    0    0  0.75507575813E+02  0.10272185547E+03 -0.19117093718E+02  0.15144508664E+03  0.79479414925E+02 0.  0.
          5    1    5    5  501    0  0.56478940105E+02 -0.52249642768E+01 -0.98144024203E+02  0.11345267918E+03  0.47000000000E+01 0. -1.
        -11    1    6    6    0    0  0.43067430230E+02  0.87004698445E+00 -0.14412961947E+01  0.43100323237E+02  0.00000000000E+00 0.  1.
         12    1    6    6    0    0  0.32440145583E+02  0.10185180849E+03 -0.17675797523E+02  0.10834476340E+03  0.00000000000E+00 0. -1.
         -5    1    3    3    0  503 -0.90560678814E+02  0.17287709684E+02 -0.18875392111E+03  0.21011957117E+03  0.47000000000E+01 0.  1.
         11    1    4    4    0    0  0.12492550397E+02 -0.77706176938E+02 -0.12508550131E+03  0.14778598170E+03  0.00000000000E+00 0. -1.
        -12    1    4    4    0    0 -0.53918387501E+02 -0.37078423944E+02 -0.14011513683E+03  0.15464234091E+03  0.00000000000E+00 0.  1.
</event>
<event>
12    1  0.1681255E-001  0.1739596E+03  0.7818608E-02  0.1175136E+00
         21   -1    0    0  503  502  0.00000000000E+00  0.00000000000E+00  0.96779857155E+03  0.96779857155E+03  0.00000000000E+00 0.  1.
         21   -1    0    0  501  503 -0.00000000000E+00 -0.00000000000E+00 -0.34986311653E+02  0.34986311653E+02  0.00000000000E+00 0.  1.
          6    2    1    2  501    0  0.15344602998E+02  0.20828473643E+02  0.28969987761E+03  0.33791707318E+03  0.17202513509E+03 0.  0.
         24    2    3    3    0    0 -0.19861428912E+02  0.73476289402E+02  0.21020171859E+03  0.23616588412E+03  0.76133572501E+02 0.  0.
         -6    2    1    2    0  502 -0.15344602998E+02 -0.20828473643E+02  0.64311238228E+03  0.66486781002E+03  0.16669249054E+03 0.  0.
        -24    2    5    5    0    0 -0.28133487169E+02  0.32553036891E+02  0.21511742132E+03  0.23334154450E+03  0.79508352536E+02 0.  0.
          5    1    3    3  501    0  0.35206031910E+02 -0.52647815759E+02  0.79498159026E+02  0.10175118906E+03  0.47000000000E+01 0. -1.
        -13    1    4    4    0    0  0.29138465795E+02  0.32957707023E+02  0.81495478744E+02  0.92610872454E+02  0.00000000000E+00 0.  1.
         14    1    4    4    0    0 -0.48999894706E+02  0.40518582379E+02  0.12870623985E+03  0.14355501167E+03  0.00000000000E+00 0. -1.
         -5    1    5    5    0  502  0.12788884170E+02 -0.53381510534E+02  0.42799496096E+03  0.43152626552E+03  0.47000000000E+01 0.  1.
         11    1    6    6    0    0 -0.47197085505E+02  0.16046958324E+02  0.69342586588E+02  0.85401780229E+02  0.00000000000E+00 0. -1.
        -12    1    6    6    0    0  0.19063598337E+02  0.16506078568E+02  0.14577483473E+03  0.14793976427E+03  0.00000000000E+00 0.  1.
</event>
<event>
12    1  0.1681255E-001  0.2220738E+03  0.7818608E-02  0.1132362E+00
         21   -1    0    0  503  502  0.00000000000E+00  0.00000000000E+00  0.12376802258E+04  0.12376802258E+04  0.00000000000E+00 0. -1.
         21   -1    0    0  501  503 -0.00000000000E+00 -0.00000000000E+00 -0.52635746583E+02  0.52635746583E+02  0.00000000000E+00 0. -1.
          6    2    1    2  501    0  0.10205415785E+03 -0.93944529368E+02  0.27439631169E+03  0.35300154498E+03  0.17342470746E+03 0.  0.
         24    2    3    3    0    0  0.13842213462E+03 -0.91208597814E+02  0.21201652482E+03  0.28058992391E+03  0.79372557837E+02 0.  0.
         -6    2    1    2    0  502 -0.10205415785E+03  0.93944529368E+02  0.91064816747E+03  0.93731442735E+03  0.17331366092E+03 0.  0.
        -24    2    5    5    0    0 -0.13426609313E+03  0.97080068381E+02  0.83333928683E+03  0.85337282024E+03  0.79617082956E+02 0.  0.
          5    1    3    3  501    0 -0.36367976766E+02 -0.27359315546E+01  0.62379786875E+02  0.72411621071E+02  0.47000000000E+01 0. -1.
        -11    1    4    4    0    0  0.47955648548E+02  0.45378703706E+01  0.33240080919E+02  0.58525545487E+02  0.00000000000E+00 0.  1.
         12    1    4    4    0    0  0.90466486071E+02 -0.95746468184E+02  0.17877644390E+03  0.22206437842E+03  0.00000000000E+00 0. -1.
         -5    1    5    5    0  502  0.32211935273E+02 -0.31355390131E+01  0.77308880641E+02  0.83941607114E+02  0.47000000000E+01 0.  1.
         11    1    6    6    0    0 -0.11102536183E+02  0.20583986044E+02  0.35801129212E+02  0.42763157554E+02  0.00000000000E+00 0. -1.
        -12    1    6    6    0    0 -0.12316355694E+03  0.76496082337E+02  0.79753815762E+03  0.81060966268E+03  0.00000000000E+00 0.  1.
</event>
<event>
12    1  0.1681255E-001  0.1971371E+03  0.7818608E-02  0.1152550E+00
         21   -1    0    0  503  502  0.00000000000E+00  0.00000000000E+00  0.10261329216E+03  0.10261329216E+03  0.00000000000E+00 0. -1.
         21   -1    0    0  501  503 -0.00000000000E+00 -0.00000000000E+00 -0.48673466305E+03  0.48673466305E+03  0.00000000000E+00 0.  1.
          6    2    1    2  501    0 -0.88240169187E+02  0.35607943339E+02 -0.33362955459E+03  0.38751995235E+03  0.17265219571E+03 0.  0.
         24    2    3    3    0    0 -0.78619296139E+02  0.26341354412E+02 -0.11000251451E+03  0.16344502308E+03  0.87970800240E+02 0.  0.
         -6    2    1    2    0  502  0.88240169187E+02 -0.35607943339E+02 -0.50491816301E+02  0.20182800286E+03  0.17067766737E+03 0.  0.
        -24    2    5    5    0    0  0.27757089316E+02 -0.28430123914E+02 -0.92513049735E+02  0.12768221335E+03  0.78519776376E+02 0.  0.
          5    1    3    3  501    0 -0.96208730476E+01  0.92665889267E+01 -0.22362704008E+03  0.22407492926E+03  0.47000000000E+01 0. -1.
        -11    1    4    4    0    0 -0.61865910109E+02  0.58055760092E+02 -0.81319781426E+02  0.11751922806E+03  0.00000000000E+00 0.  1.
         12    1    4    4    0    0 -0.16753386030E+02 -0.31714405680E+02 -0.28682733083E+02  0.45925795019E+02  0.00000000000E+00 0. -1.
         -5    1    5    5    0  502  0.60483079870E+02 -0.71778194250E+01  0.42021233434E+02  0.74145789507E+02  0.47000000000E+01 0.  1.
         13    1    6    6    0    0  0.44656932652E+02  0.28765965526E+00 -0.22196220913E+02  0.49869796519E+02  0.00000000000E+00 0. -1.
        -14    1    6    6    0    0 -0.16899843336E+02 -0.28717783569E+02 -0.70316828822E+02  0.77812416834E+02  0.00000000000E+00 0.  1.
</event>
<event>
12    1  0.1681255E-001  0.2084139E+03  0.7818608E-02  0.1143967E+00
         21   -1    0    0  503  502  0.00000000000E+00  0.00000000000E+00  0.26223348068E+03  0.26223348068E+03  0.00000000000E+00 0.  1.
         21   -1    0    0  501  503 -0.00000000000E+00 -0.00000000000E+00 -0.18898991535E+03  0.18898991535E+03  0.00000000000E+00 0. -1.
          6    2    1    2  501    0 -0.10701574322E+03 -0.11782882073E+02 -0.50297034045E+02  0.20894534881E+03  0.17186378777E+03 0.  0.
         24    2    3    3    0    0 -0.53065135813E+02 -0.14785500413E+02 -0.97322183380E+02  0.13715998521E+03  0.79414951394E+02 0.  0.
         -6    2    1    2    0  502  0.10701574322E+03  0.11782882073E+02  0.12354059937E+03  0.24227804722E+03  0.17845214167E+03 0.  0.
        -24    2    5    5    0    0  0.64856278441E+02  0.78451020384E+02  0.64765019495E+02  0.14379596801E+03  0.78242400361E+02 0.  0.
          5    1    3    3  501    0 -0.53950607404E+02  0.30026183399E+01  0.47025149335E+02  0.71785363592E+02  0.47000000000E+01 0. -1.
        -11    1    4    4    0    0 -0.59800828242E+02 -0.31447788065E+02 -0.43355872409E+02  0.80279724121E+02  0.00000000000E+00 0.  1.
         12    1    4    4    0    0  0.67356924283E+01  0.16662287652E+02 -0.53966310971E+02  0.56880261094E+02  0.00000000000E+00 0. -1.
         -5    1    5    5    0  502  0.42159464776E+02 -0.66668138311E+02  0.58775579873E+02  0.98482079210E+02  0.47000000000E+01 0.  1.
         11    1    6    6    0    0 -0.16181334615E+02  0.16569786211E+02  0.29676735905E+00  0.23162069767E+02  0.00000000000E+00 0. -1.
        -12    1    6    6    0    0  0.81037613057E+02  0.61881234173E+02  0.64468252136E+02  0.12063389825E+03  0.00000000000E+00 0.  1.
</event>
<event>
12    1  0.1681255E-001  0.2649080E+03  0.7818608E-02  0.1104425E+00
         21   -1    0    0  501  502  0.00000000000E+00  0.00000000000E+00  0.15591158037E+03  0.15591158037E+03  0.00000000000E+00 0. -1.
         21   -1    0    0  502  503 -0.00000000000E+00 -0.00000000000E+00 -0.23201918831E+04  0.23201918831E+04  0.00000000000E+00 0. -1.
         -6    2    1    2    0  503 -0.31764352351E+02  0.18962041726E+03 -0.21948277078E+04  0.22107566348E+04  0.18223982761E+03 0.  0.
        -24    2    3    3    0    0  0.38033114693E+02  0.16022992361E+03 -0.17393144819E+04  0.17489667730E+04  0.80930586568E+02 0.  0.
          6    2    1    2  501    0  0.31764352351E+02 -0.18962041726E+03  0.30547405050E+02  0.26534682867E+03  0.18030784455E+03 0.  0.
         24    2    5    5    0    0  0.44844573312E+02 -0.15558879517E+03 -0.40707889556E+02  0.18516796305E+03  0.80069553082E+02 0.  0.
          5    1    5    5  501    0 -0.13080220962E+02 -0.34031622095E+02  0.71255294605E+02  0.80178865620E+02  0.47000000000E+01 0. -1.
        -11    1    6    6    0    0  0.34197387488E+02 -0.36184630372E+02 -0.42222632026E+02  0.65280467533E+02  0.00000000000E+00 0.  1.
         12    1    6    6    0    0  0.10647185825E+02 -0.11940416480E+03  0.15147424706E+01  0.11988749552E+03  0.00000000000E+00 0. -1.
         -5    1    3    3    0  503 -0.69797467043E+02  0.29390493652E+02 -0.45551322590E+03  0.46178986183E+03  0.47000000000E+01 0.  1.
         13    1    4    4    0    0 -0.86004578863E+01  0.26199983780E+02 -0.63123562649E+03  0.63183765571E+03  0.00000000000E+00 0. -1.
        -14    1    4    4    0    0  0.46633572579E+02  0.13402993983E+03 -0.11080788554E+04  0.11171291173E+04  0.00000000000E+00 0.  1.
</event>
<event>
12    1  0.1681255E-001  0.1779954E+03  0.7818608E-02  0.1169952E+00
         21   -1    0    0  501  502  0.00000000000E+00  0.00000000000E+00  0.12270973619E+03  0.12270973619E+03  0.00000000000E+00 0.  1.
         21   -1    0    0  502  503 -0.00000000000E+00 -0.00000000000E+00 -0.26778584659E+03  0.26778584659E+03  0.00000000000E+00 0.  1.
         -6    2    1    2    0  503  0.43708378359E+02 -0.78330837437E+01 -0.11149376359E+03  0.20935992985E+03  0.17154865597E+03 0.  0.
        -24    2    3    3    0    0 -0.97045862635E+01  0.20532616939E+02  0.17530991726E+00  0.82278736337E+02  0.79082187417E+02 0.  0.
          6    2    1    2  501    0 -0.43708378359E+02  0.78330837437E+01 -0.33582346806E+02  0.18113565294E+03  0.17236754686E+03 0.  0.
         24    2    5    5    0    0 -0.31097778485E+02  0.72320150558E+02 -0.15436246688E+02  0.11280571832E+03  0.79306849460E+02 0.  0.
          5    1    5    5  501    0 -0.12610599874E+02 -0.64487066814E+02 -0.18146100118E+02  0.68329934619E+02  0.47000000000E+01 0. -1.
        -13    1    6    6    0    0 -0.35651150569E+02  0.26171525091E+02  0.25412437250E+02  0.51007305647E+02  0.00000000000E+00 0.  1.
         14    1    6    6    0    0  0.45533720836E+01  0.46148625467E+02 -0.40848683938E+02  0.61798412676E+02  0.00000000000E+00 0. -1.
         -5    1    3    3    0  503  0.53412964623E+02 -0.28365700683E+02 -0.11166907351E+03  0.12708119351E+03  0.47000000000E+01 0.  1.
         13    1    4    4    0    0 -0.20706382032E+02  0.20843129052E+00 -0.34718882777E+02  0.40425221357E+02  0.00000000000E+00 0. -1.
        -14    1    4    4    0    0  0.11001795769E+02  0.20324185649E+02  0.34894192694E+02  0.41853514980E+02  0.00000000000E+00 0.  1.
</event>
<event>
12    1  0.1681255E-001  0.2336197E+03  0.7818608E-02  0.1124143E+00
         21   -1    0    0  503  502  0.00000000000E+00  0.00000000000E+00  0.10739618149E+03  0.10739618149E+03  0.00000000000E+00 0. -1.
         21   -1    0    0  501  503 -0.00000000000E+00 -0.00000000000E+00 -0.50843354661E+03  0.50843354661E+03  0.00000000000E+00 0. -1.
          6    2    1    2  501    0 -0.15720770415E+03  0.16540034577E+02 -0.19040316168E+03  0.30138269392E+03  0.17201839793E+03 0.  0.
         24    2    3    3    0    0 -0.79492020500E+02 -0.55501660608E+02 -0.87678408734E+02  0.15372024711E+03  0.80888783891E+02 0.  0.
         -6    2    1    2    0  502  0.15720770415E+03 -0.16540034577E+02 -0.21063420344E+03  0.31444703418E+03  0.17182064678E+03 0.  0.
        -24    2    5    5    0    0  0.10862065259E+03  0.44886305073E+02 -0.18118038410E+03  0.23064062479E+03  0.80966287220E+02 0.  0.
          5    1    3    3  501    0 -0.77715683654E+02  0.72041695185E+02 -0.10272475295E+03  0.14766244681E+03  0.47000000000E+01 0. -1.
        -11    1    4    4    0    0 -0.90724485201E+02 -0.62110786882E+02 -0.65454608389E+02  0.12795697645E+03  0.00000000000E+00 0.  1.
         12    1    4    4    0    0  0.11232464701E+02  0.66091262746E+01 -0.22223800345E+02  0.25763270661E+02  0.00000000000E+00 0. -1.
         -5    1    5    5    0  502  0.48587051564E+02 -0.61426339650E+02 -0.29453819333E+02  0.83806409396E+02  0.47000000000E+01 0.  1.
         11    1    6    6    0    0  0.61662787149E+02 -0.80025362338E+01 -0.12748449517E+03  0.14184017913E+03  0.00000000000E+00 0. -1.
        -12    1    6    6    0    0  0.46957865440E+02  0.52888841307E+02 -0.53695888932E+02  0.88800445662E+02  0.00000000000E+00 0.  1.
</event>
<event>
12    1  0.1681255E-001  0.1858072E+03  0.7818608E-02  0.1162453E+00
         21   -1    0    0  501  502  0.00000000000E+00  0.00000000000E+00  0.29019678276E+03  0.29019678276E+03  0.00000000000E+00 0. -1.
         21   -1    0    0  502  503 -0.00000000000E+00 -0.00000000000E+00 -0.12122300916E+03  0.12122300916E+03  0.00000000000E+00 0. -1.
         -6    2    1    2    0  503 -0.64601310444E+02  0.33915501164E+02  0.11521837825E+03  0.21863114882E+03  0.17088216413E+03 0.  0.
        -24    2    3    3    0    0 -0.10781517262E+03  0.34037914947E+02  0.66058084722E+02  0.15300891685E+03  0.79154071142E+02 0.  0.
          6    2    1    2  501    0  0.64601310444E+02 -0.33915501164E+02  0.53755395354E+02  0.19278864311E+03  0.17015941893E+03 0.  0.
         24    2    5    5    0    0  0.99952176909E+02 -0.36159343364E+02  0.73760154637E+02  0.15183746508E+03  0.79474018454E+02 0.  0.
          5    1    5    5  501    0 -0.35350866465E+02  0.22438421998E+01 -0.20004759283E+02  0.40951178025E+02  0.47000000000E+01 0. -1.
        -11    1    6    6    0    0  0.34605122161E+02  0.25335554550E+02  0.21150058602E+02  0.47819763519E+02  0.00000000000E+00 0.  1.
         12    1    6    6    0    0  0.65347054748E+02 -0.61494897914E+02  0.52610096035E+02  0.10401770156E+03  0.00000000000E+00 0. -1.
         -5    1    3    3    0  503  0.43213862172E+02 -0.12241378328E+00  0.49160293523E+02  0.65622231966E+02  0.47000000000E+01 0.  1.
         13    1    4    4    0    0 -0.89643627238E+02  0.10604624850E+01  0.71881195553E+02  0.11490870619E+03  0.00000000000E+00 0. -1.
        -14    1    4    4    0    0 -0.18171545378E+02  0.32977452462E+02 -0.58231108307E+01  0.38100210656E+02  0.00000000000E+00 0.  1.
</event>
<event>
12    1  0.1681255E-001  0.2758673E+03  0.7818608E-02  0.1098035E+00
         21   -1    0    0  501  502  0.00000000000E+00  0.00000000000E+00  0.15409349590E+03  0.15409349590E+03  0.00000000000E+00 0. -1.
         21   -1    0    0  502  503 -0.00000000000E+00 -0.00000000000E+00 -0.66864748967E+03  0.66864748967E+03  0.00000000000E+00 0.  1.
         -6    2    1    2    0  503 -0.17968074064E+03  0.11834739177E+03 -0.46794540408E+03  0.54296408677E+03  0.17188898925E+03 0.  0.
        -24    2    3    3    0    0 -0.22992849882E+02  0.17892668759E+02 -0.22637581594E+03  0.23797195179E+03  0.67348504481E+02 0.  0.
          6    2    1    2  501    0  0.17968074064E+03 -0.11834739177E+03 -0.46608589690E+02  0.27977689879E+03  0.17266000918E+03 0.  0.
         24    2    5    5    0    0  0.31597919790E+02 -0.62351560871E+02 -0.64140210640E+02  0.12042350962E+03  0.74173508546E+02 0.  0.
          5    1    5    5  501    0  0.14808282085E+03 -0.55995830899E+02  0.17531620950E+02  0.15935338917E+03  0.47000000000E+01 0. -1.
        -11    1    6    6    0    0  0.24993834152E+02 -0.74822966518E+02 -0.31647229544E+02  0.84998324701E+02  0.00000000000E+00 0.  1.
         12    1    6    6    0    0  0.66040856380E+01  0.12471405648E+02 -0.32492981096E+02  0.35425184918E+02  0.00000000000E+00 0. -1.
         -5    1    3    3    0  503 -0.15668789075E+03  0.10045472301E+03 -0.24156958814E+03  0.30499213498E+03  0.47000000000E+01 0.  1.
         11    1    4    4    0    0 -0.37445754158E+02 -0.93646206401E+01 -0.86299457580E+02  0.94538230377E+02  0.00000000000E+00 0. -1.
        -12    1    4    4    0    0  0.14452904276E+02  0.27257289399E+02 -0.14007635836E+03  0.14343372141E+03  0.00000000000E+00 0.  1.
</event>
<event>
12    1  0.1681255E-001  0.1758650E+03  0.7818608E-02  0.1172390E+00
         21   -1    0    0  503  502  0.00000000000E+00  0.00000000000E+00  0.44260579007E+02  0.44260579007E+02  0.00000000000E+00 0. -1.
         21   -1    0    0  501  503 -0.00000000000E+00 -0.00000000000E+00 -0.79253986916E+03  0.79253986916E+03  0.00000000000E+00 0. -1.
          6    2    1    2  501    0  0.28101494609E+01 -0.21469298717E+02 -0.22596509128E+03  0.28633673677E+03  0.17452700828E+03 0.  0.
         24    2    3    3    0    0 -0.66631374491E+02 -0.15444385694E+01 -0.12931284663E+03  0.16557717526E+03  0.79068725208E+02 0.  0.
         -6    2    1    2    0  502 -0.28101494609E+01  0.21469298717E+02 -0.52231419888E+03  0.55046371141E+03  0.17242200409E+03 0.  0.
        -24    2    5    5    0    0 -0.37989321679E+02  0.55007843700E+02 -0.45993700836E+03  0.47124621299E+03  0.77858141326E+02 0.  0.
          5    1    3    3  501    0  0.69441523952E+02 -0.19924860147E+02 -0.96652244646E+02  0.12075956151E+03  0.47000000000E+01 0. -1.
        -11    1    4    4    0    0 -0.46399656076E+01  0.24777558314E+02 -0.74794464853E+02  0.78928250009E+02  0.00000000000E+00 0.  1.
         12    1    4    4    0    0 -0.61991408883E+02 -0.26321996883E+02 -0.54518381776E+02  0.86648925248E+02  0.00000000000E+00 0. -1.
         -5    1    5    5    0  502  0.35179172218E+02 -0.33538544983E+02 -0.62377190526E+02  0.79217498416E+02  0.47000000000E+01 0.  1.
         13    1    6    6    0    0 -0.89602766545E+01 -0.66715619444E+01 -0.25548316770E+03  0.25572728692E+03  0.00000000000E+00 0. -1.
        -14    1    6    6    0    0 -0.29029045024E+02  0.61679405644E+02 -0.20445384065E+03  0.21551892607E+03  0.00000000000E+00 0.  1.
</event>
<event>
12    1  0.1681255E-001  0.1842620E+03  0.7818608E-02  0.1163816E+00
         21   -1    0    0  503  502  0.00000000000E+00  0.00000000000E+00  0.14303525712E+03  0.14303525712E+03  0.00000000000E+00 0. -1.
         21   -1    0    0  501  503 -0.00000000000E+00 -0.00000000000E+00 -0.24189384792E+03  0.24189384792E+03  0.00000000000E+00 0. -1.
          6    2    1    2  501    0 -0.25340555952E+02  0.58788115927E+02 -0.76873677746E+02  0.19936015165E+03  0.17244338603E+03 0.  0.
         24    2    3    3    0    0 -0.42550416500E+02 -0.23886729349E+02 -0.59094203574E+02  0.11293383018E+03  0.82950655929E+02 0.  0.
         -6    2    1    2    0  502  0.25340555952E+02 -0.58788115927E+02 -0.21984913057E+02  0.18556895338E+03  0.17278400883E+03 0.  0.
        -24    2    5    5    0    0  0.49835196682E+02 -0.18847797650E+02  0.42763789920E+02  0.10550834518E+03  0.80402007873E+02 0.  0.
          5    1    3    3  501    0  0.17209860548E+02  0.82674845276E+02 -0.17779474172E+02  0.86426321473E+02  0.47000000000E+01 0. -1.
        -11    1    4    4    0    0  0.13971859072E+02  0.16442297216E+01  0.12069689351E+02  0.18536281675E+02  0.00000000000E+00 0.  1.
         12    1    4    4    0    0 -0.56522275572E+02 -0.25530959071E+02 -0.71163892925E+02  0.94397548502E+02  0.00000000000E+00 0. -1.
         -5    1    5    5    0  502 -0.24494640731E+02 -0.39940318277E+02 -0.64748702977E+02  0.80060608203E+02  0.47000000000E+01 0.  1.
         13    1    6    6    0    0  0.56582535966E+02 -0.40559053914E+02  0.18033736782E+02  0.71915477423E+02  0.00000000000E+00 0. -1.
        -14    1    6    6    0    0 -0.67473392840E+01  0.21711256264E+02  0.24730053138E+02  0.33592867758E+02  0.00000000000E+00 0.  1.
</event>
<event>
12    1  0.1681255E-001  0.2524372E+03  0.7818608E-02  0.1111818E+00
         21   -1    0    0  503  502  0.00000000000E+00  0.00000000000E+00  0.76235100244E+02  0.76235100244E+02  0.00000000000E+00 0.  1.
         21   -1    0    0  501  503 -0.00000000000E+00 -0.00000000000E+00 -0.12313968865E+04  0.12313968865E+04  0.00000000000E+00 0.  1.
          6    2    1    2  501    0 -0.19086012483E+02 -0.18332514358E+03 -0.20639576501E+03  0.32585732362E+03  0.17207963098E+03 0.  0.
         24    2    3    3    0    0 -0.19356636530E+02 -0.14552545224E+03 -0.22768974531E+03  0.28221773723E+03  0.79068922204E+02 0.  0.
         -6    2    1    2    0  502  0.19086012483E+02  0.18332514358E+03 -0.94876602121E+03  0.98177466309E+03  0.17248809219E+03 0.  0.
        -24    2    5    5    0    0 -0.30224233773E+02  0.53464239249E+02 -0.55920098458E+03  0.56815846101E+03  0.79538459112E+02 0.  0.
          5    1    3    3  501    0  0.27062404731E+00 -0.37799691342E+02  0.21293980304E+02  0.43639586388E+02  0.47000000000E+01 0. -1.
        -13    1    4    4    0    0 -0.14971025026E+02 -0.29025758786E+02 -0.81768622363E+01  0.33667303715E+02  0.00000000000E+00 0.  1.
         14    1    4    4    0    0 -0.43856115046E+01 -0.11649969345E+03 -0.21951288308E+03  0.24855043351E+03  0.00000000000E+00 0. -1.
         -5    1    5    5    0  502  0.49310246256E+02  0.12986090433E+03 -0.38956503663E+03  0.41361620208E+03  0.47000000000E+01 0.  1.
         11    1    6    6    0    0 -0.51886248263E+02  0.58538121895E+02 -0.43985454259E+03  0.44675598834E+03  0.00000000000E+00 0. -1.
        -12    1    6    6    0    0  0.21662014490E+02 -0.50738826455E+01 -0.11934644199E+03  0.12140247267E+03  0.00000000000E+00 0.  1.
</event>
<event>
12    1  0.1681255E-001  0.2335332E+03  0.7818608E-02  0.1124244E+00
         21   -1    0    0  503  502  0.00000000000E+00  0.00000000000E+00  0.18895419067E+04  0.18895419067E+04  0.00000000000E+00 0.  1.
         21   -1    0    0  501  503 -0.00000000000E+00 -0.00000000000E+00 -0.28822614693E+02  0.28822614693E+02  0.00000000000E+00 0. -1.
          6    2    1    2  501    0  0.13406410946E+03 -0.82539713285E+02  0.91558243146E+03  0.94489627212E+03  0.17248706200E+03 0.  0.
         24    2    3    3    0    0  0.26921872477E+02  0.18093492131E+02  0.36346980032E+03  0.37353216016E+03  0.79773537286E+02 0.  0.
         -6    2    1    2    0  502 -0.13406410946E+03  0.82539713285E+02  0.94513686052E+03  0.97346824924E+03  0.17196149992E+03 0.  0.
        -24    2    5    5    0    0 -0.10814189428E+03  0.10518956568E+03  0.53235489904E+03  0.55922675594E+03  0.81075964369E+02 0.  0.
          5    1    3    3  501    0  0.10714223699E+03 -0.10063320542E+03  0.55211263113E+03  0.57136411196E+03  0.47000000000E+01 0. -1.
        -13    1    4    4    0    0 -0.66053217557E+01 -0.17533012636E+02  0.23990168016E+03  0.24063219434E+03  0.00000000000E+00 0.  1.
         14    1    4    4    0    0  0.33527194233E+02  0.35626504767E+02  0.12356812016E+03  0.13289996582E+03  0.00000000000E+00 0. -1.
         -5    1    5    5    0  502 -0.25922215187E+02 -0.22649852392E+02  0.41278196148E+03  0.41424149331E+03  0.47000000000E+01 0.  1.
         13    1    6    6    0    0 -0.59663967588E+02  0.60339404405E+02  0.16048656226E+03  0.18153944315E+03  0.00000000000E+00 0. -1.
        -14    1    6    6    0    0 -0.48477926689E+02  0.44850161272E+02  0.37186833678E+03  0.37768731279E+03  0.00000000000E+00 0.  1.
</event>
<event>
12    1  0.1681255E-001  0.3760641E+03  0.7818608E-02  0.1052437E+00
         21   -1    0    0  503  502  0.00000000000E+00  0.00000000000E+00  0.46456482682E+03  0.46456482682E+03  0.00000000000E+00 0. -1.
         21   -1    0    0  501  503 -0.00000000000E+00 -0.00000000000E+00 -0.10326838123E+04  0.10326838123E+04  0.00000000000E+00 0.  1.
          6    2    1    2  501    0  0.18141383684E+02  0.33387505347E+03 -0.91292407249E+03  0.98734722655E+03  0.17211194765E+03 0.  0.
         24    2    3    3    0    0 -0.41087191707E+02  0.18808845838E+03 -0.40851002274E+03  0.45893698911E+03  0.81714722036E+02 0.  0.
         -6    2    1    2    0  502 -0.18141383684E+02 -0.33387505347E+03  0.34480508696E+03  0.50990141261E+03  0.17119357890E+03 0.  0.
        -24    2    5    5    0    0  0.16221989598E+02 -0.65687833085E+02  0.81467150443E+02  0.13244388465E+03  0.79538931468E+02 0.  0.
          5    1    3    3  501    0  0.59228575391E+02  0.14578659509E+03 -0.50441404974E+03  0.52841023744E+03  0.47000000000E+01 0. -1.
        -13    1    4    4    0    0 -0.59016258781E+02  0.12996875899E+03 -0.33058682651E+03  0.36008672146E+03  0.00000000000E+00 0.  1.
         14    1    4    4    0    0  0.17929067074E+02  0.58119699384E+02 -0.77923196237E+02  0.98850267650E+02  0.00000000000E+00 0. -1.
         -5    1    5    5    0  502 -0.34363373282E+02 -0.26818722039E+03  0.26333793652E+03  0.37745752796E+03  0.47000000000E+01 0.  1.
         13    1    6    6    0    0  0.25685487018E+02 -0.76247108489E+02  0.85795036159E+02  0.11761868060E+03  0.00000000000E+00 0. -1.
        -14    1    6    6    0    0 -0.94634974203E+01  0.10559275404E+02 -0.43278857166E+01  0.14825204055E+02  0.00000000000E+00 0.  1.
</event>
<event>
12    1  0.1681255E-001  0.2392548E+03  0.7818608E-02  0.1120342E+00
         21   -1    0    0  503  502  0.00000000000E+00  0.00000000000E+00  0.11244899296E+04  0.11244899296E+04  0.00000000000E+00 0.  1.
         21   -1    0    0  501  503 -0.00000000000E+00 -0.00000000000E+00 -0.11234169646E+03  0.11234169646E+03  0.00000000000E+00 0.  1.
          6    2    1    2  501    0 -0.16243150172E+03  0.29354913164E+02  0.48357182540E+02  0.24378778735E+03  0.17276679218E+03 0.  0.
         24    2    3    3    0    0 -0.52481051340E+02  0.16556079049E+02 -0.38011762944E+02  0.10330790823E+03  0.78735413111E+02 0.  0.
         -6    2    1    2    0  502  0.16243150172E+03 -0.29354913164E+02  0.96379105060E+03  0.99304383872E+03  0.17319691889E+03 0.  0.
        -24    2    5    5    0    0  0.38057302283E+02  0.27731879325E+02  0.52819966939E+03  0.53643702235E+03  0.80946728287E+02 0.  0.
          5    1    3    3  501    0 -0.10995045038E+03  0.12798834115E+02  0.86368945484E+02  0.14047987912E+03  0.47000000000E+01 0. -1.
        -11    1    4    4    0    0 -0.71432890305E+02  0.16291110750E+02 -0.17396996616E+02  0.75304140644E+02  0.00000000000E+00 0.  1.
         12    1    4    4    0    0  0.18951838965E+02  0.26496829852E+00 -0.20614766328E+02  0.28003767588E+02  0.00000000000E+00 0. -1.
         -5    1    5    5    0  502  0.12437419944E+03 -0.57086792489E+02  0.43559138122E+03  0.45660681637E+03  0.47000000000E+01 0.  1.
         11    1    6    6    0    0  0.28523624193E+02  0.56221154552E+02  0.32914902813E+03  0.33513206065E+03  0.00000000000E+00 0. -1.
        -12    1    6    6    0    0  0.95336780904E+01 -0.28489275226E+02  0.19905064126E+03  0.20130496171E+03  0.00000000000E+00 0.  1.
</event>
<event>
12    1  0.1681255E-001  0.2124357E+03  0.7818608E-02  0.1140021E+00
         21   -1    0    0  503  502  0.00000000000E+00  0.00000000000E+00  0.32437785246E+03  0.32437785246E+03  0.00000000000E+00 0.  1.
         21   -1    0    0  501  503 -0.00000000000E+00 -0.00000000000E+00 -0.20171720336E+03  0.20171720336E+03  0.00000000000E+00 0. -1.
          6    2    1    2  501    0 -0.80119875133E+02 -0.95741374105E+02 -0.86446048360E+02  0.22935090208E+03  0.17188167995E+03 0.  0.
         24    2    3    3    0    0 -0.10064233956E+03 -0.12106844273E+03 -0.83272256917E+02  0.19626321701E+03  0.82453218499E+02 0.  0.
         -6    2    1    2    0  502  0.80119875133E+02  0.95741374105E+02  0.20910669746E+03  0.29674415373E+03  0.16954609032E+03 0.  0.
        -24    2    5    5    0    0 -0.91135008248E+01  0.47236715874E+01  0.70172270781E+02  0.10813958731E+03  0.81637330844E+02 0.  0.
          5    1    3    3  501    0  0.20522464431E+02  0.25327068623E+02 -0.31737914437E+01  0.33087685073E+02  0.47000000000E+01 0. -1.
        -13    1    4    4    0    0 -0.51123556609E+02 -0.42563709690E+02  0.68707643457E+01  0.66876713628E+02  0.00000000000E+00 0.  1.
         14    1    4    4    0    0 -0.49518782954E+02 -0.78504733038E+02 -0.90143021262E+02  0.12938650338E+03  0.00000000000E+00 0. -1.
         -5    1    5    5    0  502  0.89233375958E+02  0.91017702517E+02  0.13893442668E+03  0.18860456642E+03  0.47000000000E+01 0.  1.
         13    1    6    6    0    0 -0.19469573452E+01 -0.19363530008E+02 -0.11556868130E+02  0.22634004026E+02  0.00000000000E+00 0. -1.
        -14    1    6    6    0    0 -0.71665434797E+01  0.24087201596E+02  0.81729138911E+02  0.85505583287E+02  0.00000000000E+00 0.  1.
</event>
<event>
12    1  0.1681255E-001  0.2046205E+03  0.7818608E-02  0.1147195E+00
         21   -1    0    0  501  502  0.00000000000E+00  0.00000000000E+00  0.18604879133E+03  0.18604879133E+03  0.00000000000E+00 0.  1.
         21   -1    0    0  502  503 -0.00000000000E+00 -0.00000000000E+00 -0.27563534128E+03  0.27563534128E+03  0.00000000000E+00 0. -1.
         -6    2    1    2    0  503  0.52413434709E+02 -0.95418963344E+02 -0.15066299936E+03  0.25410412001E+03  0.17325593128E+03 0.  0.
        -24    2    3    3    0    0  0.45978639823E+02 -0.10869115841E+03 -0.17455627510E+03  0.22563419952E+03  0.80703751955E+02 0.  0.
          6    2    1    2  501    0 -0.52413434709E+02  0.95418963344E+02  0.61076449411E+02  0.20758001261E+03  0.16585289342E+03 0.  0.
         24    2    5    5    0    0  0.73215103941E+01  0.36676526341E+02  0.82350632293E+02  0.12101432409E+03  0.80399427212E+02 0.  0.
          5    1    5    5  501    0 -0.59734945104E+02  0.58742437004E+02 -0.21274182882E+02  0.86565688520E+02  0.47000000000E+01 0. -1.
        -13    1    6    6    0    0 -0.80880470111E+01 -0.55642891885E+01  0.74775163147E+02  0.75416860464E+02  0.00000000000E+00 0.  1.
         14    1    6    6    0    0  0.15409557405E+02  0.42240815529E+02  0.75754691465E+01  0.45597463622E+02  0.00000000000E+00 0. -1.
         -5    1    3    3    0  503  0.64347948866E+01  0.13272195063E+02  0.23893275740E+02  0.28469920488E+02  0.47000000000E+01 0.  1.
         13    1    4    4    0    0 -0.15251893128E+01 -0.28889537984E+02 -0.10686709579E+03  0.11071362956E+03  0.00000000000E+00 0. -1.
        -14    1    4    4    0    0  0.47503829136E+02 -0.79801620423E+02 -0.67689179316E+02  0.11492056997E+03  0.00000000000E+00 0.  1.
</event>
<event>
12    1  0.1681255E-001  0.1856477E+03  0.7818608E-02  0.1162928E+00
         21   -1    0    0  501  502  0.00000000000E+00  0.00000000000E+00  0.17393410159E+03  0.17393410159E+03  0.00000000000E+00 0.  1.
         21   -1    0    0  502  503 -0.00000000000E+00 -0.00000000000E+00 -0.66062304318E+03  0.66062304318E+03  0.00000000000E+00 0.  1.
         -6    2    1    2    0  503 -0.43629441156E+02  0.48646395605E+02 -0.59370693662E+03  0.62205544590E+03  0.17376723293E+03 0.  0.
        -24    2    3    3    0    0  0.31043317070E+02 -0.29319715315E+01 -0.38489524318E+03  0.39432586483E+03  0.79851458703E+02 0.  0.
          6    2    1    2  501    0  0.43629441156E+02 -0.48646395605E+02  0.10701799503E+03  0.21250169886E+03  0.17156375147E+03 0.  0.
         24    2    5    5    0    0  0.52120299814E+02  0.10435254801E+02  0.45741018485E+01  0.93844304041E+02  0.77203696789E+02 0.  0.
          5    1    5    5  501    0 -0.84908586580E+01 -0.59081650406E+02  0.10244389318E+03  0.11865739482E+03  0.47000000000E+01 0. -1.
        -13    1    6    6    0    0 -0.13915481162E+02 -0.16968286521E+02 -0.20607694829E+01  0.22041101023E+02  0.00000000000E+00 0.  1.
         14    1    6    6    0    0  0.66035780976E+02  0.27403541322E+02  0.66348713315E+01  0.71803203018E+02  0.00000000000E+00 0. -1.
         -5    1    3    3    0  503 -0.74672758225E+02  0.51578367136E+02 -0.20881169344E+03  0.22772958107E+03  0.47000000000E+01 0.  1.
         13    1    4    4    0    0  0.66489203813E+01 -0.33232626363E+02 -0.78941890035E+02  0.85909473282E+02  0.00000000000E+00 0. -1.
        -14    1    4    4    0    0  0.24394396688E+02  0.30300654832E+02 -0.30595335315E+03  0.30841639155E+03  0.00000000000E+00 0.  1.
</event>
<event>
12    1  0.1681255E-001  0.1939880E+03  0.7818608E-02  0.1155019E+00
         21   -1    0    0  501  502  0.00000000000E+00  0.00000000000E+00  0.13185552770E+04  0.13185552770E+04  0.00000000000E+00 0. -1.
         21   -1    0    0  502  503 -0.00000000000E+00 -0.00000000000E+00 -0.33896668137E+02  0.33896668137E+02  0.00000000000E+00 0. -1.
         -6    2    1    2    0  503 -0.11733991187E+02  0.91325901124E+02  0.37239841750E+03  0.41989512056E+03  0.17074315255E+03 0.  0.
        -24    2    3    3    0    0  0.42151869008E+02  0.99327222247E+02  0.30443622783E+03  0.33266750857E+03  0.79646577450E+02 0.  0.
          6    2    1    2  501    0  0.11733991187E+02 -0.91325901124E+02  0.91226019135E+03  0.93255682457E+03  0.17019244273E+03 0.  0.
         24    2    5    5    0    0 -0.40797505263E+02 -0.39584132443E+02  0.28981760848E+03  0.30574454986E+03  0.79083143666E+02 0.  0.
          5    1    5    5  501    0  0.52531496450E+02 -0.51741768681E+02  0.62244258287E+03  0.62681227470E+03  0.47000000000E+01 0. -1.
        -11    1    6    6    0    0 -0.38094620761E+02 -0.58328762543E+02  0.15940217198E+03  0.17396119424E+03  0.00000000000E+00 0.  1.
         12    1    6    6    0    0 -0.27028845019E+01  0.18744630100E+02  0.13041543650E+03  0.13178335562E+03  0.00000000000E+00 0. -1.
         -5    1    3    3    0  503 -0.53885860195E+02 -0.80013211229E+01  0.67962189670E+02  0.87227611990E+02  0.47000000000E+01 0.  1.
         13    1    4    4    0    0 -0.29153523354E+01  0.84405541833E+02  0.16477514335E+03  0.18515842578E+03  0.00000000000E+00 0. -1.
        -14    1    4    4    0    0  0.45067221344E+02  0.14921680414E+02  0.13966108448E+03  0.14750908279E+03  0.00000000000E+00 0.  1.
</event>
<event>
12    1  0.1681255E-001  0.4771784E+03  0.7818608E-02  0.1019998E+00
         21   -1    0    0  501  502  0.00000000000E+00  0.00000000000E+00  0.39309770375E+03  0.39309770375E+03  0.00000000000E+00 0.  1.
         21   -1    0    0  502  503 -0.00000000000E+00 -0.00000000000E+00 -0.11101587041E+04  0.11101587041E+04  0.00000000000E+00 0. -1.
         -6    2    1    2    0  503  0.41566601368E+03  0.15562033228E+03  0.16221226059E+03  0.50284613817E+03  0.17188804042E+03 0.  0.
        -24    2    3    3    0    0  0.19529016646E+03  0.32933216711E+02  0.12391934604E+03  0.24768720795E+03  0.82280634307E+02 0.  0.
          6    2    1    2  501    0 -0.41566601368E+03 -0.15562033228E+03 -0.87927326094E+03  0.10004102697E+04  0.17522362151E+03 0.  0.
         24    2    5    5    0    0 -0.31578920248E+03 -0.50765078164E+02 -0.56345467336E+03  0.65294304534E+03  0.80953924945E+02 0.  0.
          5    1    5    5  501    0 -0.99876811200E+02 -0.10485525411E+03 -0.31581858758E+03  0.34746722434E+03  0.47000000000E+01 0. -1.
        -13    1    6    6    0    0 -0.73394303590E+02  0.14034554932E+02 -0.88833488996E+02  0.11608221784E+03  0.00000000000E+00 0.  1.
         14    1    6    6    0    0 -0.24239489889E+03 -0.64799633096E+02 -0.47462118437E+03  0.53686082750E+03  0.00000000000E+00 0. -1.
         -5    1    3    3    0  503  0.22037584722E+03  0.12268711556E+03  0.38292914548E+02  0.25515893022E+03  0.47000000000E+01 0.  1.
         13    1    4    4    0    0  0.54112023733E+02  0.43401276881E+02  0.62505877368E+02  0.93374336158E+02  0.00000000000E+00 0. -1.
        -14    1    4    4    0    0  0.14117814273E+03 -0.10468060170E+02  0.61413468673E+02  0.15431287179E+03  0.00000000000E+00 0.  1.
</event>
<event>
12    1  0.1681255E-001  0.1846668E+03  0.7818608E-02  0.1163974E+00
         21   -1    0    0  501  502  0.00000000000E+00  0.00000000000E+00  0.28399347328E+03  0.28399347328E+03  0.00000000000E+00 0.  1.
         21   -1    0    0  502  503 -0.00000000000E+00 -0.00000000000E+00 -0.12319875690E+03  0.12319875690E+03  0.00000000000E+00 0.  1.
         -6    2    1    2    0  503  0.30504034600E+02 -0.51991563938E+02  0.39659035962E+02  0.18634003253E+03  0.17180264766E+03 0.  0.
        -24    2    3    3    0    0  0.74478925559E+02 -0.14930563820E+02  0.58357944742E+02  0.12568487650E+03  0.81369566652E+02 0.  0.
          6    2    1    2  501    0 -0.30504034600E+02  0.51991563938E+02  0.12113568042E+03  0.22085219765E+03  0.17455148606E+03 0.  0.
         24    2    5    5    0    0  0.34342007574E+02  0.62805057822E+02  0.35753936000E+02  0.11299083702E+03  0.79779298939E+02 0.  0.
          5    1    5    5  501    0 -0.64846042174E+02 -0.10813493884E+02  0.85381744422E+02  0.10786136063E+03  0.47000000000E+01 0. -1.
        -11    1    6    6    0    0 -0.21700492729E+02  0.42240044924E+02  0.15847252331E+02  0.50062642622E+02  0.00000000000E+00 0.  1.
         12    1    6    6    0    0  0.56042500303E+02  0.20565012898E+02  0.19906683669E+02  0.62928194400E+02  0.00000000000E+00 0. -1.
         -5    1    3    3    0  503 -0.43974890958E+02 -0.37061000118E+02 -0.18698908779E+02  0.60655156039E+02  0.47000000000E+01 0.  1.
         13    1    4    4    0    0  0.19649752165E+02  0.29632684347E+02  0.38252299762E+02  0.52224967007E+02  0.00000000000E+00 0. -1.
        -14    1    4    4    0    0  0.54829173393E+02 -0.44563248167E+02  0.20105644979E+02  0.73459909490E+02  0.00000000000E+00 0.  1.
</event>
<event>
12    1  0.1681255E-001  0.2368286E+03  0.7818608E-02  0.1122142E+00
         21   -1    0    0  503  502  0.00000000000E+00  0.00000000000E+00  0.48987153773E+03  0.48987153773E+03  0.00000000000E+00 0. -1.
         21   -1    0    0  501  503 -0.00000000000E+00 -0.00000000000E+00 -0.14739748395E+03  0.14739748395E+03  0.00000000000E+00 0.  1.
          6    2    1    2  501    0  0.10654455932E+03 -0.12211900430E+03  0.18921580149E+02  0.23630272466E+03  0.17092734467E+03 0.  0.
         24    2    3    3    0    0  0.69076741135E+02 -0.71810034477E+02 -0.55408778138E+02  0.13892756352E+03  0.79388021731E+02 0.  0.
         -6    2    1    2    0  502 -0.10654455932E+03  0.12211900430E+03  0.32355247363E+03  0.40096629703E+03  0.17269329410E+03 0.  0.
        -24    2    5    5    0    0 -0.90639075407E+02  0.14798635224E+03  0.31612371851E+03  0.36935331693E+03  0.79826467279E+02 0.  0.
          5    1    3    3  501    0  0.37467818182E+02 -0.50308969822E+02  0.74330358287E+02  0.97375161139E+02  0.47000000000E+01 0. -1.
        -13    1    4    4    0    0  0.74354695148E+02 -0.76060363154E+02 -0.27024720928E+02  0.10974577475E+03  0.00000000000E+00 0.  1.
         14    1    4    4    0    0 -0.52779540129E+01  0.42503286775E+01 -0.28384057210E+02  0.29181788775E+02  0.00000000000E+00 0. -1.
         -5    1    5    5    0  502 -0.15905483910E+02 -0.25867347944E+02  0.74287551185E+01  0.31612980098E+02  0.47000000000E+01 0.  1.
         13    1    6    6    0    0 -0.90323377296E+02  0.12495993325E+03  0.20863840533E+03  0.25942876013E+03  0.00000000000E+00 0. -1.
        -14    1    6    6    0    0 -0.31569811148E+00  0.23026418990E+02  0.10748531319E+03  0.10992455680E+03  0.00000000000E+00 0.  1.
</event>
<event>
12    1  0.1681255E-001  0.3002252E+03  0.7818608E-02  0.1085178E+00
         21   -1    0    0  503  502  0.00000000000E+00  0.00000000000E+00  0.71317709804E+03  0.71317709804E+03  0.00000000000E+00 0.  1.
         21   -1    0    0  501  503 -0.00000000000E+00 -0.00000000000E+00 -0.14032669215E+03  0.14032669215E+03  0.00000000000E+00 0.  1.
          6    2    1    2  501    0  0.17408974545E+03 -0.17248877039E+03  0.15127226545E+03  0.33618216347E+03  0.17342298970E+03 0.  0.
         24    2    3    3    0    0  0.12511520899E+03 -0.17913724136E+03  0.73579961141E+02  0.24398188399E+03  0.79807156767E+02 0.  0.
         -6    2    1    2    0  502 -0.17408974545E+03  0.17248877039E+03  0.42157814045E+03  0.51732162672E+03  0.17272498832E+03 0.  0.
        -24    2    5    5    0    0 -0.15410144223E+03  0.94415053517E+02  0.37442060339E+03  0.42382852091E+03  0.82330857337E+02 0.  0.
          5    1    3    3  501    0  0.48974536458E+02  0.66484709624E+01  0.77692304311E+02  0.92200279481E+02  0.47000000000E+01 0. -1.
        -13    1    4    4    0    0  0.57139427482E+02 -0.10510210568E+03  0.35894044757E+00  0.11963066341E+03  0.00000000000E+00 0.  1.
         14    1    4    4    0    0  0.67975781509E+02 -0.74035135679E+02  0.73221020693E+02  0.12435122057E+03  0.00000000000E+00 0. -1.
         -5    1    5    5    0  502 -0.19988303223E+02  0.78073716877E+02  0.47157537060E+02  0.93493105811E+02  0.47000000000E+01 0.  1.
         11    1    6    6    0    0 -0.26560357626E+02  0.35991340705E+02  0.35779769455E+02  0.57280198195E+02  0.00000000000E+00 0. -1.
        -12    1    6    6    0    0 -0.12754108460E+03  0.58423712811E+02  0.33864083393E+03  0.36654832272E+03  0.00000000000E+00 0.  1.
</event>
<event>
12    1  0.1681255E-001  0.1902936E+03  0.7818608E-02  0.1158355E+00
         21   -1    0    0  503  502  0.00000000000E+00  0.00000000000E+00  0.85064966992E+03  0.85064966992E+03  0.00000000000E+00 0. -1.
         21   -1    0    0  501  503 -0.00000000000E+00 -0.00000000000E+00 -0.50956577240E+02  0.50956577240E+02  0.00000000000E+00 0.  1.
          6    2    1    2  501    0 -0.81738988061E+02 -0.10036639937E+01  0.21586873161E+03  0.28776897247E+03  0.17184121368E+03 0.  0.
         24    2    3    3    0    0 -0.25877101521E+02 -0.14444631628E+02  0.21458563672E+03  0.23010662504E+03  0.77613089322E+02 0.  0.
         -6    2    1    2    0  502  0.81738988061E+02  0.10036639937E+01  0.58382436107E+03  0.61383727469E+03  0.17106444900E+03 0.  0.
        -24    2    5    5    0    0 -0.14801317098E+02  0.22063961316E+02  0.34712876519E+03  0.35730177666E+03  0.80375883212E+02 0.  0.
          5    1    3    3  501    0 -0.55861886540E+02  0.13440967634E+02  0.12830948907E+01  0.57662347431E+02  0.47000000000E+01 0. -1.
        -11    1    4    4    0    0 -0.98117127541E+01  0.68935056460E+00 -0.38472195104E+01  0.10561534421E+02  0.00000000000E+00 0.  1.
         12    1    4    4    0    0 -0.16065388767E+02 -0.15133982192E+02  0.21843285623E+03  0.21954509062E+03  0.00000000000E+00 0. -1.
         -5    1    5    5    0  502  0.96540305159E+02 -0.21060297323E+02  0.23669559588E+03  0.25653549803E+03  0.47000000000E+01 0.  1.
         13    1    6    6    0    0  0.20112222076E+02  0.38110213991E+02  0.23089026154E+03  0.23487699496E+03  0.00000000000E+00 0. -1.
        -14    1    6    6    0    0 -0.34913539174E+02 -0.16046252674E+02  0.11623850365E+03  0.12242478170E+03  0.00000000000E+00 0.  1.
</event>
<event>
12    1  0.1681255E-001  0.2772545E+03  0.7818608E-02  0.1097405E+00
         21   -1    0    0  501  502  0.00000000000E+00  0.00000000000E+00  0.21956092217E+04  0.21956092217E+04  0.00000000000E+00 0. -1.
         21   -1    0    0  502  503 -0.00000000000E+00 -0.00000000000E+00 -0.10069716972E+03  0.10069716972E+03  0.00000000000E+00 0.  1.
         -6    2    1    2    0  503 -0.13215283689E+03 -0.17267633589E+03  0.11782807173E+03  0.29987679521E+03  0.16959112166E+03 0.  0.
        -24    2    3    3    0    0 -0.27097632236E+02 -0.12557243259E+03  0.19529579454E+02  0.14841704045E+03  0.71718170098E+02 0.  0.
          6    2    1    2  501    0  0.13215283689E+03  0.17267633589E+03  0.19770839803E+04  0.19964295962E+04  0.17201330880E+03 0.  0.
         24    2    5    5    0    0  0.40424831908E+02  0.68811253493E+02  0.50929695495E+03  0.52210845620E+03  0.82732678409E+02 0.  0.
          5    1    5    5  501    0  0.91728004978E+02  0.10386508239E+03  0.14677870253E+04  0.14743211400E+04  0.47000000000E+01 0. -1.
        -13    1    6    6    0    0  0.51357871903E+02  0.75722353445E+02  0.33310514970E+03  0.34544253730E+03  0.00000000000E+00 0.  1.
         14    1    6    6    0    0 -0.10933039995E+02 -0.69110999518E+01  0.17619180525E+03  0.17666591891E+03  0.00000000000E+00 0. -1.
         -5    1    3    3    0  503 -0.10505520465E+03 -0.47103903297E+02  0.98298492276E+02  0.15145975477E+03  0.47000000000E+01 0.  1.
         11    1    4    4    0    0 -0.13107548351E+02 -0.73302315359E+02  0.46670704927E+02  0.87881692969E+02  0.00000000000E+00 0. -1.
        -12    1    4    4    0    0 -0.13990083885E+02 -0.52270117230E+02 -0.27141125473E+02  0.60535347478E+02  0.00000000000E+00 0.  1.
</event>
<event>
12    1  0.1681255E-001  0.2022180E+03  0.7818608E-02  0.1150239E+00
         21   -1    0    0  503  502  0.00000000000E+00  0.00000000000E+00  0.13454398513E+03  0.13454398513E+03  0.00000000000E+00 0.  1.
         21   -1    0    0  501  503 -0.00000000000E+00 -0.00000000000E+00 -0.46224074614E+03  0.46224074614E+03  0.00000000000E+00 0.  1.
          6    2    1    2  501    0 -0.19424641304E+02 -0.77501065229E+02 -0.35005749632E+03  0.40426770207E+03  0.18576434644E+03 0.  0.
         24    2    3    3    0    0  0.11893214547E+02 -0.15484984592E+01 -0.29363340049E+03  0.30449110620E+03  0.79689481555E+02 0.  0.
         -6    2    1    2    0  502  0.19424641304E+02  0.77501065229E+02  0.22360735305E+02  0.19251702920E+03  0.17372124870E+03 0.  0.
        -24    2    5    5    0    0 -0.47464331616E+02  0.13453534612E+02  0.24394974637E+02  0.99767641033E+02  0.83214223787E+02 0.  0.
          5    1    3    3  501    0 -0.31317855850E+02 -0.75952566770E+02 -0.56424095830E+02  0.99776595874E+02  0.47000000000E+01 0. -1.
        -13    1    4    4    0    0  0.54968756660E+01 -0.28182931292E+02 -0.39221365373E+02  0.48608731314E+02  0.00000000000E+00 0.  1.
         14    1    4    4    0    0  0.63963388809E+01  0.26634432833E+02 -0.25441203512E+03  0.25588237488E+03  0.00000000000E+00 0. -1.
         -5    1    5    5    0  502  0.66888972920E+02  0.64047530617E+02 -0.20342393324E+01  0.92749388171E+02  0.47000000000E+01 0.  1.
         13    1    6    6    0    0  0.85727722800E-01 -0.19589886797E+02  0.35745477675E+02  0.40761626418E+02  0.00000000000E+00 0. -1.
        -14    1    6    6    0    0 -0.47550059339E+02  0.33043421410E+02 -0.11350503038E+02  0.59006014615E+02  0.00000000000E+00 0.  1.
</event>
<event>
12    1  0.1681255E-001  0.2702307E+03  0.7818608E-02  0.1101218E+00
         21   -1    0    0  501  502  0.00000000000E+00  0.00000000000E+00  0.25291508051E+03  0.25291508051E+03  0.00000000000E+00 0. -1.
         21   -1    0    0  502  503 -0.00000000000E+00 -0.00000000000E+00 -0.31556030824E+03  0.31556030824E+03  0.00000000000E+00 0.  1.
         -6    2    1    2    0  503 -0.61980568675E+01  0.20762433772E+03 -0.11498257749E+03  0.29322304365E+03  0.17208276695E+03 0.  0.
        -24    2    3    3    0    0  0.54625770785E+02  0.12596915582E+03 -0.31509835956E+02  0.16147747325E+03  0.78929725409E+02 0.  0.
          6    2    1    2  501    0  0.61980568675E+01 -0.20762433772E+03  0.52337349765E+02  0.27525234510E+03  0.17285361951E+03 0.  0.
         24    2    5    5    0    0 -0.19072315775E+02 -0.17244087070E+03 -0.18605730809E+02  0.19199684218E+03  0.80106223658E+02 0.  0.
          5    1    5    5  501    0  0.25270372643E+02 -0.35183467020E+02  0.70943080575E+02  0.83255502920E+02  0.47000000000E+01 0. -1.
        -11    1    6    6    0    0  0.10899731124E+02 -0.11303001095E+03 -0.42567999768E+02  0.12127086261E+03  0.00000000000E+00 0.  1.
         12    1    6    6    0    0 -0.29972046900E+02 -0.59410859753E+02  0.23962268958E+02  0.70725979566E+02  0.00000000000E+00 0. -1.
         -5    1    3    3    0  503 -0.60823827652E+02  0.81655181900E+02 -0.83472741534E+02  0.13174557040E+03  0.47000000000E+01 0.  1.
         11    1    4    4    0    0 -0.19456757693E+02  0.25202338719E+02  0.22924218755E+01  0.31921442557E+02  0.00000000000E+00 0. -1.
        -12    1    4    4    0    0  0.74082528478E+02  0.10076681711E+03 -0.33802257831E+02  0.12955603070E+03  0.00000000000E+00 0.  1.
</event>
<event>
12    1  0.1681255E-001  0.2545544E+03  0.7818608E-02  0.1110589E+00
         21   -1    0    0  503  502  0.00000000000E+00  0.00000000000E+00  0.51475640355E+02  0.51475640355E+02  0.00000000000E+00 0. -1.
         21   -1    0    0  501  503 -0.00000000000E+00 -0.00000000000E+00 -0.13662490070E+04  0.13662490070E+04  0.00000000000E+00 0. -1.
          6    2    1    2  501    0 -0.17272350210E+03  0.73818247119E+02 -0.86093332654E+03  0.89777731712E+03  0.17180039755E+03 0.  0.
         24    2    3    3    0    0 -0.85983907010E+02 -0.13814728562E+01 -0.61808229474E+03  0.62911866960E+03  0.79808750360E+02 0.  0.
         -6    2    1    2    0  502  0.17272350210E+03 -0.73818247119E+02 -0.45384004014E+03  0.51994733027E+03  0.17056348505E+03 0.  0.
        -24    2    5    5    0    0  0.95024611356E+02 -0.37159839709E+02 -0.12291804807E+03  0.17802276067E+03  0.78566699857E+02 0.  0.
          5    1    3    3  501    0 -0.86739595093E+02  0.75199719976E+02 -0.24285103180E+03  0.26865864752E+03  0.47000000000E+01 0. -1.
        -11    1    4    4    0    0  0.10360616422E+02  0.19544715296E+01 -0.14736086650E+02  0.18119453120E+02  0.00000000000E+00 0.  1.
         12    1    4    4    0    0 -0.96344523432E+02 -0.33359443857E+01 -0.60334620809E+03  0.61099921648E+03  0.00000000000E+00 0. -1.
         -5    1    5    5    0  502  0.77698890747E+02 -0.36658407411E+02 -0.33092199207E+03  0.34192456959E+03  0.47000000000E+01 0.  1.
         11    1    6    6    0    0  0.21740271839E+02 -0.33330313174E+02 -0.88362383832E+02  0.96909545827E+02  0.00000000000E+00 0. -1.
        -12    1    6    6    0    0  0.73284339517E+02 -0.38295265345E+01 -0.34555664236E+02  0.81113214846E+02  0.00000000000E+00 0.  1.
</event>
<event>
12    1  0.1681255E-001  0.1900313E+03  0.7818608E-02  0.1158510E+00
         21   -1    0    0  503  502  0.00000000000E+00  0.00000000000E+00  0.11537497435E+03  0.11537497435E+03  0.00000000000E+00 0.  1.
         21   -1    0    0  501  503 -0.00000000000E+00 -0.00000000000E+00 -0.32892491326E+03  0.32892491326E+03  0.00000000000E+00 0.  1.
          6    2    1    2  501    0 -0.60397325925E+02 -0.53899751634E+02 -0.56941361901E+02  0.19805172336E+03  0.17154925306E+03 0.  0.
         24    2    3    3    0    0 -0.31980621344E+02 -0.82924685101E+02 -0.86564621461E+02  0.14755832410E+03  0.79879670644E+02 0.  0.
         -6    2    1    2    0  502  0.60397325925E+02  0.53899751634E+02 -0.15660857701E+03  0.24624816425E+03  0.17192699555E+03 0.  0.
        -24    2    5    5    0    0  0.44481607037E+02  0.95322770064E+02 -0.73989342878E+02  0.15234819401E+03  0.81673162668E+02 0.  0.
          5    1    3    3  501    0 -0.28416704582E+02  0.29024933467E+02  0.29623259559E+02  0.50493399261E+02  0.47000000000E+01 0. -1.
        -13    1    4    4    0    0 -0.30514345826E+02 -0.50702022247E+02 -0.44590345921E+01  0.59343941145E+02  0.00000000000E+00 0.  1.
         14    1    4    4    0    0 -0.14662755181E+01 -0.32222662854E+02 -0.82105586869E+02  0.88214382956E+02  0.00000000000E+00 0. -1.
         -5    1    5    5    0  502  0.15915718888E+02 -0.41423018431E+02 -0.82619234128E+02  0.93899970242E+02  0.47000000000E+01 0.  1.
         13    1    6    6    0    0  0.72585837829E+01  0.11699960622E+02  0.17943787511E+02  0.22617595525E+02  0.00000000000E+00 0. -1.
        -14    1    6    6    0    0  0.37223023254E+02  0.83622809442E+02 -0.91933130389E+02  0.12973059848E+03  0.00000000000E+00 0.  1.
</event>
<event>
12    1  0.1681255E-001  0.2644568E+03  0.7818608E-02  0.1104996E+00
         21   -1    0    0  503  502  0.00000000000E+00  0.00000000000E+00  0.40115159900E+03  0.40115159900E+03  0.00000000000E+00 0. -1.
         21   -1    0    0  501  503 -0.00000000000E+00 -0.00000000000E+00 -0.17950755233E+03  0.17950755233E+03  0.00000000000E+00 0.  1.
          6    2    1    2  501    0 -0.17010850889E+03 -0.10083770904E+03  0.51215911174E+02  0.26604326981E+03  0.17044296258E+03 0.  0.
         24    2    3    3    0    0 -0.19581562774E+03 -0.92798561103E+02  0.56983727110E+02  0.23809972745E+03  0.80554342190E+02 0.  0.
         -6    2    1    2    0  502  0.17010850889E+03  0.10083770904E+03  0.17042813549E+03  0.31461588153E+03  0.17559115917E+03 0.  0.
        -24    2    5    5    0    0  0.97811364085E+02  0.82138999841E+01  0.14821451092E+03  0.19494306813E+03  0.80004546526E+02 0.  0.
          5    1    3    3  501    0  0.25707118851E+02 -0.80391479348E+01 -0.57678159353E+01  0.27943542364E+02  0.47000000000E+01 0. -1.
        -11    1    4    4    0    0 -0.12474246739E+03 -0.99104534632E+02  0.32004621686E+02  0.16250134696E+03  0.00000000000E+00 0.  1.
         12    1    4    4    0    0 -0.71073160354E+02  0.63059735288E+01  0.24979105424E+02  0.75598380490E+02  0.00000000000E+00 0. -1.
         -5    1    5    5    0  502  0.72297144804E+02  0.92623809054E+02  0.22213624571E+02  0.11967281340E+03  0.47000000000E+01 0.  1.
         11    1    6    6    0    0  0.41196983577E+02  0.83091234181E+01  0.67431278267E+01  0.42564101784E+02  0.00000000000E+00 0. -1.
        -12    1    6    6    0    0  0.56614380507E+02 -0.95223433970E-01  0.14147138310E+03  0.15237896634E+03  0.00000000000E+00 0.  1.
</event>
<event>
12    1  0.1681255E-001  0.1855873E+03  0.7818608E-02  0.1162566E+00
         21   -1    0    0  501  502  0.00000000000E+00  0.00000000000E+00  0.48116532502E+03  0.48116532502E+03  0.00000000000E+00 0. -1.
         21   -1    0    0  502  503 -0.00000000000E+00 -0.00000000000E+00 -0.76777926230E+02  0.76777926230E+02  0.00000000000E+00 0. -1.
         -6    2    1    2    0  503 -0.35794786138E+02 -0.56445248923E+02  0.12902384160E+03  0.22603053502E+03  0.17313381594E+03 0.  0.
        -24    2    3    3    0    0  0.10300039417E+02 -0.75581654599E+02  0.13629518391E+03  0.17537584734E+03  0.79759847987E+02 0.  0.
          6    2    1    2  501    0  0.35794786138E+02  0.56445248923E+02  0.27536355718E+03  0.33191271622E+03  0.17283989622E+03 0.  0.
         24    2    5    5    0    0  0.53560997380E+02  0.29466248245E+02  0.28096378074E+03  0.29879237137E+03  0.81235428674E+02 0.  0.
          5    1    5    5  501    0 -0.17766211242E+02  0.26979000678E+02 -0.56002235572E+01  0.33120344856E+02  0.47000000000E+01 0. -1.
        -11    1    6    6    0    0 -0.76821782330E+01 -0.12219849204E+02  0.92116884745E+01  0.17122960653E+02  0.00000000000E+00 0.  1.
         12    1    6    6    0    0  0.61243175613E+02  0.41686097449E+02  0.27175209227E+03  0.28166941071E+03  0.00000000000E+00 0. -1.
         -5    1    3    3    0  503 -0.46094825555E+02  0.19136405676E+02 -0.72713423071E+01  0.50654687681E+02  0.47000000000E+01 0.  1.
         11    1    4    4    0    0  0.44993479322E+02 -0.49796493928E+02  0.84736073350E+02  0.10809396892E+03  0.00000000000E+00 0. -1.
        -12    1    4    4    0    0 -0.34693439905E+02 -0.25785160670E+02  0.51559110557E+02  0.67281878427E+02  0.00000000000E+00 0.  1.
</event>
<event>
12    1  0.1681255E-001  0.2757218E+03  0.7818608E-02  0.1098069E+00
         21   -1    0    0  501  502  0.00000000000E+00  0.00000000000E+00  0.92770246349E+03  0.92770246349E+03  0.00000000000E+00 0. -1.
         21   -1    0    0  502  503 -0.00000000000E+00 -0.00000000000E+00 -0.22979164617E+03  0.22979164617E+03  0.00000000000E+00 0.  1.
         -6    2    1    2    0  503 -0.21281539743E+03 -0.36678020004E+02 -0.11536296044E+03  0.29875274749E+03  0.17119848409E+03 0.  0.
        -24    2    3    3    0    0 -0.10701970049E+03 -0.82907778729E+02 -0.88174994209E+02  0.18004640565E+03  0.79466738446E+02 0.  0.
          6    2    1    2  501    0  0.21281539743E+03  0.36678020004E+02  0.81327377776E+03  0.85874136218E+03  0.17142584105E+03 0.  0.
         24    2    5    5    0    0  0.98756901646E+02  0.33557056627E+02  0.19448147773E+03  0.22949969043E+03  0.62992547640E+02 0.  0.
          5    1    5    5  501    0  0.11405849578E+03  0.31209633770E+01  0.61879230004E+03  0.62924167174E+03  0.47000000000E+01 0. -1.
        -11    1    6    6    0    0  0.90466521220E+02  0.27894174333E+02  0.19749891121E+03  0.21901620112E+03  0.00000000000E+00 0.  1.
         12    1    6    6    0    0  0.82903804265E+01  0.56628822934E+01 -0.30174334796E+01  0.10483489318E+02  0.00000000000E+00 0. -1.
         -5    1    3    3    0  503 -0.10579569694E+03  0.46229758726E+02 -0.27187966232E+02  0.11870634183E+03  0.47000000000E+01 0.  1.
         13    1    4    4    0    0 -0.24271039516E+02 -0.86864696834E+01  0.13763961844E+02  0.29223017647E+02  0.00000000000E+00 0. -1.
        -14    1    4    4    0    0 -0.82748660971E+02 -0.74221309046E+02 -0.10193895605E+03  0.15082338801E+03  0.00000000000E+00 0.  1.
</event>
<event>
12    1  0.1681255E-001  0.2617243E+03  0.7818608E-02  0.1106208E+00
         21   -1    0    0  503  502  0.00000000000E+00  0.00000000000E+00  0.18502842008E+03  0.18502842008E+03  0.00000000000E+00 0.  1.
         21   -1    0    0  501  503 -0.00000000000E+00 -0.00000000000E+00 -0.69382253588E+03  0.69382253588E+03  0.00000000000E+00 0. -1.
          6    2    1    2  501    0 -0.39886096951E+02  0.19297254776E+03 -0.55509172052E+03  0.61369898588E+03  0.17225075373E+03 0.  0.
         24    2    3    3    0    0 -0.20203683580E+02  0.15364193049E+03 -0.25609399334E+03  0.31144739248E+03  0.86030885306E+02 0.  0.
         -6    2    1    2    0  502  0.39886096951E+02 -0.19297254776E+03  0.46297604717E+02  0.26515197008E+03  0.17126819354E+03 0.  0.
        -24    2    5    5    0    0  0.41660759231E+02 -0.31834478443E+02  0.39979983578E+02  0.10381186612E+03  0.80183861116E+02 0.  0.
          5    1    3    3  501    0 -0.19682413371E+02  0.39330617271E+02 -0.29899772718E+03  0.30225159340E+03  0.47000000000E+01 0. -1.
        -11    1    4    4    0    0  0.66659408923E+01  0.33873823715E+01  0.50104818313E+01  0.90007808268E+01  0.00000000000E+00 0.  1.
         12    1    4    4    0    0 -0.26869624472E+02  0.15025454811E+03 -0.26110447517E+03  0.30244661166E+03  0.00000000000E+00 0. -1.
         -5    1    5    5    0  502 -0.17746622801E+01 -0.16113806931E+03  0.63176211388E+01  0.16134010396E+03  0.47000000000E+01 0.  1.
         13    1    6    6    0    0  0.16420234369E+02  0.21228380924E+02 -0.79416335154E+01  0.27988172435E+02  0.00000000000E+00 0. -1.
        -14    1    6    6    0    0  0.25240524862E+02 -0.53062859367E+02  0.47921617093E+02  0.75823693687E+02  0.00000000000E+00 0.  1.
</event>
<event>
12    1  0.1681255E-001  0.2065233E+03  0.7818608E-02  0.1144463E+00
         21   -1    0    0  501  502  0.00000000000E+00  0.00000000000E+00  0.26865577883E+03  0.26865577883E+03  0.00000000000E+00 0. -1.
         21   -1    0    0  502  503 -0.00000000000E+00 -0.00000000000E+00 -0.11389290863E+04  0.11389290863E+04  0.00000000000E+00 0. -1.
         -6    2    1    2    0  503 -0.36326594526E+02  0.10834086491E+03 -0.10882635867E+04  0.11076865629E+04  0.17203058687E+03 0.  0.
        -24    2    3    3    0    0 -0.50122858782E+02  0.34365482381E+01 -0.37328631708E+03  0.38490731668E+03  0.79289703491E+02 0.  0.
          6    2    1    2  501    0  0.36326594526E+02 -0.10834086491E+03  0.21799027927E+03  0.29989830228E+03  0.17135304309E+03 0.  0.
         24    2    5    5    0    0 -0.31277990329E+02 -0.10068608146E+03  0.17344610956E+03  0.21844126662E+03  0.80728150989E+02 0.  0.
          5    1    5    5  501    0  0.67604584855E+02 -0.76547834465E+01  0.44544169710E+02  0.81457035658E+02  0.47000000000E+01 0. -1.
        -11    1    6    6    0    0 -0.12150182006E+02 -0.45195596193E+02  0.14485876550E+02  0.48990911988E+02  0.00000000000E+00 0.  1.
         12    1    6    6    0    0 -0.19127808323E+02 -0.55490485272E+02  0.15896023301E+03  0.16945035463E+03  0.00000000000E+00 0. -1.
         -5    1    3    3    0  503  0.13796264256E+02  0.10490431667E+03 -0.71497726966E+03  0.72277924617E+03  0.47000000000E+01 0.  1.
         11    1    4    4    0    0  0.13151447581E+02 -0.30612706931E+01 -0.19760319259E+03  0.19806401408E+03  0.00000000000E+00 0. -1.
        -12    1    4    4    0    0 -0.63274306364E+02  0.64978189311E+01 -0.17568312449E+03  0.18684330261E+03  0.00000000000E+00 0.  1.
</event>
<event>
12    1  0.1681255E-001  0.2264663E+03  0.7818608E-02  0.1130680E+00
         21   -1    0    0  501  502  0.00000000000E+00  0.00000000000E+00  0.13984599937E+04  0.13984599937E+04  0.00000000000E+00 0. -1.
         21   -1    0    0  502  503 -0.00000000000E+00 -0.00000000000E+00 -0.11554921519E+03  0.11554921519E+03  0.00000000000E+00 0.  1.
         -6    2    1    2    0  503 -0.14505989749E+03  0.31012874653E+02  0.14445707351E+02  0.22692658814E+03  0.17112225364E+03 0.  0.
        -24    2    3    3    0    0 -0.55580259257E+02 -0.10835592790E+02 -0.49543876177E+02  0.10913585554E+03  0.79053551520E+02 0.  0.
          6    2    1    2  501    0  0.14505989749E+03 -0.31012874653E+02  0.12684650712E+04  0.12870826207E+04  0.15991830295E+03 0.  0.
         24    2    5    5    0    0  0.40945717457E+02 -0.25542744445E+02  0.33518369341E+03  0.34798416751E+03  0.80099244314E+02 0.  0.
          5    1    5    5  501    0  0.10411418003E+03 -0.54701302076E+01  0.93328137775E+03  0.93909845323E+03  0.47000000000E+01 0. -1.
        -13    1    6    6    0    0  0.25240563083E+02  0.17548539604E+02  0.24386570878E+03  0.24579568992E+03  0.00000000000E+00 0.  1.
         14    1    6    6    0    0  0.15705154374E+02 -0.43091284049E+02  0.91317984636E+02  0.10218847759E+03  0.00000000000E+00 0. -1.
         -5    1    3    3    0  503 -0.89479638233E+02  0.41848467443E+02  0.63989583528E+02  0.11779073260E+03  0.47000000000E+01 0.  1.
         11    1    4    4    0    0 -0.20193752203E+01 -0.37399526225E+02 -0.19404973062E+02  0.42182406494E+02  0.00000000000E+00 0. -1.
        -12    1    4    4    0    0 -0.53560884037E+02  0.26563933435E+02 -0.30138903115E+02  0.66953449047E+02  0.00000000000E+00 0.  1.
</event>
<event>
12    1  0.1681255E-001  0.1832540E+03  0.7818608E-02  0.1166517E+00
         21   -1    0    0  501  502  0.00000000000E+00  0.00000000000E+00  0.21573249229E+03  0.21573249229E+03  0.00000000000E+00 0. -1.
         21   -1    0    0  502  503 -0.00000000000E+00 -0.00000000000E+00 -0.15693384919E+03  0.15693384919E+03  0.00000000000E+00 0. -1.
         -6    2    1    2    0  503 -0.55486678286E+02  0.31561093970E+02 -0.11061156536E+02  0.18358747135E+03  0.17177641379E+03 0.  0.
        -24    2    3    3    0    0 -0.57779872635E+02 -0.27023440562E+02  0.39037804771E+02  0.10632556385E+03  0.75580389690E+02 0.  0.
          6    2    1    2  501    0  0.55486678286E+02 -0.31561093970E+02  0.69859799628E+02  0.18907887013E+03  0.16369347392E+03 0.  0.
         24    2    5    5    0    0 -0.10019564885E+02  0.16775359121E+02 -0.53612309294E+01  0.78138462567E+02  0.75465702018E+02 0.  0.
          5    1    5    5  501    0  0.65506243171E+02 -0.48336453090E+02  0.75221030557E+02  0.11094040756E+03  0.47000000000E+01 0. -1.
        -13    1    6    6    0    0  0.38510426976E+01  0.38468699855E+02  0.18656417057E+02  0.42927069499E+02  0.00000000000E+00 0.  1.
         14    1    6    6    0    0 -0.13870607583E+02 -0.21693340734E+02 -0.24017647987E+02  0.35211393067E+02  0.00000000000E+00 0. -1.
         -5    1    3    3    0  503  0.22931943487E+01  0.58584534531E+02 -0.50098961307E+02  0.77261907501E+02  0.47000000000E+01 0.  1.
         11    1    4    4    0    0 -0.75050019547E+02 -0.16466768155E+02  0.22148996200E+02  0.79963978891E+02  0.00000000000E+00 0. -1.
        -12    1    4    4    0    0  0.17270146912E+02 -0.10556672407E+02  0.16888808571E+02  0.26361584961E+02  0.00000000000E+00 0.  1.
</event>
<event>
12    1  0.1681255E-001  0.2216938E+03  0.7818608E-02  0.1134146E+00
         21   -1    0    0  503  502  0.00000000000E+00  0.00000000000E+00  0.61286886405E+03  0.61286886405E+03  0.00000000000E+00 0.  1.
         21   -1    0    0  501  503 -0.00000000000E+00 -0.00000000000E+00 -0.67571209662E+03  0.67571209662E+03  0.00000000000E+00 0.  1.
          6    2    1    2  501    0 -0.98645105852E+02 -0.79505865634E+02 -0.63766150672E+03  0.67249315356E+03  0.17199652569E+03 0.  0.
         24    2    3    3    0    0 -0.58535068444E+02 -0.49875646131E+02 -0.59894901973E+03  0.60918824334E+03  0.80352058300E+02 0.  0.
         -6    2    1    2    0  502  0.98645105852E+02  0.79505865634E+02  0.57481827415E+03  0.61608780711E+03  0.18192333054E+03 0.  0.
        -24    2    5    5    0    0 -0.37409390361E+01  0.22618221215E+02  0.11425821754E+03  0.14084390971E+03  0.79097965022E+02 0.  0.
          5    1    3    3  501    0 -0.40110037409E+02 -0.29630219503E+02 -0.38712486994E+02  0.63304910220E+02  0.47000000000E+01 0. -1.
        -13    1    4    4    0    0 -0.55110246771E+02 -0.47567489551E+02 -0.25431891697E+03  0.26453339466E+03  0.00000000000E+00 0.  1.
         14    1    4    4    0    0 -0.34248216729E+01 -0.23081565797E+01 -0.34463010276E+03  0.34465484868E+03  0.00000000000E+00 0. -1.
         -5    1    5    5    0  502  0.10238604489E+03  0.56887644419E+02  0.46056005660E+03  0.47524389740E+03  0.47000000000E+01 0.  1.
         11    1    6    6    0    0 -0.33788615430E+02 -0.60637283705E+01  0.79808128748E+02  0.86877941669E+02  0.00000000000E+00 0. -1.
        -12    1    6    6    0    0  0.30047676394E+02  0.28681949586E+02  0.34450088796E+02  0.53965968042E+02  0.00000000000E+00 0.  1.
</event>
<event>
12    1  0.1681255E-001  0.2227350E+03  0.7818608E-02  0.1132337E+00
         21   -1    0    0  501  502  0.00000000000E+00  0.00000000000E+00  0.69446814236E+02  0.69446814236E+02  0.00000000000E+00 0. -1.
         21   -1    0    0  502  503 -0.00000000000E+00 -0.00000000000E+00 -0.90101013037E+03  0.90101013037E+03  0.00000000000E+00 0. -1.
         -6    2    1    2    0  503 -0.25744362348E+02 -0.13884310000E+03 -0.64334815431E+03  0.68081402705E+03  0.17225188869E+03 0.  0.
        -24    2    3    3    0    0 -0.42812629613E+02 -0.99384566364E+02 -0.23107540584E+03  0.26627909396E+03  0.76147878541E+02 0.  0.
          6    2    1    2  501    0  0.25744362348E+02  0.13884310000E+03 -0.18821516182E+03  0.28964291756E+03  0.16890202469E+03 0.  0.
         24    2    5    5    0    0 -0.13900400424E+00  0.15557320793E+03 -0.18997654105E+03  0.25841732514E+03  0.80531890822E+02 0.  0.
          5    1    5    5  501    0  0.25883366352E+02 -0.16730107931E+02  0.17613792236E+01  0.31225592418E+02  0.47000000000E+01 0. -1.
        -13    1    6    6    0    0 -0.25699974881E+02  0.12332856503E+02 -0.20867660340E+02  0.35327713010E+02  0.00000000000E+00 0.  1.
         14    1    6    6    0    0  0.25560970877E+02  0.14324035142E+03 -0.16910888071E+03  0.22308961213E+03  0.00000000000E+00 0. -1.
         -5    1    3    3    0  503  0.17068267265E+02 -0.39458533632E+02 -0.41227274847E+03  0.41453493309E+03  0.47000000000E+01 0.  1.
         11    1    4    4    0    0 -0.53904727706E+01 -0.86801535053E+02 -0.11855749964E+03  0.14703552090E+03  0.00000000000E+00 0. -1.
        -12    1    4    4    0    0 -0.37422156842E+02 -0.12583031311E+02 -0.11251790620E+03  0.11924357306E+03  0.00000000000E+00 0.  1.
</event>
<event>
12    1  0.1681255E-001  0.2073444E+03  0.7818608E-02  0.1145387E+00
         21   -1    0    0  501  502  0.00000000000E+00  0.00000000000E+00  0.36911620693E+02  0.36911620693E+02  0.00000000000E+00 0. -1.
         21   -1    0    0  502  503 -0.00000000000E+00 -0.00000000000E+00 -0.12089217244E+04  0.12089217244E+04  0.00000000000E+00 0.  1.
         -6    2    1    2    0  503 -0.82856105757E+02  0.81468413276E+02 -0.74506425666E+03  0.77120248559E+03  0.16164866407E+03 0.  0.
        -24    2    3    3    0    0 -0.83406415246E+02  0.11469285718E+03 -0.65576151516E+03  0.67580208647E+03  0.81081525078E+02 0.  0.
          6    2    1    2  501    0  0.82856105757E+02 -0.81468413276E+02 -0.42694584709E+03  0.47463085956E+03  0.17172495412E+03 0.  0.
         24    2    5    5    0    0  0.83135760052E+02 -0.18705990040E+02 -0.14740485537E+03  0.18809210820E+03  0.79931102308E+02 0.  0.
          5    1    5    5  501    0 -0.27965429574E+00 -0.62762423236E+02 -0.27954099172E+03  0.28653875136E+03  0.47000000000E+01 0. -1.
        -13    1    6    6    0    0  0.82029876825E+02 -0.24360868681E+02 -0.15589233515E+03  0.17783355356E+03  0.00000000000E+00 0.  1.
         14    1    6    6    0    0  0.11058832274E+01  0.56548786404E+01  0.84874797790E+01  0.10258554633E+02  0.00000000000E+00 0. -1.
         -5    1    3    3    0  503  0.55030948897E+00 -0.33224443905E+02 -0.89302741498E+02  0.95400399121E+02  0.47000000000E+01 0.  1.
         11    1    4    4    0    0 -0.31777922007E+01  0.44163998890E+02 -0.93135621091E+02  0.10312517189E+03  0.00000000000E+00 0. -1.
        -12    1    4    4    0    0 -0.80228623045E+02  0.70528858292E+02 -0.56262589407E+03  0.57267691458E+03  0.00000000000E+00 0.  1.
</event>
<event>
12    1  0.1681255E-001  0.3877725E+03  0.7818608E-02  0.1048167E+00
         21   -1    0    0  501  502  0.00000000000E+00  0.00000000000E+00  0.65191784882E+03  0.65191784882E+03  0.00000000000E+00 0. -1.
         21   -1    0    0  502  503 -0.00000000000E+00 -0.00000000000E+00 -0.23908352361E+03  0.23908352361E+03  0.00000000000E+00 0.  1.
         -6    2    1    2    0  503  0.10798986341E+03 -0.33027483788E+03  0.12033418746E+03  0.40528145394E+03  0.17038034246E+03 0.  0.
        -24    2    3    3    0    0  0.83825026096E+02 -0.22534984749E+03  0.14853842980E+03  0.29387785320E+03  0.80568844557E+02 0.  0.
          6    2    1    2  501    0 -0.10798986341E+03  0.33027483788E+03  0.29250013775E+03  0.48571991849E+03  0.17211690647E+03 0.  0.
         24    2    5    5    0    0 -0.14264153622E+02  0.71881381373E+02  0.98787382910E+02  0.14941885035E+03  0.84833052233E+02 0.  0.
          5    1    5    5  501    0 -0.93725709784E+02  0.25839345651E+03  0.19371275484E+03  0.33630106814E+03  0.47000000000E+01 0. -1.
        -13    1    6    6    0    0 -0.42729395754E+00  0.63505382301E+02  0.16580098408E+02  0.65635476875E+02  0.00000000000E+00 0.  1.
         14    1    6    6    0    0 -0.13836859665E+02  0.83759990721E+01  0.82207284501E+02  0.83783373475E+02  0.00000000000E+00 0. -1.
         -5    1    3    3    0  503  0.24164837311E+02 -0.10492499039E+03 -0.28204242334E+02  0.11140360074E+03  0.47000000000E+01 0.  1.
         13    1    4    4    0    0  0.89703102359E+02 -0.15012324010E+03  0.12455005939E+03  0.21470060802E+03  0.00000000000E+00 0. -1.
        -14    1    4    4    0    0 -0.58780762633E+01 -0.75226607389E+02  0.23988370411E+02  0.79177245183E+02  0.00000000000E+00 0.  1.
</event>
<event>
12    1  0.1681255E-001  0.2629066E+03  0.7818608E-02  0.1105534E+00
         21   -1    0    0  501  502  0.00000000000E+00  0.00000000000E+00  0.27889944449E+03  0.27889944449E+03  0.00000000000E+00 0.  1.
         21   -1    0    0  502  503 -0.00000000000E+00 -0.00000000000E+00 -0.55818204224E+03  0.55818204224E+03  0.00000000000E+00 0.  1.
         -6    2    1    2    0  503  0.19350991215E+03 -0.19801561781E+02 -0.45222498534E+03  0.52309399418E+03  0.17686633775E+03 0.  0.
        -24    2    3    3    0    0  0.11385996849E+03 -0.41756207641E+01 -0.12934391480E+03  0.19013369734E+03  0.80246160866E+02 0.  0.
          6    2    1    2  501    0 -0.19350991215E+03  0.19801561781E+02  0.17294238759E+03  0.31398749256E+03  0.17561573993E+03 0.  0.
         24    2    5    5    0    0 -0.13563872709E+03  0.33939043575E+01  0.19446608904E+03  0.24992779380E+03  0.78977588297E+02 0.  0.
          5    1    5    5  501    0 -0.57871185054E+02  0.16407657424E+02 -0.21523701446E+02  0.64059698763E+02  0.47000000000E+01 0. -1.
        -13    1    6    6    0    0 -0.50053847847E+02 -0.36824340034E+02  0.84606682110E+02  0.10497480822E+03  0.00000000000E+00 0.  1.
         14    1    6    6    0    0 -0.85584879247E+02  0.40218244392E+02  0.10985940693E+03  0.14495298558E+03  0.00000000000E+00 0. -1.
         -5    1    3    3    0  503  0.79649943654E+02 -0.15625941017E+02 -0.32288107054E+03  0.33296029684E+03  0.47000000000E+01 0.  1.
         11    1    4    4    0    0  0.79999736421E+02  0.35084543984E+02 -0.85529220111E+02  0.12225436821E+03  0.00000000000E+00 0. -1.
        -12    1    4    4    0    0  0.33860232073E+02 -0.39260164748E+02 -0.43814694690E+02  0.67879329128E+02  0.00000000000E+00 0.  1.
</event>
<event>
12    1  0.1681255E-001  0.2041157E+03  0.7818608E-02  0.1146432E+00
         21   -1    0    0  501  502  0.00000000000E+00  0.00000000000E+00  0.12444913660E+03  0.12444913660E+03  0.00000000000E+00 0.  1.
         21   -1    0    0  502  503 -0.00000000000E+00 -0.00000000000E+00 -0.37268968043E+03  0.37268968043E+03  0.00000000000E+00 0. -1.
         -6    2    1    2    0  503 -0.54262592923E+02 -0.91166304191E+02 -0.43697862009E+02  0.20817354339E+03  0.17369800521E+03 0.  0.
        -24    2    3    3    0    0 -0.94633412535E+02 -0.98734867184E+02 -0.47735378420E+02  0.16663467291E+03  0.82367415271E+02 0.  0.
          6    2    1    2  501    0  0.54262592923E+02  0.91166304191E+02 -0.20454268182E+03  0.28896527364E+03  0.17437745460E+03 0.  0.
         24    2    5    5    0    0  0.43997059022E+02  0.13156063064E+03 -0.17937793742E+03  0.24005272764E+03  0.78771358216E+02 0.  0.
          5    1    5    5  501    0  0.10265533901E+02 -0.40394326453E+02 -0.25164744402E+02  0.48912546005E+02  0.47000000000E+01 0. -1.
        -13    1    6    6    0    0  0.32278483336E+02  0.53323889826E+02 -0.13652706309E+03  0.15008323247E+03  0.00000000000E+00 0.  1.
         14    1    6    6    0    0  0.11718575686E+02  0.78236740818E+02 -0.42850874330E+02  0.89969495168E+02  0.00000000000E+00 0. -1.
         -5    1    3    3    0  503  0.40370819612E+02  0.75685629926E+01  0.40375164116E+01  0.41538870480E+02  0.47000000000E+01 0.  1.
         13    1    4    4    0    0 -0.70133900724E+02 -0.11139678463E+03 -0.34709300955E+02  0.13613501838E+03  0.00000000000E+00 0. -1.
        -14    1    4    4    0    0 -0.24499511811E+02  0.12661917448E+02 -0.13026077465E+02  0.30499654532E+02  0.00000000000E+00 0.  1.
</event>
<event>
12    1  0.1681255E-001  0.2342084E+03  0.7818608E-02  0.1123956E+00
         21   -1    0    0  503  502  0.00000000000E+00  0.00000000000E+00  0.30119145493E+03  0.30119145493E+03  0.00000000000E+00 0. -1.
         21   -1    0    0  501  503 -0.00000000000E+00 -0.00000000000E+00 -0.23851183590E+03  0.23851183590E+03  0.00000000000E+00 0. -1.
          6    2    1    2  501    0 -0.14297842111E+03  0.71427029461E+02 -0.10106737948E+03  0.25508467122E+03  0.17119849548E+03 0.  0.
         24    2    3    3    0    0 -0.10825506148E+03  0.59836779502E+02 -0.13881752188E+03  0.20229064837E+03  0.79696948003E+02 0.  0.
         -6    2    1    2    0  502  0.14297842111E+03 -0.71427029461E+02  0.16374699852E+03  0.28461861961E+03  0.16926319642E+03 0.  0.
        -24    2    5    5    0    0  0.89773529742E+01 -0.55801204644E+02  0.65701744356E+02  0.11777913229E+03  0.79754858699E+02 0.  0.
          5    1    3    3  501    0 -0.34723359636E+02  0.11590249958E+02  0.37750142392E+02  0.52794022854E+02  0.47000000000E+01 0. -1.
        -11    1    4    4    0    0 -0.26253409350E+02 -0.52987394689E+01  0.19360692572E+01  0.26852681554E+02  0.00000000000E+00 0.  1.
         12    1    4    4    0    0 -0.82001652127E+02  0.65135518971E+02 -0.14075359113E+03  0.17543796682E+03  0.00000000000E+00 0. -1.
         -5    1    5    5    0  502  0.13400106814E+03 -0.15625824816E+02  0.98045254160E+02  0.16683948731E+03  0.47000000000E+01 0.  1.
         11    1    6    6    0    0  0.24163882766E+02 -0.16253357681E+02  0.69392247470E+02  0.75255224903E+02  0.00000000000E+00 0. -1.
        -12    1    6    6    0    0 -0.15186529792E+02 -0.39547846963E+02 -0.36905031138E+01  0.42523907390E+02  0.00000000000E+00 0.  1.
</event>
<event>
12    1  0.1681255E-001  0.2773722E+03  0.7818608E-02  0.1097357E+00
         21   -1    0    0  501  502  0.00000000000E+00  0.00000000000E+00  0.66564733157E+03  0.66564733157E+03  0.00000000000E+00 0. -1.
         21   -1    0    0  502  503 -0.00000000000E+00 -0.00000000000E+00 -0.11827746655E+03  0.11827746655E+03  0.00000000000E+00 0.  1.
         -6    2    1    2    0  503 -0.15179262368E+03  0.15254104915E+03  0.34061542379E+03  0.43926550986E+03  0.17500156841E+03 0.  0.
        -24    2    3    3    0    0 -0.88661602950E+02  0.51282784880E+02  0.79546626237E+02  0.15218055916E+03  0.79626961375E+02 0.  0.
          6    2    1    2  501    0  0.15179262368E+03 -0.15254104915E+03  0.20675444123E+03  0.34465928826E+03  0.17243217141E+03 0.  0.
         24    2    5    5    0    0  0.54539277399E+02 -0.14350664845E+03  0.97182124450E+02  0.19779875455E+03  0.78174746929E+02 0.  0.
          5    1    5    5  501    0  0.97253346283E+02 -0.90344006941E+01  0.10957231678E+03  0.14686053371E+03  0.47000000000E+01 0. -1.
        -11    1    6    6    0    0  0.30965128991E+02 -0.60930719801E+02  0.31679636956E+00  0.68348315186E+02  0.00000000000E+00 0.  1.
         12    1    6    6    0    0  0.23574148408E+02 -0.82575928653E+02  0.96865328081E+02  0.12945043936E+03  0.00000000000E+00 0. -1.
         -5    1    3    3    0  503 -0.63131020732E+02  0.10125826427E+03  0.26106879755E+03  0.28708495070E+03  0.47000000000E+01 0.  1.
         13    1    4    4    0    0 -0.16241681852E+01 -0.16366647798E+01  0.44348133168E+02  0.44408034289E+02  0.00000000000E+00 0. -1.
        -14    1    4    4    0    0 -0.87037434764E+02  0.52919449660E+02  0.35198493069E+02  0.10777252487E+03  0.00000000000E+00 0.  1.
</event>
<event>
12    1  0.1681255E-001  0.1890725E+03  0.7818608E-02  0.1159749E+00
         21   -1    0    0  503  502  0.00000000000E+00  0.00000000000E+00  0.86095670871E+03  0.86095670871E+03  0.00000000000E+00 0.  1.
         21   -1    0    0  501  503 -0.00000000000E+00 -0.00000000000E+00 -0.43764467936E+02  0.43764467936E+02  0.00000000000E+00 0.  1.
          6    2    1    2  501    0 -0.71695374932E+02  0.16362296284E+02  0.29480522178E+03  0.34917045109E+03  0.17205212466E+03 0.  0.
         24    2    3    3    0    0 -0.61971574653E+02  0.29456594710E+02  0.30965192599E+03  0.32661989524E+03  0.78026108842E+02 0.  0.
         -6    2    1    2    0  502  0.71695374932E+02 -0.16362296284E+02  0.52238701900E+03  0.55555072556E+03  0.17418513003E+03 0.  0.
        -24    2    5    5    0    0  0.27019701253E+01 -0.26663579621E+02  0.11500189357E+03  0.14220953869E+03  0.79245632356E+02 0.  0.
          5    1    3    3  501    0 -0.97238002785E+01 -0.13094298426E+02 -0.14846704213E+02  0.22550555849E+02  0.47000000000E+01 0. -1.
        -11    1    4    4    0    0  0.10124264047E+02  0.16407084734E+02  0.19738688355E+02  0.27591827955E+02  0.00000000000E+00 0.  1.
         12    1    4    4    0    0 -0.72095838700E+02  0.13049509976E+02  0.28991323763E+03  0.29902806728E+03  0.00000000000E+00 0. -1.
         -5    1    5    5    0  502  0.68993404807E+02  0.10301283338E+02  0.40738512543E+03  0.41334118687E+03  0.47000000000E+01 0.  1.
         11    1    6    6    0    0  0.12457731960E+02  0.26627009493E+02  0.43480377155E+02  0.52485578187E+02  0.00000000000E+00 0. -1.
        -12    1    6    6    0    0 -0.97557618349E+01 -0.53290589114E+02  0.71521516417E+02  0.89723960499E+02  0.00000000000E+00 0.  1.
</event>
<event>
12    1  0.1681255E-001  0.1852155E+03  0.7818608E-02  0.1165808E+00
         21   -1    0    0  503  502  0.00000000000E+00  0.00000000000E+00  0.42787657108E+03  0.42787657108E+03  0.00000000000E+00 0.  1.
         21   -1    0    0  501  503 -0.00000000000E+00 -0.00000000000E+00 -0.99258309667E+02  0.99258309667E+02  0.00000000000E+00 0.  1.
          6    2    1    2  501    0  0.16896630065E+02  0.71293659472E+02  0.29731414104E+02  0.17551271665E+03  0.15669229315E+03 0.  0.
         24    2    3    3    0    0  0.53476651942E+02  0.92086766109E+02  0.18414321057E+02  0.13168786207E+03  0.75252116254E+02 0.  0.
         -6    2    1    2    0  502 -0.16896630065E+02 -0.71293659472E+02  0.29888684731E+03  0.35162216410E+03  0.17010736845E+03 0.  0.
        -24    2    5    5    0    0  0.24376855604E+01  0.26012995865E+02  0.11298806116E+03  0.14085487626E+03  0.79944830571E+02 0.  0.
          5    1    3    3  501    0 -0.36580021877E+02 -0.20793106637E+02  0.11317093047E+02  0.43824854582E+02  0.47000000000E+01 0. -1.
        -13    1    4    4    0    0 -0.11568300848E+02  0.72770546414E+01 -0.14429507806E+02  0.19874400727E+02  0.00000000000E+00 0.  1.
         14    1    4    4    0    0  0.65044952789E+02  0.84809711467E+02  0.32843828863E+02  0.11181346134E+03  0.00000000000E+00 0. -1.
         -5    1    5    5    0  502 -0.19334315626E+02 -0.97306655337E+02  0.18589878615E+03  0.21076728784E+03  0.47000000000E+01 0.  1.
         11    1    6    6    0    0 -0.37742584319E+02  0.21324344202E+02  0.52465291037E+02  0.68057601268E+02  0.00000000000E+00 0. -1.
        -12    1    6    6    0    0  0.40180269880E+02  0.46886516625E+01  0.60522770126E+02  0.72797274989E+02  0.00000000000E+00 0.  1.
</event>
<event>
12    1  0.1681255E-001  0.2307333E+03  0.7818608E-02  0.1126211E+00
         21   -1    0    0  503  502  0.00000000000E+00  0.00000000000E+00  0.79012728475E+03  0.79012728475E+03  0.00000000000E+00 0.  1.
         21   -1    0    0  501  503 -0.00000000000E+00 -0.00000000000E+00 -0.75809305353E+02  0.75809305353E+02  0.00000000000E+00 0.  1.
          6    2    1    2  501    0 -0.62263822809E+02 -0.14145667316E+03  0.21189256083E+03  0.31326714694E+03  0.17132155149E+03 0.  0.
         24    2    3    3    0    0 -0.84668511984E+02 -0.14277993601E+03  0.22250986136E+03  0.28799783369E+03  0.76663203414E+02 0.  0.
         -6    2    1    2    0  502  0.62263822809E+02  0.14145667316E+03  0.50242541857E+03  0.55266944316E+03  0.17066176539E+03 0.  0.
        -24    2    5    5    0    0  0.25121092023E+02  0.14347922287E+03  0.26796486605E+03  0.31522994804E+03  0.79670534351E+02 0.  0.
          5    1    3    3  501    0  0.22404689175E+02  0.13232628476E+01 -0.10617300533E+02  0.25269313251E+02  0.47000000000E+01 0. -1.
        -11    1    4    4    0    0 -0.20529333046E+02 -0.10629404031E+03  0.14531352321E+03  0.18120677843E+03  0.00000000000E+00 0.  1.
         12    1    4    4    0    0 -0.64139178938E+02 -0.36485895705E+02  0.77196338149E+02  0.10679105526E+03  0.00000000000E+00 0. -1.
         -5    1    5    5    0  502  0.37142730786E+02 -0.20225497050E+01  0.23446055251E+03  0.23743949512E+03  0.47000000000E+01 0.  1.
         13    1    6    6    0    0  0.27710307073E+02  0.19560643082E+02  0.10591482253E+03  0.11121344122E+03  0.00000000000E+00 0. -1.
        -14    1    6    6    0    0 -0.25892150497E+01  0.12391857979E+03  0.16205004353E+03  0.20401650683E+03  0.00000000000E+00 0.  1.
</event>
<event>
12    1  0.1681255E-001  0.3073727E+03  0.7818608E-02  0.1081915E+00
         21   -1    0    0  503  502  0.00000000000E+00  0.00000000000E+00  0.25536749624E+03  0.25536749624E+03  0.00000000000E+00 0.  1.
         21   -1    0    0  501  503 -0.00000000000E+00 -0.00000000000E+00 -0.60602432916E+03  0.60602432916E+03  0.00000000000E+00 0. -1.
          6    2    1    2  501    0  0.25177839716E+03  0.62141024525E+00 -0.44539532957E+03  0.53975015426E+03  0.17193162012E+03 0.  0.
         24    2    3    3    0    0  0.89821076410E+02 -0.33767088323E+02 -0.27578480776E+03  0.30267935959E+03  0.79683702910E+02 0.  0.
         -6    2    1    2    0  502 -0.25177839716E+03 -0.62141024525E+00  0.94738496645E+02  0.32164167114E+03  0.17631005202E+03 0.  0.
        -24    2    5    5    0    0 -0.11854231888E+03  0.65334006612E+02  0.64111160040E+02  0.16977958465E+03  0.79962820962E+02 0.  0.
          5    1    3    3  501    0  0.16195732075E+03  0.34388498568E+02 -0.16961052181E+03  0.23707079467E+03  0.47000000000E+01 0. -1.
        -13    1    4    4    0    0  0.56872936455E+02 -0.56163812291E+00 -0.63265439849E+02  0.85072687848E+02  0.00000000000E+00 0.  1.
         14    1    4    4    0    0  0.32948139955E+02 -0.33205450200E+02 -0.21251936791E+03  0.21760667174E+03  0.00000000000E+00 0. -1.
         -5    1    5    5    0  502 -0.13323607828E+03 -0.65955416857E+02  0.30627336605E+02  0.15186208650E+03  0.47000000000E+01 0.  1.
         11    1    6    6    0    0 -0.61032819298E+02  0.36577354833E+02 -0.97873572385E+01  0.71824092613E+02  0.00000000000E+00 0. -1.
        -12    1    6    6    0    0 -0.57509499582E+02  0.28756651779E+02  0.73898517279E+02  0.97955492034E+02  0.00000000000E+00 0.  1.
</event>
<event>
12    1  0.1681255E-001  0.1830877E+03  0.7818608E-02  0.1165426E+00
         21   -1    0    0  501  502  0.00000000000E+00  0.00000000000E+00  0.83642713742E+03  0.83642713742E+03  0.00000000000E+00 0.  1.
         21   -1    0    0  502  503 -0.00000000000E+00 -0.00000000000E+00 -0.64467935013E+02  0.64467935013E+02  0.00000000000E+00 0.  1.
         -6    2    1    2    0  503  0.37393341838E+02  0.40986892578E+02  0.10433960340E+03  0.20862558007E+03  0.17192932399E+03 0.  0.
        -24    2    3    3    0    0  0.40191006473E+00 -0.39967149916E+02  0.66919408515E+02  0.11195974327E+03  0.80369411294E+02 0.  0.
          6    2    1    2  501    0 -0.37393341838E+02 -0.40986892578E+02  0.66761959901E+03  0.69226949236E+03  0.17447903512E+03 0.  0.
         24    2    5    5    0    0  0.12774894147E+02 -0.83537685751E+02  0.45730127349E+03  0.47185327257E+03  0.79870603052E+02 0.  0.
          5    1    5    5  501    0 -0.50168235985E+02  0.42550793174E+02  0.21031832552E+03  0.22041621980E+03  0.47000000000E+01 0. -1.
        -11    1    6    6    0    0  0.41562450560E+01 -0.30621253412E+02  0.37272774190E+02  0.48416889917E+02  0.00000000000E+00 0.  1.
         12    1    6    6    0    0  0.86186490910E+01 -0.52916432340E+02  0.42002849930E+03  0.42343638265E+03  0.00000000000E+00 0. -1.
         -5    1    3    3    0  503  0.36991431773E+02  0.80954042494E+02  0.37420194886E+02  0.96665836809E+02  0.47000000000E+01 0.  1.
         11    1    4    4    0    0 -0.33540273315E+02 -0.38686780593E+01  0.48505644469E+02  0.59099189075E+02  0.00000000000E+00 0. -1.
        -12    1    4    4    0    0  0.33942183380E+02 -0.36098471857E+02  0.18413764047E+02  0.52860554190E+02  0.00000000000E+00 0.  1.
</event>
<event>
12    1  0.1681255E-001  0.1788526E+03  0.7818608E-02  0.1169088E+00
         21   -1    0    0  501  502  0.00000000000E+00  0.00000000000E+00  0.71776223891E+03  0.71776223891E+03  0.00000000000E+00 0.  1.
         21   -1    0    0  502  503 -0.00000000000E+00 -0.00000000000E+00 -0.47915550992E+02  0.47915550992E+02  0.00000000000E+00 0.  1.
         -6    2    1    2    0  503 -0.87030617233E+01 -0.47479020390E+02  0.43811345166E+03  0.47295174606E+03  0.17149331449E+03 0.  0.
        -24    2    3    3    0    0 -0.98195714888E+01 -0.64167425572E+02  0.44328401582E+03  0.45482513040E+03  0.78430211494E+02 0.  0.
          6    2    1    2  501    0  0.87030617233E+01  0.47479020390E+02  0.23173323626E+03  0.29272604385E+03  0.17221568830E+03 0.  0.
         24    2    5    5    0    0  0.45887876527E+02  0.93417346913E+01  0.56800379791E+02  0.10980322601E+03  0.81470854166E+02 0.  0.
          5    1    5    5  501    0 -0.37184814803E+02  0.38137285699E+02  0.17493285647E+03  0.18292281784E+03  0.47000000000E+01 0. -1.
        -11    1    6    6    0    0  0.17310223697E+02  0.15879175476E+02  0.72736738313E+02  0.76435758377E+02  0.00000000000E+00 0.  1.
         12    1    6    6    0    0  0.28577652830E+02 -0.65374407852E+01 -0.15936358522E+02  0.33367467633E+02  0.00000000000E+00 0. -1.
         -5    1    3    3    0  503  0.11165097655E+01  0.16688405183E+02 -0.51705641570E+01  0.18126615660E+02  0.47000000000E+01 0.  1.
         13    1    4    4    0    0 -0.12245261332E+02 -0.82338209863E+02  0.37449780355E+03  0.38363802222E+03  0.00000000000E+00 0. -1.
        -14    1    4    4    0    0  0.24256898428E+01  0.18170784291E+02  0.68786212266E+02  0.71187108178E+02  0.00000000000E+00 0.  1.
</event>
<event>
12    1  0.1681255E-001  0.2678625E+03  0.7818608E-02  0.1102605E+00
         21   -1    0    0  501  502  0.00000000000E+00  0.00000000000E+00  0.52001880478E+03  0.52001880478E+03  0.00000000000E+00 0. -1.
         21   -1    0    0  502  503 -0.00000000000E+00 -0.00000000000E+00 -0.22636777017E+03  0.22636777017E+03  0.00000000000E+00 0.  1.
         -6    2    1    2    0  503 -0.13760792553E+03  0.15268922419E+03 -0.86935237139E+02  0.28098756035E+03  0.17072297228E+03 0.  0.
        -24    2    3    3    0    0 -0.14440536184E+03  0.10773742672E+03 -0.16846823028E+02  0.19731352000E+03  0.78667325399E+02 0.  0.
          6    2    1    2  501    0  0.13760792553E+03 -0.15268922419E+03  0.38058627175E+03  0.46539901460E+03  0.17175678209E+03 0.  0.
         24    2    5    5    0    0  0.86048603836E+02 -0.11680626076E+02  0.12545727484E+03  0.16933367813E+03  0.73440911561E+02 0.  0.
          5    1    5    5  501    0  0.51559321692E+02 -0.14100859811E+03  0.25512899691E+03  0.29606533647E+03  0.47000000000E+01 0. -1.
        -13    1    6    6    0    0 -0.74933952720E+01  0.13210652073E+02  0.81182240662E+01  0.17221436145E+02  0.00000000000E+00 0.  1.
         14    1    6    6    0    0  0.93541999108E+02 -0.24891278149E+02  0.11733905078E+03  0.15211224199E+03  0.00000000000E+00 0. -1.
         -5    1    3    3    0  503  0.67974363120E+01  0.44951797473E+02 -0.70088414111E+02  0.83674040353E+02  0.47000000000E+01 0.  1.
         13    1    4    4    0    0 -0.49690394900E+02  0.71966436942E+02  0.19751030367E+02  0.89657161410E+02  0.00000000000E+00 0. -1.
        -14    1    4    4    0    0 -0.94714966940E+02  0.35770989773E+02 -0.36597853395E+02  0.10765635859E+03  0.00000000000E+00 0.  1.
</event>
<event>
12    1  0.1681255E-001  0.2951417E+03  0.7818608E-02  0.1087703E+00
         21   -1    0    0  501  502  0.00000000000E+00  0.00000000000E+00  0.10291471033E+04  0.10291471033E+04  0.00000000000E+00 0. -1.
         21   -1    0    0  502  503 -0.00000000000E+00 -0.00000000000E+00 -0.99399764363E+02  0.99399764363E+02  0.00000000000E+00 0. -1.
         -6    2    1    2    0  503  0.23334239173E+03 -0.59101882814E+02  0.24735470454E+03  0.38508823779E+03  0.17078318622E+03 0.  0.
        -24    2    3    3    0    0  0.12300808488E+03  0.34179173500E+02  0.12088135891E+03  0.19301374212E+03  0.79641677943E+02 0.  0.
          6    2    1    2  501    0 -0.23334239173E+03  0.59101882814E+02  0.68239263436E+03  0.74345862983E+03  0.17067314526E+03 0.  0.
         24    2    5    5    0    0 -0.67646939563E+02  0.64999847040E+02  0.36516095931E+03  0.38548126392E+03  0.80325525712E+02 0.  0.
          5    1    5    5  501    0 -0.16569545217E+03 -0.58979642258E+01  0.31723167505E+03  0.35797736591E+03  0.47000000000E+01 0. -1.
        -13    1    6    6    0    0 -0.21226514658E+02 -0.15771574891E+02  0.46630642367E+02  0.53607129252E+02  0.00000000000E+00 0.  1.
         14    1    6    6    0    0 -0.46420424904E+02  0.80771421931E+02  0.31853031695E+03  0.33187413467E+03  0.00000000000E+00 0. -1.
         -5    1    3    3    0  503  0.11033430685E+03 -0.93281056314E+02  0.12647334562E+03  0.19207449567E+03  0.47000000000E+01 0.  1.
         11    1    4    4    0    0  0.98296920350E+02 -0.10106873176E+02  0.89865078419E+02  0.13356708335E+03  0.00000000000E+00 0. -1.
        -12    1    4    4    0    0  0.24711164533E+02  0.44286046676E+02  0.31016280496E+02  0.59446658767E+02  0.00000000000E+00 0.  1.
</event>
<event>
12    1  0.1681255E-001  0.2375875E+03  0.7818608E-02  0.1121626E+00
         21   -1    0    0  503  502  0.00000000000E+00  0.00000000000E+00  0.11474665991E+03  0.11474665991E+03  0.00000000000E+00 0. -1.
         21   -1    0    0  501  503 -0.00000000000E+00 -0.00000000000E+00 -0.13328480110E+04  0.13328480110E+04  0.00000000000E+00 0.  1.
          6    2    1    2  501    0  0.16126711529E+03  0.14279649316E+02 -0.11842624740E+04  0.12076095061E+04  0.17213983038E+03 0.  0.
         24    2    3    3    0    0  0.74974288400E+01  0.24904653364E+02 -0.43345291852E+03  0.44112722602E+03  0.77687474943E+02 0.  0.
         -6    2    1    2    0  502 -0.16126711529E+03 -0.14279649316E+02 -0.33838877141E+02  0.23998516479E+03  0.17388737405E+03 0.  0.
        -24    2    5    5    0    0 -0.71945179575E+02 -0.73233921259E+02 -0.13625276460E+02  0.13096822100E+03  0.80173004606E+02 0.  0.
          5    1    3    3  501    0  0.15376968645E+03 -0.10625004047E+02 -0.75080955545E+03  0.76648228012E+03  0.47000000000E+01 0. -1.
        -11    1    4    4    0    0 -0.70221247922E+01  0.47350131218E+02 -0.17956263625E+03  0.18583348864E+03  0.00000000000E+00 0.  1.
         12    1    4    4    0    0  0.14519553632E+02 -0.22445477855E+02 -0.25389028226E+03  0.25529373737E+03  0.00000000000E+00 0. -1.
         -5    1    5    5    0  502 -0.89321935716E+02  0.58954271942E+02 -0.20213600681E+02  0.10901694379E+03  0.47000000000E+01 0.  1.
         13    1    6    6    0    0 -0.16643142488E+02  0.17232364964E+02 -0.58003245469E+01  0.24649388613E+02  0.00000000000E+00 0. -1.
        -14    1    6    6    0    0 -0.55302037086E+02 -0.90466286223E+02 -0.78249519127E+01  0.10631883239E+03  0.00000000000E+00 0.  1.
</event>
<event>
12    1  0.1681255E-001  0.1806031E+03  0.7818608E-02  0.1167356E+00
         21   -1    0    0  501  502  0.00000000000E+00  0.00000000000E+00  0.19372305765E+03  0.19372305765E+03  0.00000000000E+00 0. -1.
         21   -1    0    0  502  503 -0.00000000000E+00 -0.00000000000E+00 -0.28935546650E+03  0.28935546650E+03  0.00000000000E+00 0. -1.
         -6    2    1    2    0  503  0.35669576323E+02  0.42407090744E+02 -0.20438078858E+03  0.27274344342E+03  0.17189182402E+03 0.  0.
        -24    2    3    3    0    0 -0.11659829906E+02  0.36228084411E+02 -0.35234551231E+02  0.96928789811E+02  0.81885841024E+02 0.  0.
          6    2    1    2  501    0 -0.35669576323E+02 -0.42407090744E+02  0.10874837973E+03  0.21033508073E+03  0.17130077662E+03 0.  0.
         24    2    5    5    0    0 -0.60471845420E+01 -0.91225183492E+02  0.57093386168E+02  0.13319222212E+03  0.78242640200E+02 0.  0.
          5    1    5    5  501    0 -0.29622391781E+02  0.48818092748E+02  0.51654993562E+02  0.77142858608E+02  0.47000000000E+01 0. -1.
        -11    1    6    6    0    0  0.25586022102E+02 -0.76041979580E+02  0.21172570067E+02  0.82977737428E+02  0.00000000000E+00 0.  1.
         12    1    6    6    0    0 -0.31633206644E+02 -0.15183203911E+02  0.35920816101E+02  0.50214484693E+02  0.00000000000E+00 0. -1.
         -5    1    3    3    0  503  0.47329406230E+02  0.61790063327E+01 -0.16914623735E+03  0.17581465361E+03  0.47000000000E+01 0.  1.
         13    1    4    4    0    0 -0.53187048205E+01 -0.16262814647E+02  0.15912211832E+02  0.23365920624E+02  0.00000000000E+00 0. -1.
        -14    1    4    4    0    0 -0.63411250860E+01  0.52490899058E+02 -0.51146763063E+02  0.73562869188E+02  0.00000000000E+00 0.  1.
</event>
<event>
12    1  0.1681255E-001  0.3242945E+03  0.7818608E-02  0.1073706E+00
         21   -1    0    0  503  502  0.00000000000E+00  0.00000000000E+00  0.71758849137E+03  0.71758849137E+03  0.00000000000E+00 0. -1.
         21   -1    0    0  501  503 -0.00000000000E+00 -0.00000000000E+00 -0.20874545231E+03  0.20874545231E+03  0.00000000000E+00 0.  1.
          6    2    1    2  501    0  0.27038605722E+03  0.48262120239E+02  0.15231275287E+01  0.32429811667E+03  0.17242127586E+03 0.  0.
         24    2    3    3    0    0  0.11353500861E+03  0.85969940839E+02  0.40072069200E+01  0.16289058328E+03  0.78969965852E+02 0.  0.
         -6    2    1    2    0  502 -0.27038605722E+03 -0.48262120239E+02  0.50731991154E+03  0.60203582700E+03  0.17215049277E+03 0.  0.
        -24    2    5    5    0    0 -0.20746760798E+03  0.11277276322E+02  0.27634084418E+03  0.35530299466E+03  0.81889990416E+02 0.  0.
          5    1    3    3  501    0  0.15685104861E+03 -0.37707820600E+02 -0.24840793914E+01  0.16140753339E+03  0.47000000000E+01 0. -1.
        -13    1    4    4    0    0  0.27663540165E+02  0.70263674357E+02  0.34685218576E+01  0.75592896706E+02  0.00000000000E+00 0.  1.
         14    1    4    4    0    0  0.85871468447E+02  0.15706266482E+02  0.53868506244E+00  0.87297686576E+02  0.00000000000E+00 0. -1.
         -5    1    5    5    0  502 -0.62918449243E+02 -0.59539396561E+02  0.23097906736E+03  0.24673283234E+03  0.47000000000E+01 0.  1.
         11    1    6    6    0    0 -0.11804545333E+03  0.46621431022E+02  0.14874079775E+03  0.19553033472E+03  0.00000000000E+00 0. -1.
        -12    1    6    6    0    0 -0.89422154651E+02 -0.35344154701E+02  0.12760004643E+03  0.15977265994E+03  0.00000000000E+00 0.  1.
</event>
<event>
12    1  0.1681255E-001  0.1799572E+03  0.7818608E-02  0.1169459E+00
         21   -1    0    0  501  502  0.00000000000E+00  0.00000000000E+00  0.55547346242E+03  0.55547346242E+03  0.00000000000E+00 0.  1.
         21   -1    0    0  502  503 -0.00000000000E+00 -0.00000000000E+00 -0.64508605249E+02  0.64508605249E+02  0.00000000000E+00 0.  1.
         -6    2    1    2    0  503  0.49177552022E+02 -0.20601777294E+02  0.13030499079E+03  0.21691862696E+03  0.16501949959E+03 0.  0.
        -24    2    3    3    0    0  0.40169968014E+02 -0.43933137066E+02  0.16108894026E+02  0.99921501205E+02  0.78619737175E+02 0.  0.
          6    2    1    2  501    0 -0.49177552022E+02  0.20601777294E+02  0.36065986638E+03  0.40306344071E+03  0.17187708739E+03 0.  0.
         24    2    5    5    0    0 -0.18120136706E+02  0.17955648746E+01  0.35839004872E+03  0.36638267267E+03  0.73900422232E+02 0.  0.
          5    1    5    5  501    0 -0.31057415316E+02  0.18806212419E+02  0.22698176636E+01  0.36680768039E+02  0.47000000000E+01 0. -1.
        -11    1    6    6    0    0  0.70252475586E+01  0.23556165541E+02  0.28198933236E+03  0.28305870522E+03  0.00000000000E+00 0.  1.
         12    1    6    6    0    0 -0.25145384265E+02 -0.21760600666E+02  0.76400716362E+02  0.83323967451E+02  0.00000000000E+00 0. -1.
         -5    1    3    3    0  503  0.90075840082E+01  0.23331359772E+02  0.11419609676E+03  0.11699712575E+03  0.47000000000E+01 0.  1.
         13    1    4    4    0    0 -0.13898728976E+02 -0.17104957957E+02 -0.19851906701E+02  0.29662306949E+02  0.00000000000E+00 0. -1.
        -14    1    4    4    0    0  0.54068696990E+02 -0.26828179109E+02  0.35960800727E+02  0.70259194256E+02  0.00000000000E+00 0.  1.
</event>
<event>
12    1  0.1681255E-001  0.2766694E+03  0.7818608E-02  0.1097552E+00
         21   -1    0    0  503  502  0.00000000000E+00  0.00000000000E+00  0.38525993362E+03  0.38525993362E+03  0.00000000000E+00 0. -1.
         21   -1    0    0  501  503 -0.00000000000E+00 -0.00000000000E+00 -0.24892973440E+03  0.24892973440E+03  0.00000000000E+00 0.  1.
          6    2    1    2  501    0 -0.51061747245E+02 -0.21023650364E+03 -0.74533346038E+02  0.28632560986E+03  0.17210591418E+03 0.  0.
         24    2    3    3    0    0  0.95420680461E+01 -0.11051780138E+03 -0.97132346429E+02  0.16737416251E+03  0.79209734685E+02 0.  0.
         -6    2    1    2    0  502  0.51061747245E+02  0.21023650364E+03  0.21086354526E+03  0.34786405816E+03  0.17245080094E+03 0.  0.
        -24    2    5    5    0    0 -0.72395087640E+00  0.20481268541E+03  0.19465422979E+03  0.29312825414E+03  0.78007332926E+02 0.  0.
          5    1    3    3  501    0 -0.60603815291E+02 -0.99718702258E+02  0.22599000391E+02  0.11895144735E+03  0.47000000000E+01 0. -1.
        -11    1    4    4    0    0  0.16110923635E+02 -0.12153007458E+03 -0.81760703280E+02  0.14735648438E+03  0.00000000000E+00 0.  1.
         12    1    4    4    0    0 -0.65688555894E+01  0.11012273198E+02 -0.15371643149E+02  0.20017678133E+02  0.00000000000E+00 0. -1.
         -5    1    5    5    0  502  0.51785698121E+02  0.54238182305E+01  0.16209315474E+02  0.54735804025E+02  0.47000000000E+01 0.  1.
         11    1    6    6    0    0  0.33794822835E+02  0.61493505918E+02  0.46825365486E+02  0.84357312507E+02  0.00000000000E+00 0. -1.
        -12    1    6    6    0    0 -0.34518773711E+02  0.14331917949E+03  0.14782886430E+03  0.20877094163E+03  0.00000000000E+00 0.  1.
</event>
<event>
12    1  0.1681255E-001  0.1788201E+03  0.7818608E-02  0.1169011E+00
         21   -1    0    0  501  502  0.00000000000E+00  0.00000000000E+00  0.19028561390E+03  0.19028561390E+03  0.00000000000E+00 0.  1.
         21   -1    0    0  502  503 -0.00000000000E+00 -0.00000000000E+00 -0.18111742795E+03  0.18111742795E+03  0.00000000000E+00 0.  1.
         -6    2    1    2    0  503  0.48166122490E+01 -0.47884017990E+02  0.54917506720E+02  0.18682346743E+03  0.17196219499E+03 0.  0.
        -24    2    3    3    0    0 -0.28906952926E+02 -0.11515516303E+01  0.86256700281E+02  0.12105541049E+03  0.79857723905E+02 0.  0.
          6    2    1    2  501    0 -0.48166122490E+01  0.47884017990E+02 -0.45749320770E+02  0.18457957441E+03  0.17222235629E+03 0.  0.
         24    2    5    5    0    0 -0.17306170990E+01 -0.23248330312E+01 -0.87193556638E+02  0.11923306132E+03  0.81273653224E+02 0.  0.
          5    1    5    5  501    0 -0.30859951500E+01  0.50208851021E+02  0.41444235868E+02  0.65346513094E+02  0.47000000000E+01 0. -1.
        -13    1    6    6    0    0  0.21311261110E+02  0.30602094681E+02 -0.60220853680E+02  0.70832261483E+02  0.00000000000E+00 0.  1.
         14    1    6    6    0    0 -0.23041878209E+02 -0.32926927712E+02 -0.26972702958E+02  0.48400799836E+02  0.00000000000E+00 0. -1.
         -5    1    3    3    0  503  0.33723565175E+02 -0.46732466359E+02 -0.31339193561E+02  0.65768056937E+02  0.47000000000E+01 0.  1.
         11    1    4    4    0    0 -0.27759543608E+02  0.30608005292E+02  0.77922235390E+02  0.88200436606E+02  0.00000000000E+00 0. -1.
        -12    1    4    4    0    0 -0.11474093177E+01 -0.31759556922E+02  0.83344648915E+01  0.32854973886E+02  0.00000000000E+00 0.  1.
</event>
<event>
12    1  0.1681255E-001  0.1991858E+03  0.7818608E-02  0.1150533E+00
         21   -1    0    0  501  502  0.00000000000E+00  0.00000000000E+00  0.64458429912E+02  0.64458429912E+02  0.00000000000E+00 0.  1.
         21   -1    0    0  502  503 -0.00000000000E+00 -0.00000000000E+00 -0.10149459293E+04  0.10149459293E+04  0.00000000000E+00 0. -1.
         -6    2    1    2    0  503 -0.92875619163E+02  0.36881053003E+02 -0.81410760910E+03  0.83800336071E+03  0.17173334176E+03 0.  0.
        -24    2    3    3    0    0  0.11736652824E+02  0.67123091365E+01 -0.22910192920E+03  0.24293393950E+03  0.79664301178E+02 0.  0.
          6    2    1    2  501    0  0.92875619163E+02 -0.36881053003E+02 -0.13637989025E+03  0.24140099846E+03  0.17230459914E+03 0.  0.
         24    2    5    5    0    0  0.49028132280E+02 -0.51548512042E+02 -0.11038788896E+02  0.10772146319E+03  0.80131466498E+02 0.  0.
          5    1    5    5  501    0  0.43847486883E+02  0.14667459039E+02 -0.12534110135E+03  0.13367953527E+03  0.47000000000E+01 0. -1.
        -13    1    6    6    0    0  0.57289739274E+02 -0.21734115829E+02 -0.33176458673E+02  0.69679002770E+02  0.00000000000E+00 0.  1.
         14    1    6    6    0    0 -0.82616069946E+01 -0.29814396213E+02  0.22137669777E+02  0.38042460420E+02  0.00000000000E+00 0. -1.
         -5    1    3    3    0  503 -0.10461227199E+03  0.30168743866E+02 -0.58500567989E+03  0.59506942121E+03  0.47000000000E+01 0.  1.
         13    1    4    4    0    0  0.24085471484E+01  0.10796032701E+02 -0.23206521262E+03  0.23232868598E+03  0.00000000000E+00 0. -1.
        -14    1    4    4    0    0  0.93281056759E+01 -0.40837235647E+01  0.29632834132E+01  0.10605253521E+02  0.00000000000E+00 0.  1.
</event>
<event>
12    1  0.1681255E-001  0.2091543E+03  0.7818608E-02  0.1142553E+00
         21   -1    0    0  501  502  0.00000000000E+00  0.00000000000E+00  0.72785923222E+02  0.72785923222E+02  0.00000000000E+00 0. -1.
         21   -1    0    0  502  503 -0.00000000000E+00 -0.00000000000E+00 -0.60413918479E+03  0.60413918479E+03  0.00000000000E+00 0. -1.
         -6    2    1    2    0  503  0.31440928422E+02  0.11472021119E+03 -0.22657728903E+03  0.30728486735E+03  0.17011014951E+03 0.  0.
        -24    2    3    3    0    0  0.53452355318E+02  0.27781013156E+01 -0.93454229525E+02  0.13190135089E+03  0.76153799732E+02 0.  0.
          6    2    1    2  501    0 -0.31440928422E+02 -0.11472021119E+03 -0.30477597254E+03  0.36964024065E+03  0.17203562200E+03 0.  0.
         24    2    5    5    0    0 -0.62212163799E+02 -0.11645057115E+03 -0.16362624915E+03  0.22508852851E+03  0.80375415439E+02 0.  0.
          5    1    5    5  501    0  0.30771235377E+02  0.17303599607E+01 -0.14114972339E+03  0.14455171215E+03  0.47000000000E+01 0. -1.
        -11    1    6    6    0    0 -0.46859215861E+02 -0.59717155919E+02 -0.14459780909E+03  0.16331090355E+03  0.00000000000E+00 0.  1.
         12    1    6    6    0    0 -0.15352947938E+02 -0.56733415235E+02 -0.19028440056E+02  0.61777624959E+02  0.00000000000E+00 0. -1.
         -5    1    3    3    0  503 -0.22011426896E+02  0.11194210988E+03 -0.13312305950E+03  0.17538351647E+03  0.47000000000E+01 0.  1.
         13    1    4    4    0    0  0.44498199669E+01  0.34408513205E+02 -0.32532940838E+02  0.47561948218E+02  0.00000000000E+00 0. -1.
        -14    1    4    4    0    0  0.49002535351E+02 -0.31630411890E+02 -0.60921288687E+02  0.84339402669E+02  0.00000000000E+00 0.  1.
</event>
<event>
12    1  0.1681255E-001  0.2014077E+03  0.7818608E-02  0.1148755E+00
         21   -1    0    0  503  502  0.00000000000E+00  0.00000000000E+00  0.49321167473E+03  0.49321167473E+03  0.00000000000E+00 0. -1.
         21   -1    0    0  501  503 -0.00000000000E+00 -0.00000000000E+00 -0.16347498171E+03  0.16347498171E+03  0.00000000000E+00 0. -1.
          6    2    1    2  501    0 -0.48168930751E+02  0.92333515653E+02  0.39667244587E+03  0.44444750593E+03  0.17128582025E+03 0.  0.
         24    2    3    3    0    0 -0.96571032120E+02  0.48940595076E+02  0.29597185231E+03  0.32449581351E+03  0.77311380369E+02 0.  0.
         -6    2    1    2    0  502  0.48168930751E+02 -0.92333515653E+02 -0.66935752836E+02  0.21223915051E+03  0.17239297549E+03 0.  0.
        -24    2    5    5    0    0  0.55761980743E+02 -0.10825222926E+03 -0.34925601856E+01  0.14622257270E+03  0.80875825536E+02 0.  0.
          5    1    3    3  501    0  0.48402101369E+02  0.43392920577E+02  0.10070059356E+03  0.11995169243E+03  0.47000000000E+01 0. -1.
        -13    1    4    4    0    0  0.66190770579E+01  0.26168606541E+02  0.50969278813E+02  0.57675606041E+02  0.00000000000E+00 0.  1.
         14    1    4    4    0    0 -0.10319010918E+03  0.22771988535E+02  0.24500257350E+03  0.26682020747E+03  0.00000000000E+00 0. -1.
         -5    1    5    5    0  502 -0.75930499926E+01  0.15918713603E+02 -0.63443192651E+02  0.66016577802E+02  0.47000000000E+01 0.  1.
         13    1    6    6    0    0  0.47499966253E+02 -0.27104841198E+02  0.24581228206E+02  0.59959619666E+02  0.00000000000E+00 0. -1.
        -14    1    6    6    0    0  0.82620144904E+01 -0.81147388058E+02 -0.28073788392E+02  0.86262953037E+02  0.00000000000E+00 0.  1.
</event>
<event>
12    1  0.1681255E-001  0.1852870E+03  0.7818608E-02  0.1163239E+00
         21   -1    0    0  501  502  0.00000000000E+00  0.00000000000E+00  0.20648553878E+03  0.20648553878E+03  0.00000000000E+00 0. -1.
         21   -1    0    0  502  503 -0.00000000000E+00 -0.00000000000E+00 -0.52497177539E+03  0.52497177539E+03  0.00000000000E+00 0.  1.
         -6    2    1    2    0  503 -0.40341636036E+01  0.67439198377E+02  0.14354188614E+03  0.23438335638E+03  0.17253105436E+03 0.  0.
        -24    2    3    3    0    0 -0.36554348833E+02  0.98815596911E+02  0.77521341087E+02  0.15424071354E+03  0.81730635495E+02 0.  0.
          6    2    1    2  501    0  0.40341636036E+01 -0.67439198377E+02 -0.46202812275E+03  0.49707395779E+03  0.17043536414E+03 0.  0.
         24    2    5    5    0    0 -0.36818416373E+02 -0.82468984158E+02 -0.21816139487E+03  0.24930814353E+03  0.80021416416E+02 0.  0.
          5    1    5    5  501    0  0.40852579976E+02  0.15029785781E+02 -0.24386672788E+03  0.24776581426E+03  0.47000000000E+01 0. -1.
        -13    1    6    6    0    0  0.40202370278E+01 -0.51078651617E+02 -0.17423621248E+03  0.18161345956E+03  0.00000000000E+00 0.  1.
         14    1    6    6    0    0 -0.40838653400E+02 -0.31390332541E+02 -0.43925182395E+02  0.67694683965E+02  0.00000000000E+00 0. -1.
         -5    1    3    3    0  503  0.32520185229E+02 -0.31376398534E+02  0.66020545054E+02  0.80142642841E+02  0.47000000000E+01 0.  1.
         11    1    4    4    0    0 -0.11766205027E+02  0.67552558399E+02  0.89347953631E+02  0.11262703292E+03  0.00000000000E+00 0. -1.
        -12    1    4    4    0    0 -0.24788143806E+02  0.31263038512E+02 -0.11826612544E+02  0.41613680618E+02  0.00000000000E+00 0.  1.
</event>
<event>
12    1  0.1681255E-001  0.2264847E+03  0.7818608E-02  0.1129770E+00
         21   -1    0    0  503  502  0.00000000000E+00  0.00000000000E+00  0.41863316721E+03  0.41863316721E+03  0.00000000000E+00 0. -1.
         21   -1    0    0  501  503 -0.00000000000E+00 -0.00000000000E+00 -0.12079872378E+03  0.12079872378E+03  0.00000000000E+00 0. -1.
          6    2    1    2  501    0 -0.13977843550E+03 -0.20715054361E+02  0.14060056776E+03  0.26657797508E+03  0.17699766280E+03 0.  0.
         24    2    3    3    0    0 -0.10000634054E+02  0.11212010178E+01  0.10130511548E+03  0.12915409664E+03  0.79478201302E+02 0.  0.
         -6    2    1    2    0  502  0.13977843550E+03  0.20715054361E+02  0.15723387567E+03  0.27285391592E+03  0.17250983527E+03 0.  0.
        -24    2    5    5    0    0  0.75045092100E+02  0.72009218718E+02  0.56427013908E+02  0.14244835460E+03  0.79312246218E+02 0.  0.
          5    1    3    3  501    0 -0.12977780144E+03 -0.21836255379E+02  0.39295452278E+02  0.13742387844E+03  0.47000000000E+01 0. -1.
        -13    1    4    4    0    0  0.30526116938E+01 -0.15809240650E+02 -0.78586463993E+01  0.17916719881E+02  0.00000000000E+00 0.  1.
         14    1    4    4    0    0 -0.13053245747E+02  0.16930441668E+02  0.10916376188E+03  0.11123737675E+03  0.00000000000E+00 0. -1.
         -5    1    5    5    0  502  0.64733343398E+02 -0.51294164357E+02  0.10080686176E+03  0.13040556132E+03  0.47000000000E+01 0.  1.
         13    1    6    6    0    0  0.65286772552E+02  0.11043580459E+02  0.14404709942E+02  0.67762961919E+02  0.00000000000E+00 0. -1.
        -14    1    6    6    0    0  0.97583195480E+01  0.60965638259E+02  0.42022303966E+02  0.74685392678E+02  0.00000000000E+00 0.  1.
</event>
<event>
12    1  0.1681255E-001  0.2436431E+03  0.7818608E-02  0.1117537E+00
         21   -1    0    0  503  502  0.00000000000E+00  0.00000000000E+00  0.76155610279E+02  0.76155610279E+02  0.00000000000E+00 0. -1.
         21   -1    0    0  501  503 -0.00000000000E+00 -0.00000000000E+00 -0.81472353574E+03  0.81472353574E+03  0.00000000000E+00 0. -1.
          6    2    1    2  501    0  0.82977828560E+02  0.15048944690E+03 -0.46627816859E+03  0.52609626368E+03  0.17271234611E+03 0.  0.
         24    2    3    3    0    0  0.11190697344E+03  0.15729884996E+03 -0.43233582604E+03  0.48073729531E+03  0.83234498389E+02 0.  0.
         -6    2    1    2    0  502 -0.82977828560E+02 -0.15048944690E+03 -0.27228975688E+03  0.36478288234E+03  0.17144225235E+03 0.  0.
        -24    2    5    5    0    0 -0.11917545521E+03 -0.11301286133E+03 -0.16663395924E+03  0.24688462021E+03  0.78806366317E+02 0.  0.
          5    1    3    3  501    0 -0.28929144883E+02 -0.68094030688E+01 -0.33942342552E+02  0.45358968372E+02  0.47000000000E+01 0. -1.
        -13    1    4    4    0    0  0.32121510059E+02  0.55997406369E+02 -0.65796604142E+02  0.92177513772E+02  0.00000000000E+00 0.  1.
         14    1    4    4    0    0  0.79785463384E+02  0.10130144360E+03 -0.36653922189E+03  0.38855978154E+03  0.00000000000E+00 0. -1.
         -5    1    5    5    0  502  0.36197626648E+02 -0.37476585568E+02 -0.10565579763E+03  0.11789826213E+03  0.47000000000E+01 0.  1.
         11    1    6    6    0    0 -0.52459521369E+02 -0.11638025927E+02 -0.85222273257E+02  0.10074860242E+03  0.00000000000E+00 0. -1.
        -12    1    6    6    0    0 -0.66715933838E+02 -0.10137483540E+03 -0.81411685987E+02  0.14613601779E+03  0.00000000000E+00 0.  1.
</event>
<event>
12    1  0.1681255E-001  0.2426660E+03  0.7818608E-02  0.1118105E+00
         21   -1    0    0  503  502  0.00000000000E+00  0.00000000000E+00  0.69915229140E+02  0.69915229140E+02  0.00000000000E+00 0.  1.
         21   -1    0    0  501  503 -0.00000000000E+00 -0.00000000000E+00 -0.84711415091E+03  0.84711415091E+03  0.00000000000E+00 0. -1.
          6    2    1    2  501    0  0.36243828364E+00  0.17130864799E+03 -0.42895189324E+03  0.49283518644E+03  0.17187207462E+03 0.  0.
         24    2    3    3    0    0 -0.12041484022E+01  0.65130250301E+02 -0.87919507705E+02  0.13562168681E+03  0.80124918849E+02 0.  0.
         -6    2    1    2    0  502 -0.36243828364E+00 -0.17130864799E+03 -0.34824702853E+03  0.42419419362E+03  0.17122481356E+03 0.  0.
        -24    2    5    5    0    0 -0.60307585085E+02 -0.69705914568E+02 -0.14895853793E+03  0.19255972176E+03  0.79966749836E+02 0.  0.
          5    1    3    3  501    0  0.15665866858E+01  0.10617839769E+03 -0.34103238554E+03  0.35721349963E+03  0.47000000000E+01 0. -1.
        -13    1    4    4    0    0 -0.37382953219E+02  0.17183287421E+02 -0.49299800434E+02  0.64212310975E+02  0.00000000000E+00 0.  1.
         14    1    4    4    0    0  0.36178804817E+02  0.47946962880E+02 -0.38619707271E+02  0.71409375835E+02  0.00000000000E+00 0. -1.
         -5    1    5    5    0  502  0.59945146801E+02 -0.10160273342E+03 -0.19928849060E+03  0.23163447185E+03  0.47000000000E+01 0.  1.
         13    1    6    6    0    0 -0.44709512664E+01 -0.63592447857E+02 -0.96806631648E+02  0.11591165930E+03  0.00000000000E+00 0. -1.
        -14    1    6    6    0    0 -0.55836633818E+02 -0.61134667114E+01 -0.52151906280E+02  0.76648062468E+02  0.00000000000E+00 0.  1.
</event>
<event>
12    1  0.1681255E-001  0.2608107E+03  0.7818608E-02  0.1106705E+00
         21   -1    0    0  501  502  0.00000000000E+00  0.00000000000E+00  0.14876004114E+03  0.14876004114E+03  0.00000000000E+00 0. -1.
         21   -1    0    0  502  503 -0.00000000000E+00 -0.00000000000E+00 -0.63898452043E+03  0.63898452043E+03  0.00000000000E+00 0.  1.
         -6    2    1    2    0  503 -0.96203858784E+02 -0.17067468883E+03 -0.45537381098E+03  0.52461575909E+03  0.17167223162E+03 0.  0.
        -24    2    3    3    0    0 -0.86478906267E+02 -0.18793786883E+03 -0.33035788008E+03  0.39795216896E+03  0.80189501077E+02 0.  0.
          6    2    1    2  501    0  0.96203858784E+02  0.17067468883E+03 -0.34850668311E+02  0.26312880248E+03  0.17215448225E+03 0.  0.
         24    2    5    5    0    0  0.91434064694E+02  0.18308301527E+03 -0.65553053775E+02  0.22934353981E+03  0.80135371251E+02 0.  0.
          5    1    5    5  501    0  0.47697940902E+01 -0.12408326438E+02  0.30702385464E+02  0.33785262672E+02  0.47000000000E+01 0. -1.
        -11    1    6    6    0    0  0.61596504615E+02  0.51310444554E+02 -0.23994846655E+01  0.80203794348E+02  0.00000000000E+00 0.  1.
         12    1    6    6    0    0  0.29837560078E+02  0.13177257072E+03 -0.63153569110E+02  0.14913974546E+03  0.00000000000E+00 0. -1.
         -5    1    3    3    0  503 -0.97249525167E+01  0.17263180000E+02 -0.12501593090E+03  0.12666359013E+03  0.47000000000E+01 0.  1.
         11    1    4    4    0    0  0.14885335826E+02 -0.21378711128E+02 -0.51170175900E+02  0.57419590854E+02  0.00000000000E+00 0. -1.
        -12    1    4    4    0    0 -0.10136424209E+03 -0.16655915770E+03 -0.27918770418E+03  0.34053257811E+03  0.00000000000E+00 0.  1.
</event>
