<event>
12    1  0.1039610E+000  0.2158884E+03  0.7818608E-02  0.1136999E+00
         21   -1    0    0  503  502  0.00000000000E+00  0.00000000000E+00  0.88321543300E+03  0.88321543300E+03  0.00000000000E+00 0. -1.
         21   -1    0    0  501  503 -0.00000000000E+00 -0.00000000000E+00 -0.56242762220E+02  0.56242762220E+02  0.00000000000E+00 0. -1.
          6    2    1    2  501    0  0.11348295037E+03 -0.64744365951E+02  0.53053280449E+03  0.57277644451E+03  0.17186502202E+03 0.  0.
         24    2    3    3    0    0  0.12286643596E+03 -0.12567748640E+02  0.46855066067E+03  0.49107990023E+03  0.79784944675E+02 0.  0.
         -6    2    1    2    0  502 -0.11348295037E+03  0.64744365951E+02  0.29643986629E+03  0.36668175071E+03  0.17178096237E+03 0.  0.
        -24    2    5    5    0    0 -0.28752908171E+02  0.13651260024E+02  0.23385842599E+03  0.24951429706E+03  0.80960079070E+02 0.  0.
          5    1    3    3  501    0 -0.93834855842E+01 -0.52176617311E+02  0.61982143821E+02  0.81696544286E+02  0.47000000000E+01 0. -1.
        -11    1    4    4    0    0  0.65862500546E+02 -0.31707809958E+02  0.35647162662E+03  0.36388909680E+03  0.00000000000E+00 0.  1.
         12    1    4    4    0    0  0.57003935413E+02  0.19140061317E+02  0.11207903406E+03  0.12719080342E+03  0.00000000000E+00 0. -1.
         -5    1    5    5    0  502 -0.84730042203E+02  0.51093105927E+02  0.62581440300E+02  0.11716745365E+03  0.47000000000E+01 0.  1.
         13    1    6    6    0    0  0.28037840218E+02 -0.95148990132E+00  0.85652431970E+02  0.90129711635E+02  0.00000000000E+00 0. -1.
        -14    1    6    6    0    0 -0.56790748389E+02  0.14602749926E+02  0.14820599402E+03  0.15938458543E+03  0.00000000000E+00 0.  1.
</event>
<event>
12    1  0.1039610E+000  0.1726704E+03  0.7818608E-02  0.1175448E+00
         21   -1    0    0  503  502  0.00000000000E+00  0.00000000000E+00  0.46432508672E+03  0.46432508672E+03  0.00000000000E+00 0.  1.
         21   -1    0    0  501  503 -0.00000000000E+00 -0.00000000000E+00 -0.64631556903E+02  0.64631556903E+02  0.00000000000E+00 0.  1.
          6    2    1    2  501    0 -0.10656895512E+01 -0.44707013900E+01  0.23088708089E+03  0.28748057459E+03  0.17121656982E+03 0.  0.
         24    2    3    3    0    0 -0.27786980555E+02  0.59630715093E+02  0.14355236274E+03  0.17580039738E+03  0.77269401441E+02 0.  0.
         -6    2    1    2    0  502  0.10656895512E+01  0.44707013900E+01  0.16880644892E+03  0.24147606903E+03  0.17260924613E+03 0.  0.
        -24    2    5    5    0    0  0.43971618878E+02 -0.34857300666E+02  0.15182235448E+03  0.18066357047E+03  0.80254368715E+02 0.  0.
          5    1    3    3  501    0  0.26721291004E+02 -0.64101416483E+02  0.87334718147E+02  0.11168017721E+03  0.47000000000E+01 0. -1.
        -13    1    4    4    0    0  0.43491905214E+01  0.28090331070E+02  0.12311049161E+03  0.12634941750E+03  0.00000000000E+00 0.  1.
         14    1    4    4    0    0 -0.32136171076E+02  0.31540384023E+02  0.20441871132E+02  0.49450979880E+02  0.00000000000E+00 0. -1.
         -5    1    5    5    0  502 -0.42905929327E+02  0.39328002056E+02  0.16984094445E+02  0.60812498561E+02  0.47000000000E+01 0.  1.
         13    1    6    6    0    0  0.44597179985E+01 -0.53675246045E+02  0.76679240487E+02  0.93705000103E+02  0.00000000000E+00 0. -1.
        -14    1    6    6    0    0  0.39511900879E+02  0.18817945379E+02  0.75143113992E+02  0.86958570364E+02  0.00000000000E+00 0.  1.
</event>
<event>
12    1  0.1039610E+000  0.1790753E+03  0.7818608E-02  0.1168749E+00
         21   -1    0    0  503  502  0.00000000000E+00  0.00000000000E+00  0.43097322960E+03  0.43097322960E+03  0.00000000000E+00 0.  1.
         21   -1    0    0  501  503 -0.00000000000E+00 -0.00000000000E+00 -0.26435977750E+03  0.26435977750E+03  0.00000000000E+00 0.  1.
          6    2    1    2  501    0 -0.47330466804E+02  0.66869645759E+01  0.37808818645E+03  0.41835227478E+03  0.17257769409E+03 0.  0.
         24    2    3    3    0    0 -0.73999221133E+02  0.14112292660E+02  0.13665988858E+03  0.17529657959E+03  0.79861906659E+02 0.  0.
         -6    2    1    2    0  502  0.47330466804E+02 -0.66869645759E+01 -0.21147473436E+03  0.27698073231E+03  0.17237132656E+03 0.  0.
        -24    2    5    5    0    0 -0.14051977830E+02 -0.57376806531E+02 -0.13398433466E+03  0.16578668287E+03  0.77742306848E+02 0.  0.
          5    1    3    3  501    0  0.26668754329E+02 -0.74253280839E+01  0.24142829787E+03  0.24305569519E+03  0.47000000000E+01 0. -1.
        -13    1    4    4    0    0 -0.12131348831E+02  0.17400598861E+02  0.10225000522E+03  0.10442707519E+03  0.00000000000E+00 0.  1.
         14    1    4    4    0    0 -0.61867872302E+02 -0.32883062009E+01  0.34409883367E+02  0.70869504402E+02  0.00000000000E+00 0. -1.
         -5    1    5    5    0  502  0.61382444635E+02  0.50689841955E+02 -0.77490399698E+02  0.11119404945E+03  0.47000000000E+01 0.  1.
         11    1    6    6    0    0  0.20296194394E+02  0.62875812507E+01 -0.13252931001E+02  0.25042151764E+02  0.00000000000E+00 0. -1.
        -12    1    6    6    0    0 -0.34348172224E+02 -0.63664387781E+02 -0.12073140366E+03  0.14074453110E+03  0.00000000000E+00 0.  1.
</event>
<event>
12    1  0.1039610E+000  0.1898401E+03  0.7818608E-02  0.1158740E+00
         21   -1    0    0  501  502  0.00000000000E+00  0.00000000000E+00  0.31280509152E+03  0.31280509152E+03  0.00000000000E+00 0.  1.
         21   -1    0    0  502  503 -0.00000000000E+00 -0.00000000000E+00 -0.11951640992E+03  0.11951640992E+03  0.00000000000E+00 0.  1.
         -6    2    1    2    0  503  0.80315274881E+02  0.67442046293E+01  0.13948826734E+03  0.23557641821E+03  0.17188148363E+03 0.  0.
        -24    2    3    3    0    0  0.76469566320E+02  0.35185174910E+02  0.16094094174E+03  0.19943799677E+03  0.82388935654E+02 0.  0.
          6    2    1    2  501    0 -0.80315274881E+02 -0.67442046293E+01  0.53800414263E+02  0.19674508323E+03  0.17122533552E+03 0.  0.
         24    2    5    5    0    0 -0.23299553223E+02  0.55601757807E+02  0.14319212443E+02  0.10337128152E+03  0.82741509214E+02 0.  0.
          5    1    5    5  501    0 -0.57015721658E+02 -0.62345962437E+02  0.39481201821E+02  0.93373801709E+02  0.47000000000E+01 0. -1.
        -13    1    6    6    0    0 -0.73554139102E+01 -0.74811982383E+01  0.33848373417E+02  0.35437026171E+02  0.00000000000E+00 0.  1.
         14    1    6    6    0    0 -0.15944139313E+02  0.63082956046E+02 -0.19529160974E+02  0.67934255352E+02  0.00000000000E+00 0. -1.
         -5    1    3    3    0  503  0.38457085612E+01 -0.28440970281E+02 -0.21452674407E+02  0.36138421438E+02  0.47000000000E+01 0.  1.
         13    1    4    4    0    0 -0.86731657515E+01  0.25260881533E+02  0.16254720829E+02  0.31265826220E+02  0.00000000000E+00 0. -1.
        -14    1    4    4    0    0  0.85142732072E+02  0.99242933771E+01  0.14468622092E+03  0.16817217055E+03  0.00000000000E+00 0.  1.
</event>
<event>
12    1  0.1039610E+000  0.2309077E+03  0.7818608E-02  0.1126786E+00
         21   -1    0    0  503  502  0.00000000000E+00  0.00000000000E+00  0.28100258946E+03  0.28100258946E+03  0.00000000000E+00 0. -1.
         21   -1    0    0  501  503 -0.00000000000E+00 -0.00000000000E+00 -0.18707355912E+03  0.18707355912E+03  0.00000000000E+00 0. -1.
          6    2    1    2  501    0  0.14757095879E+03  0.17392233457E+02  0.64126777476E+02  0.23964680384E+03  0.17674464444E+03 0.  0.
         24    2    3    3    0    0  0.14399780231E+03  0.52479624944E+02  0.89285166103E+02  0.19607012422E+03  0.83559407723E+02 0.  0.
         -6    2    1    2    0  502 -0.14757095879E+03 -0.17392233457E+02  0.29802252865E+02  0.22842934474E+03  0.17091551597E+03 0.  0.
        -24    2    5    5    0    0 -0.10338357090E+03  0.51415089871E+02  0.40759351119E+02  0.14579084890E+03  0.79132627407E+02 0.  0.
          5    1    3    3  501    0  0.35731564779E+01 -0.35087391487E+02 -0.25158388627E+02  0.43576679622E+02  0.47000000000E+01 0. -1.
        -13    1    4    4    0    0  0.30491760680E+02 -0.22450345481E+02  0.12449278012E+02  0.39859126993E+02  0.00000000000E+00 0.  1.
         14    1    4    4    0    0  0.11350604163E+03  0.74929970425E+02  0.76835888091E+02  0.15621099722E+03  0.00000000000E+00 0. -1.
         -5    1    5    5    0  502 -0.44187387888E+02 -0.68807323328E+02 -0.10957098254E+02  0.82638495836E+02  0.47000000000E+01 0.  1.
         13    1    6    6    0    0 -0.10598757085E+03  0.34253789440E+02  0.54167068504E+02  0.12385781597E+03  0.00000000000E+00 0. -1.
        -14    1    6    6    0    0  0.26039999463E+01  0.17161300431E+02 -0.13407717385E+02  0.21933032934E+02  0.00000000000E+00 0.  1.
</event>
<event>
12    1  0.1039610E+000  0.1831452E+03  0.7818608E-02  0.1164810E+00
         21   -1    0    0  501  502  0.00000000000E+00  0.00000000000E+00  0.21520081245E+04  0.21520081245E+04  0.00000000000E+00 0. -1.
         21   -1    0    0  502  503 -0.00000000000E+00 -0.00000000000E+00 -0.17280775443E+02  0.17280775443E+02  0.00000000000E+00 0. -1.
         -6    2    1    2    0  503 -0.35778297321E+02  0.50686648546E+02  0.72730950501E+03  0.75001417753E+03  0.17231635884E+03 0.  0.
        -24    2    3    3    0    0  0.53773486882E+02 -0.34008251968E+00  0.36116948033E+03  0.36961457579E+03  0.57269866110E+02 0.  0.
          6    2    1    2  501    0  0.35778297321E+02 -0.50686648546E+02  0.14074178441E+04  0.14192747224E+04  0.17223973707E+03 0.  0.
         24    2    5    5    0    0  0.34841053798E+02 -0.35119684993E+02  0.13965069252E+04  0.13996699544E+04  0.79981859050E+02 0.  0.
          5    1    5    5  501    0  0.93724352310E+00 -0.15566963553E+02  0.10910918880E+02  0.19604768055E+02  0.47000000000E+01 0. -1.
        -13    1    6    6    0    0 -0.10117619248E+02  0.15148608506E+02  0.61155271751E+03  0.61182397211E+03  0.00000000000E+00 0.  1.
         14    1    6    6    0    0  0.44958673046E+02 -0.50268293499E+02  0.78495420767E+03  0.78784598225E+03  0.00000000000E+00 0. -1.
         -5    1    3    3    0  503 -0.89551784203E+02  0.51026731066E+02  0.36614002467E+03  0.38039960174E+03  0.47000000000E+01 0.  1.
         13    1    4    4    0    0  0.26409669031E+02 -0.17303514906E+01  0.31362908977E+03  0.31474381754E+03  0.00000000000E+00 0. -1.
        -14    1    4    4    0    0  0.27363817850E+02  0.13902689709E+01  0.47540390567E+02  0.54870758245E+02  0.00000000000E+00 0.  1.
</event>
<event>
12    1  0.1039610E+000  0.2045511E+03  0.7818608E-02  0.1146342E+00
         21   -1    0    0  501  502  0.00000000000E+00  0.00000000000E+00  0.25763039954E+03  0.25763039954E+03  0.00000000000E+00 0. -1.
         21   -1    0    0  502  503 -0.00000000000E+00 -0.00000000000E+00 -0.16815034249E+03  0.16815034249E+03  0.00000000000E+00 0. -1.
         -6    2    1    2    0  503 -0.10270978151E+03 -0.31542803197E+02  0.39022967548E+00  0.20267056462E+03  0.17184573848E+03 0.  0.
        -24    2    3    3    0    0 -0.11004826259E+02 -0.64769914169E+01 -0.48529277921E+02  0.95650463886E+02  0.81430109955E+02 0.  0.
          6    2    1    2  501    0  0.10270978151E+03  0.31542803197E+02  0.89089827369E+02  0.22311017742E+03  0.17406006514E+03 0.  0.
         24    2    5    5    0    0  0.72914183645E+02 -0.46046908684E+02  0.30176083957E+02  0.12112556973E+03  0.79523654492E+02 0.  0.
          5    1    5    5  501    0  0.29795597861E+02  0.77589711882E+02  0.58913743412E+02  0.10198460768E+03  0.47000000000E+01 0. -1.
        -11    1    6    6    0    0  0.50047371991E+02  0.11448381705E+02 -0.20097372898E+01  0.51379411547E+02  0.00000000000E+00 0.  1.
         12    1    6    6    0    0  0.22866811654E+02 -0.57495290390E+02  0.32185821247E+02  0.69746158185E+02  0.00000000000E+00 0. -1.
         -5    1    3    3    0  503 -0.91704955247E+02 -0.25065811780E+02  0.48919507597E+02  0.10702010073E+03  0.47000000000E+01 0.  1.
         11    1    4    4    0    0 -0.14170957443E+02  0.17332856900E+02  0.15522452323E+02  0.27243173260E+02  0.00000000000E+00 0. -1.
        -12    1    4    4    0    0  0.31661311835E+01 -0.23809848317E+02 -0.64051730244E+02  0.68407290626E+02  0.00000000000E+00 0.  1.
</event>
<event>
12    1  0.1039610E+000  0.3275206E+03  0.7818608E-02  0.1072261E+00
         21   -1    0    0  501  502  0.00000000000E+00  0.00000000000E+00  0.19179678279E+03  0.19179678279E+03  0.00000000000E+00 0. -1.
         21   -1    0    0  502  503 -0.00000000000E+00 -0.00000000000E+00 -0.61910865316E+03  0.61910865316E+03  0.00000000000E+00 0. -1.
         -6    2    1    2    0  503 -0.27793986722E+03  0.18833819933E+02 -0.33997690915E+03  0.47194060160E+03  0.17186724563E+03 0.  0.
        -24    2    3    3    0    0 -0.49233728477E+02  0.89431283805E+01 -0.76939084289E+02  0.12320673318E+03  0.82196939380E+02 0.  0.
          6    2    1    2  501    0  0.27793986722E+03 -0.18833819933E+02 -0.87334961222E+02  0.33896483435E+03  0.17223379723E+03 0.  0.
         24    2    5    5    0    0  0.19773693145E+03 -0.68996824226E+02 -0.96076022327E+02  0.24384735932E+03  0.79815266519E+02 0.  0.
          5    1    5    5  501    0  0.80202935774E+02  0.50163004293E+02  0.87410611058E+01  0.95117475028E+02  0.47000000000E+01 0. -1.
        -13    1    6    6    0    0  0.44200831493E+02 -0.32866815344E+02 -0.61144492788E+02  0.82295747483E+02  0.00000000000E+00 0.  1.
         14    1    6    6    0    0  0.15353609995E+03 -0.36130008882E+02 -0.34931529539E+02  0.16155161184E+03  0.00000000000E+00 0. -1.
         -5    1    3    3    0  503 -0.22870613874E+03  0.98906915527E+01 -0.26303782486E+03  0.34873386842E+03  0.47000000000E+01 0.  1.
         11    1    4    4    0    0 -0.20112342094E+02 -0.36339970221E+02 -0.25457482531E+02  0.48715327742E+02  0.00000000000E+00 0. -1.
        -12    1    4    4    0    0 -0.29121386382E+02  0.45283098602E+02 -0.51481601758E+02  0.74491405433E+02  0.00000000000E+00 0.  1.
</event>
<event>
12    1  0.1039610E+000  0.1755693E+03  0.7818608E-02  0.1172305E+00
         21   -1    0    0  501  502  0.00000000000E+00  0.00000000000E+00  0.11543053711E+04  0.11543053711E+04  0.00000000000E+00 0. -1.
         21   -1    0    0  502  503 -0.00000000000E+00 -0.00000000000E+00 -0.33823578508E+02  0.33823578508E+02  0.00000000000E+00 0. -1.
         -6    2    1    2    0  503 -0.33387113574E+02 -0.75575998034E+01  0.28530601365E+03  0.33469871772E+03  0.17161553995E+03 0.  0.
        -24    2    3    3    0    0 -0.78635054162E+02  0.23519479145E+02  0.15000751657E+03  0.18861335133E+03  0.79599645910E+02 0.  0.
          6    2    1    2  501    0  0.33387113574E+02  0.75575998034E+01  0.83517577891E+03  0.85343023185E+03  0.17219977437E+03 0.  0.
         24    2    5    5    0    0  0.22242046776E+02  0.66498043786E+02  0.39039405411E+03  0.40459723265E+03  0.79841747955E+02 0.  0.
          5    1    5    5  501    0  0.11145066798E+02 -0.58940443982E+02  0.44478172481E+03  0.44883299920E+03  0.47000000000E+01 0. -1.
        -11    1    6    6    0    0  0.32192089298E+02  0.45454353201E+02  0.11057245257E+03  0.12380911156E+03  0.00000000000E+00 0.  1.
         12    1    6    6    0    0 -0.99500425222E+01  0.21043690585E+02  0.27982160154E+03  0.28078812109E+03  0.00000000000E+00 0. -1.
         -5    1    3    3    0  503  0.45247940588E+02 -0.31077078949E+02  0.13529849708E+03  0.14608536639E+03  0.47000000000E+01 0.  1.
         13    1    4    4    0    0 -0.59267797710E+01  0.29656564134E+02  0.12064263036E+02  0.32560481527E+02  0.00000000000E+00 0. -1.
        -14    1    4    4    0    0 -0.72708274391E+02 -0.61370849889E+01  0.13794325353E+03  0.15605286980E+03  0.00000000000E+00 0.  1.
</event>
<event>
12    1  0.1039610E+000  0.1855085E+03  0.7818608E-02  0.1162624E+00
         21   -1    0    0  501  502  0.00000000000E+00  0.00000000000E+00  0.87588655532E+03  0.87588655532E+03  0.00000000000E+00 0.  1.
         21   -1    0    0  502  503 -0.00000000000E+00 -0.00000000000E+00 -0.54922252564E+02  0.54922252564E+02  0.00000000000E+00 0.  1.
         -6    2    1    2    0  503 -0.64121303631E+02  0.27815305835E+02  0.16167394719E+03  0.24591671269E+03  0.17161390259E+03 0.  0.
        -24    2    3    3    0    0 -0.66568954920E+02 -0.42221871300E+02  0.11681611909E+03  0.16257697475E+03  0.81062660116E+02 0.  0.
          6    2    1    2  501    0  0.64121303631E+02 -0.27815305835E+02  0.65929035556E+03  0.68489209519E+03  0.17183764517E+03 0.  0.
         24    2    5    5    0    0  0.58055778480E+02  0.24679849580E+02  0.21696919298E+03  0.23940064431E+03  0.79104168059E+02 0.  0.
          5    1    5    5  501    0  0.60655251506E+01 -0.52495155415E+02  0.44232116258E+03  0.44549145088E+03  0.47000000000E+01 0. -1.
        -11    1    6    6    0    0  0.24910453618E+02  0.67922675154E+01  0.19308141522E+03  0.19480015016E+03  0.00000000000E+00 0.  1.
         12    1    6    6    0    0  0.33145324862E+02  0.17887582065E+02  0.23887777751E+02  0.44600494147E+02  0.00000000000E+00 0. -1.
         -5    1    3    3    0  503  0.24476512897E+01  0.70037177136E+02  0.44857828105E+02  0.83339737942E+02  0.47000000000E+01 0.  1.
         13    1    4    4    0    0 -0.41604484774E+02  0.19831308826E+02  0.50968095655E+02  0.68716524488E+02  0.00000000000E+00 0. -1.
        -14    1    4    4    0    0 -0.24964470146E+02 -0.62053180126E+02  0.65848023435E+02  0.93860450264E+02  0.00000000000E+00 0.  1.
</event>
<event>
12    1  0.1039610E+000  0.1869610E+03  0.7818608E-02  0.1161441E+00
         21   -1    0    0  503  502  0.00000000000E+00  0.00000000000E+00  0.93467340639E+03  0.93467340639E+03  0.00000000000E+00 0. -1.
         21   -1    0    0  501  503 -0.00000000000E+00 -0.00000000000E+00 -0.48931887831E+02  0.48931887831E+02  0.00000000000E+00 0. -1.
          6    2    1    2  501    0  0.40056383832E+02 -0.57451368204E+02  0.68433796549E+03  0.70941726407E+03  0.17334713714E+03 0.  0.
         24    2    3    3    0    0 -0.12321814721E+02 -0.32009579601E+02  0.60414828760E+03  0.61020418665E+03  0.78597428023E+02 0.  0.
         -6    2    1    2    0  502 -0.40056383832E+02  0.57451368204E+02  0.20140355307E+03  0.27418803016E+03  0.17236737248E+03 0.  0.
        -24    2    5    5    0    0 -0.24504630161E+01 -0.12250296827E+02  0.16999434610E+03  0.18885834206E+03  0.81322328528E+02 0.  0.
          5    1    3    3  501    0  0.52378198552E+02 -0.25441788602E+02  0.80189677890E+02  0.99213077419E+02  0.47000000000E+01 0. -1.
        -11    1    4    4    0    0  0.24059358431E+02 -0.12295644127E+02  0.44316571030E+03  0.44398860613E+03  0.00000000000E+00 0.  1.
         12    1    4    4    0    0 -0.36381173152E+02 -0.19713935474E+02  0.16098257730E+03  0.16621558051E+03  0.00000000000E+00 0. -1.
         -5    1    5    5    0  502 -0.37605920816E+02  0.69701665030E+02  0.31409206973E+02  0.85329688099E+02  0.47000000000E+01 0.  1.
         11    1    6    6    0    0 -0.32164865382E+01 -0.31056537398E+02  0.18692827719E+02  0.36390604680E+02  0.00000000000E+00 0. -1.
        -12    1    6    6    0    0  0.76602352214E+00  0.18806240572E+02  0.15130151838E+03  0.15246773738E+03  0.00000000000E+00 0.  1.
</event>
<event>
12    1  0.1039610E+000  0.1754394E+03  0.7818608E-02  0.1172466E+00
         21   -1    0    0  503  502  0.00000000000E+00  0.00000000000E+00  0.79659542391E+03  0.79659542391E+03  0.00000000000E+00 0.  1.
         21   -1    0    0  501  503 -0.00000000000E+00 -0.00000000000E+00 -0.43523188150E+02  0.43523188150E+02  0.00000000000E+00 0.  1.
          6    2    1    2  501    0 -0.20026548785E+02  0.31593163687E+02  0.51879131257E+03  0.54743015532E+03  0.17069317005E+03 0.  0.
         24    2    3    3    0    0 -0.28663630109E+02 -0.39983481495E+02  0.21089955205E+03  0.23117512926E+03  0.80889040359E+02 0.  0.
         -6    2    1    2    0  502  0.20026548785E+02 -0.31593163687E+02  0.23428092318E+03  0.29268845674E+03  0.17140534149E+03 0.  0.
        -24    2    5    5    0    0  0.50652478738E+02  0.12157377597E+02  0.21562145210E+03  0.23592294512E+03  0.80333990286E+02 0.  0.
          5    1    3    3  501    0  0.86370813246E+01  0.71576645182E+02  0.30789176052E+03  0.31625502605E+03  0.47000000000E+01 0. -1.
        -11    1    4    4    0    0  0.25248916608E+02 -0.27192741333E+02  0.10960761695E+03  0.11571854936E+03  0.00000000000E+00 0.  1.
         12    1    4    4    0    0 -0.53912546717E+02 -0.12790740162E+02  0.10129193510E+03  0.11545657991E+03  0.00000000000E+00 0. -1.
         -5    1    5    5    0  502 -0.30625929954E+02 -0.43750541284E+02  0.18659471082E+02  0.56765511618E+02  0.47000000000E+01 0.  1.
         13    1    6    6    0    0  0.14359159428E+02  0.40917046795E+02  0.63379076571E+02  0.76793863849E+02  0.00000000000E+00 0. -1.
        -14    1    6    6    0    0  0.36293319310E+02 -0.28759669197E+02  0.15224237553E+03  0.15912908127E+03  0.00000000000E+00 0.  1.
</event>
<event>
12    1  0.1039610E+000  0.1770220E+03  0.7818608E-02  0.1171069E+00
         21   -1    0    0  503  502  0.00000000000E+00  0.00000000000E+00  0.93226433440E+03  0.93226433440E+03  0.00000000000E+00 0.  1.
         21   -1    0    0  501  503 -0.00000000000E+00 -0.00000000000E+00 -0.36802074285E+02  0.36802074285E+02  0.00000000000E+00 0.  1.
          6    2    1    2  501    0  0.31061609264E+02  0.31232779288E+02  0.59460957257E+03  0.61999748834E+03  0.16998832806E+03 0.  0.
         24    2    3    3    0    0 -0.70304442479E+01  0.77157718831E+02  0.31117081710E+03  0.33030847799E+03  0.79206518006E+02 0.  0.
         -6    2    1    2    0  502 -0.31061609264E+02 -0.31232779288E+02  0.30085268754E+03  0.34906892034E+03  0.17145396315E+03 0.  0.
        -24    2    5    5    0    0  0.68663199288E+00  0.27305272870E+02  0.73145448676E+02  0.11177726225E+03  0.79986563265E+02 0.  0.
          5    1    3    3  501    0  0.38092053512E+02 -0.45924939543E+02  0.28343875547E+03  0.28968901035E+03  0.47000000000E+01 0. -1.
        -13    1    4    4    0    0 -0.35035088758E+02  0.66676366066E+02  0.26334176783E+03  0.27390159167E+03  0.00000000000E+00 0.  1.
         14    1    4    4    0    0  0.28004644510E+02  0.10481352765E+02  0.47829049271E+02  0.56406886318E+02  0.00000000000E+00 0. -1.
         -5    1    5    5    0  502 -0.31748241257E+02 -0.58538052157E+02  0.22770723886E+03  0.23729165810E+03  0.47000000000E+01 0.  1.
         13    1    6    6    0    0 -0.39055739854E+02  0.12186694248E+02  0.26949885601E+02  0.48991455032E+02  0.00000000000E+00 0. -1.
        -14    1    6    6    0    0  0.39742371847E+02  0.15118578622E+02  0.46195563075E+02  0.62785807213E+02  0.00000000000E+00 0.  1.
</event>
<event>
12    1  0.1039610E+000  0.1776242E+03  0.7818608E-02  0.1170516E+00
         21   -1    0    0  501  502  0.00000000000E+00  0.00000000000E+00  0.13775049058E+03  0.13775049058E+03  0.00000000000E+00 0. -1.
         21   -1    0    0  502  503 -0.00000000000E+00 -0.00000000000E+00 -0.23337406931E+03  0.23337406931E+03  0.00000000000E+00 0. -1.
         -6    2    1    2    0  503 -0.44408134704E+02  0.31819846587E+01 -0.16918855922E+02  0.17684441156E+03  0.17030998433E+03 0.  0.
        -24    2    3    3    0    0 -0.30419679843E+02 -0.51054290475E+02 -0.50232038444E+02  0.11150599607E+03  0.79865086084E+02 0.  0.
          6    2    1    2  501    0  0.44408134704E+02 -0.31819846587E+01 -0.78704722807E+02  0.19428014833E+03  0.17195387518E+03 0.  0.
         24    2    5    5    0    0  0.26170654129E+02  0.16307054171E+02  0.23733149748E+02  0.88317720720E+02  0.79283883879E+02 0.  0.
          5    1    5    5  501    0  0.18237480575E+02 -0.19489038830E+02 -0.10243787255E+03  0.10596242761E+03  0.47000000000E+01 0. -1.
        -13    1    6    6    0    0  0.25811748529E+02 -0.22889168798E+02 -0.10724971090E+02  0.36127349961E+02  0.00000000000E+00 0.  1.
         14    1    6    6    0    0  0.35890560061E+00  0.39196222969E+02  0.34458120838E+02  0.52190370759E+02  0.00000000000E+00 0. -1.
         -5    1    3    3    0  503 -0.13988454862E+02  0.54236275134E+02  0.33313182522E+02  0.65338415496E+02  0.47000000000E+01 0.  1.
         13    1    4    4    0    0  0.20705647334E+02 -0.34672093993E+02 -0.38646467804E+01  0.40568626155E+02  0.00000000000E+00 0. -1.
        -14    1    4    4    0    0 -0.51125327177E+02 -0.16382196482E+02 -0.46367391663E+02  0.70937369913E+02  0.00000000000E+00 0.  1.
</event>
<event>
12    1  0.1039610E+000  0.3121622E+03  0.7818608E-02  0.1079661E+00
         21   -1    0    0  503  502  0.00000000000E+00  0.00000000000E+00  0.60130937280E+03  0.60130937280E+03  0.00000000000E+00 0.  1.
         21   -1    0    0  501  503 -0.00000000000E+00 -0.00000000000E+00 -0.20432406169E+03  0.20432406169E+03  0.00000000000E+00 0.  1.
          6    2    1    2  501    0  0.14134004881E+03 -0.21524860630E+03  0.38567362807E+03  0.49617473295E+03  0.17645465796E+03 0.  0.
         24    2    3    3    0    0  0.17176727693E+03 -0.17102676809E+03  0.28725024087E+03  0.38396671036E+03  0.78508476950E+02 0.  0.
         -6    2    1    2    0  502 -0.14134004881E+03  0.21524860630E+03  0.11311683043E+02  0.30945870154E+03  0.17125350179E+03 0.  0.
        -24    2    5    5    0    0 -0.14628616390E+03  0.13849389119E+03 -0.34655539705E+02  0.21973230680E+03  0.80629278621E+02 0.  0.
          5    1    3    3  501    0 -0.30427228125E+02 -0.44221838212E+02  0.98423387196E+02  0.11220802259E+03  0.47000000000E+01 0. -1.
        -13    1    4    4    0    0  0.44540609720E+02 -0.41475712985E+02  0.26874621860E+02  0.66530789729E+02  0.00000000000E+00 0.  1.
         14    1    4    4    0    0  0.12722666721E+03 -0.12955105511E+03  0.26037561901E+03  0.31743592063E+03  0.00000000000E+00 0. -1.
         -5    1    5    5    0  502  0.49461150969E+01  0.76754715115E+02  0.45967222748E+02  0.89726394746E+02  0.47000000000E+01 0.  1.
         13    1    6    6    0    0 -0.75623143902E+02  0.10293233380E+03  0.11335282893E+02  0.12822797617E+03  0.00000000000E+00 0. -1.
        -14    1    6    6    0    0 -0.70663020003E+02  0.35561557392E+02 -0.45990822598E+02  0.91504330626E+02  0.00000000000E+00 0.  1.
</event>
<event>
12    1  0.1039610E+000  0.3481068E+03  0.7818608E-02  0.1063432E+00
         21   -1    0    0  503  502  0.00000000000E+00  0.00000000000E+00  0.32774652545E+03  0.32774652545E+03  0.00000000000E+00 0.  1.
         21   -1    0    0  501  503 -0.00000000000E+00 -0.00000000000E+00 -0.44659959712E+03  0.44659959712E+03  0.00000000000E+00 0. -1.
          6    2    1    2  501    0  0.26981373374E+03 -0.13766560433E+03 -0.22047222660E+03  0.41205142544E+03  0.17154330348E+03 0.  0.
         24    2    3    3    0    0  0.81117448404E+02 -0.82139385006E+02 -0.13832526885E+03  0.19883871052E+03  0.84119164253E+02 0.  0.
         -6    2    1    2    0  502 -0.26981373374E+03  0.13766560433E+03  0.10161915494E+03  0.36229469713E+03  0.17082074051E+03 0.  0.
        -24    2    5    5    0    0 -0.26973156232E+03  0.15909150115E+03  0.82878383578E+02  0.33344366044E+03  0.79060905471E+02 0.  0.
          5    1    3    3  501    0  0.18869628534E+03 -0.55526219326E+02 -0.82146957754E+02  0.21321271492E+03  0.47000000000E+01 0. -1.
        -13    1    4    4    0    0  0.31922788538E+02 -0.41685163446E+02 -0.71118487714E+01  0.52983919000E+02  0.00000000000E+00 0.  1.
         14    1    4    4    0    0  0.49194659866E+02 -0.40454221560E+02 -0.13121342008E+03  0.14585479152E+03  0.00000000000E+00 0. -1.
         -5    1    5    5    0  502 -0.82171422119E-01 -0.21425896823E+02  0.18740771360E+02  0.28851036688E+02  0.47000000000E+01 0.  1.
         11    1    6    6    0    0 -0.10039944934E+03  0.49549515066E+02 -0.79842226319E+01  0.11224505192E+03  0.00000000000E+00 0. -1.
        -12    1    6    6    0    0 -0.16933211299E+03  0.10954198609E+03  0.90862606210E+02  0.22119860852E+03  0.00000000000E+00 0.  1.
</event>
<event>
12    1  0.1039610E+000  0.2064671E+03  0.7818608E-02  0.1144550E+00
         21   -1    0    0  503  502  0.00000000000E+00  0.00000000000E+00  0.70480231337E+02  0.70480231337E+02  0.00000000000E+00 0. -1.
         21   -1    0    0  501  503 -0.00000000000E+00 -0.00000000000E+00 -0.62831683090E+03  0.62831683090E+03  0.00000000000E+00 0.  1.
          6    2    1    2  501    0 -0.17238939839E+02  0.11233870512E+03 -0.20771263943E+03  0.29233003136E+03  0.17145011210E+03 0.  0.
         24    2    3    3    0    0  0.89296963455E+01  0.11406465110E+03 -0.77938730311E+02  0.15984933881E+03  0.79917966245E+02 0.  0.
         -6    2    1    2    0  502  0.17238939839E+02 -0.11233870512E+03 -0.35012396013E+03  0.40646703088E+03  0.17237022371E+03 0.  0.
        -24    2    5    5    0    0 -0.49161934509E+02 -0.88315034623E+02 -0.28253974835E+03  0.30861035742E+03  0.72077750831E+02 0.  0.
          5    1    3    3  501    0 -0.26168636185E+02 -0.17259459822E+01 -0.12977390912E+03  0.13248069255E+03  0.47000000000E+01 0. -1.
        -13    1    4    4    0    0 -0.39774487446E+01  0.12036486957E+03 -0.81036211465E+02  0.14515643111E+03  0.00000000000E+00 0.  1.
         14    1    4    4    0    0  0.12907145090E+02 -0.63002184697E+01  0.30974811539E+01  0.14692907699E+02  0.00000000000E+00 0. -1.
         -5    1    5    5    0  502  0.66400874349E+02 -0.24023670493E+02 -0.67584211780E+02  0.97856673457E+02  0.47000000000E+01 0.  1.
         11    1    6    6    0    0 -0.71635143003E+01  0.10153334097E+02 -0.10509645491E+02  0.16274482442E+02  0.00000000000E+00 0. -1.
        -12    1    6    6    0    0 -0.41998420209E+02 -0.98468368719E+02 -0.27203010286E+03  0.29233587498E+03  0.00000000000E+00 0.  1.
</event>
<event>
12    1  0.1039610E+000  0.3870769E+03  0.7818608E-02  0.1048671E+00
         21   -1    0    0  503  502  0.00000000000E+00  0.00000000000E+00  0.20456183147E+03  0.20456183147E+03  0.00000000000E+00 0.  1.
         21   -1    0    0  501  503 -0.00000000000E+00 -0.00000000000E+00 -0.73788157951E+03  0.73788157951E+03  0.00000000000E+00 0.  1.
          6    2    1    2  501    0  0.34061022215E+03 -0.50107520206E+02 -0.32595126473E+03  0.50331902964E+03  0.16899624731E+03 0.  0.
         24    2    3    3    0    0  0.24975426967E+03  0.25052892678E+02 -0.24783459023E+03  0.36179801848E+03  0.80442398077E+02 0.  0.
         -6    2    1    2    0  502 -0.34061022215E+03  0.50107520206E+02 -0.20736848331E+03  0.43912438134E+03  0.17692497676E+03 0.  0.
        -24    2    5    5    0    0 -0.28686232900E+03  0.66434655308E+02 -0.10527751503E+03  0.32250505548E+03  0.78883435623E+02 0.  0.
          5    1    3    3  501    0  0.90855952479E+02 -0.75160412884E+02 -0.78116674500E+02  0.14152101116E+03  0.47000000000E+01 0. -1.
        -11    1    4    4    0    0 -0.48802238747E+01 -0.50610274177E+00 -0.15120231383E+02  0.15896355624E+02  0.00000000000E+00 0.  1.
         12    1    4    4    0    0  0.25463449355E+03  0.25558995419E+02 -0.23271435884E+03  0.34590166285E+03  0.00000000000E+00 0. -1.
         -5    1    5    5    0  502 -0.53747893152E+02 -0.16327135102E+02 -0.10209096828E+03  0.11661932586E+03  0.47000000000E+01 0.  1.
         11    1    6    6    0    0 -0.24534586871E+03  0.39809399996E+02 -0.11219208812E+03  0.27270212368E+03  0.00000000000E+00 0. -1.
        -12    1    6    6    0    0 -0.41516460291E+02  0.26625255312E+02  0.69145730901E+01  0.49802931807E+02  0.00000000000E+00 0.  1.
</event>
<event>
12    1  0.1039610E+000  0.2300414E+03  0.7818608E-02  0.1126715E+00
         21   -1    0    0  503  502  0.00000000000E+00  0.00000000000E+00  0.29735303998E+02  0.29735303998E+02  0.00000000000E+00 0.  1.
         21   -1    0    0  501  503 -0.00000000000E+00 -0.00000000000E+00 -0.18941222326E+04  0.18941222326E+04  0.00000000000E+00 0. -1.
          6    2    1    2  501    0  0.10986503281E+03  0.10498194200E+03 -0.11722175240E+04  0.11944622174E+04  0.17191431477E+03 0.  0.
         24    2    3    3    0    0  0.11416056639E+03  0.21608252901E+02 -0.61240060522E+03  0.62843510127E+03  0.79978895414E+02 0.  0.
         -6    2    1    2    0  502 -0.10986503281E+03 -0.10498194200E+03 -0.69216940466E+03  0.72939531927E+03  0.17270643716E+03 0.  0.
        -24    2    5    5    0    0 -0.23764531458E+02 -0.91818225814E+01 -0.41165209610E+03  0.42068346394E+03  0.82873818490E+02 0.  0.
          5    1    3    3  501    0 -0.42955335854E+01  0.83373689100E+02 -0.55981691874E+03  0.56602711610E+03  0.47000000000E+01 0. -1.
        -11    1    4    4    0    0  0.81831943735E+02  0.25022943502E+02 -0.24337965165E+03  0.25798501808E+03  0.00000000000E+00 0.  1.
         12    1    4    4    0    0  0.32328622656E+02 -0.34146906010E+01 -0.36902095357E+03  0.37045008318E+03  0.00000000000E+00 0. -1.
         -5    1    5    5    0  502 -0.86100501347E+02 -0.95800119419E+02 -0.28051730857E+03  0.30871185532E+03  0.47000000000E+01 0.  1.
         13    1    6    6    0    0 -0.23505164296E+02 -0.37240524856E+02 -0.35219675678E+03  0.35493929752E+03  0.00000000000E+00 0. -1.
        -14    1    6    6    0    0 -0.25936716222E+00  0.28058702275E+02 -0.59455339319E+02  0.65744166420E+02  0.00000000000E+00 0.  1.
</event>
<event>
12    1  0.1039610E+000  0.1958918E+03  0.7818608E-02  0.1153868E+00
         21   -1    0    0  501  502  0.00000000000E+00  0.00000000000E+00  0.54645997863E+03  0.54645997863E+03  0.00000000000E+00 0. -1.
         21   -1    0    0  502  503 -0.00000000000E+00 -0.00000000000E+00 -0.89574703000E+02  0.89574703000E+02  0.00000000000E+00 0. -1.
         -6    2    1    2    0  503 -0.85901238205E+02 -0.31043705803E+02  0.75550843368E+02  0.20732786068E+03  0.17010049232E+03 0.  0.
        -24    2    3    3    0    0 -0.76407691053E+02 -0.77021448393E+02  0.85019543102E+02  0.15920482539E+03  0.79670665577E+02 0.  0.
          6    2    1    2  501    0  0.85901238205E+02  0.31043705803E+02  0.38133443226E+03  0.42870682095E+03  0.17329412772E+03 0.  0.
         24    2    5    5    0    0  0.12916348243E+02  0.72346361090E+02  0.17496125743E+03  0.20589595768E+03  0.79880384171E+02 0.  0.
          5    1    5    5  501    0  0.72984889962E+02 -0.41302655287E+02  0.20637317483E+03  0.22281086326E+03  0.47000000000E+01 0. -1.
        -13    1    6    6    0    0  0.11453813690E+02  0.27191960927E+02  0.15271208395E+03  0.15553640465E+03  0.00000000000E+00 0.  1.
         14    1    6    6    0    0  0.14625345532E+01  0.45154400164E+02  0.22249173478E+02  0.50359553035E+02  0.00000000000E+00 0. -1.
         -5    1    3    3    0  503 -0.94935471517E+01  0.45977742590E+02 -0.94686997341E+01  0.48123035293E+02  0.47000000000E+01 0.  1.
         11    1    4    4    0    0 -0.53195136199E+02 -0.60835559246E+02  0.98873139449E+02  0.12769724151E+03  0.00000000000E+00 0. -1.
        -12    1    4    4    0    0 -0.23212554854E+02 -0.16185889147E+02 -0.13853596348E+02  0.31507583882E+02  0.00000000000E+00 0.  1.
</event>
<event>
12    1  0.1039610E+000  0.4141447E+03  0.7818608E-02  0.1039570E+00
         21   -1    0    0  501  502  0.00000000000E+00  0.00000000000E+00  0.11518223887E+04  0.11518223887E+04  0.00000000000E+00 0. -1.
         21   -1    0    0  502  503 -0.00000000000E+00 -0.00000000000E+00 -0.15016312257E+03  0.15016312257E+03  0.00000000000E+00 0.  1.
         -6    2    1    2    0  503 -0.34418197704E+03  0.13376143468E+03  0.59950552033E+03  0.72471306978E+03  0.17160655549E+03 0.  0.
        -24    2    3    3    0    0 -0.30869933952E+03  0.13230215139E+03  0.43391223201E+03  0.55528941675E+03  0.85248869642E+02 0.  0.
          6    2    1    2  501    0  0.34418197704E+03 -0.13376143468E+03  0.40215374583E+03  0.57727244151E+03  0.18751661720E+03 0.  0.
         24    2    5    5    0    0  0.92894605619E+02 -0.10207794602E+03  0.17700209390E+03  0.23835572188E+03  0.80214675013E+02 0.  0.
          5    1    5    5  501    0  0.25128737142E+03 -0.31683488658E+02  0.22515165192E+03  0.33891671964E+03  0.47000000000E+01 0. -1.
        -11    1    6    6    0    0  0.30267679665E+01 -0.44250836654E+01  0.63504405426E+02  0.63730308318E+02  0.00000000000E+00 0.  1.
         12    1    6    6    0    0  0.89867837653E+02 -0.97652862353E+02  0.11349768848E+03  0.17462541356E+03  0.00000000000E+00 0. -1.
         -5    1    3    3    0  503 -0.35482637512E+02  0.14592832844E+01  0.16559328832E+03  0.16942365304E+03  0.47000000000E+01 0.  1.
         13    1    4    4    0    0 -0.71850182667E+02  0.61216817161E+02  0.16400203454E+03  0.18922635859E+03  0.00000000000E+00 0. -1.
        -14    1    4    4    0    0 -0.23684915686E+03  0.71085334230E+02  0.26991019748E+03  0.36606305816E+03  0.00000000000E+00 0.  1.
</event>
<event>
12    1  0.1039610E+000  0.3452291E+03  0.7818608E-02  0.1064641E+00
         21   -1    0    0  501  502  0.00000000000E+00  0.00000000000E+00  0.68914472219E+03  0.68914472219E+03  0.00000000000E+00 0.  1.
         21   -1    0    0  502  503 -0.00000000000E+00 -0.00000000000E+00 -0.17296603269E+03  0.17296603269E+03  0.00000000000E+00 0.  1.
         -6    2    1    2    0  503  0.22870813048E+03 -0.19224370272E+03  0.27472914570E+03  0.44082580569E+03  0.17200650360E+03 0.  0.
        -24    2    3    3    0    0  0.21471586305E+03 -0.99131640496E+02  0.19314939141E+03  0.31615429335E+03  0.81956487285E+02 0.  0.
          6    2    1    2  501    0 -0.22870813048E+03  0.19224370272E+03  0.24144954380E+03  0.42128494918E+03  0.17296842492E+03 0.  0.
         24    2    5    5    0    0 -0.81317494687E+02  0.12404166815E+03  0.63352864862E+02  0.18021227531E+03  0.80399056616E+02 0.  0.
          5    1    5    5  501    0 -0.14739063579E+03  0.68202034571E+02  0.17809667894E+03  0.24107267388E+03  0.47000000000E+01 0. -1.
        -13    1    6    6    0    0 -0.64437078898E+01  0.82650185919E+02  0.26224415725E+02  0.86949954479E+02  0.00000000000E+00 0.  1.
         14    1    6    6    0    0 -0.74873786797E+02  0.41391482234E+02  0.37128449137E+02  0.93262320828E+02  0.00000000000E+00 0. -1.
         -5    1    3    3    0  503  0.13992267432E+02 -0.93112062228E+02  0.81579754284E+02  0.12467151234E+03  0.47000000000E+01 0.  1.
         13    1    4    4    0    0  0.13081275792E+03 -0.82394781741E+02  0.79328716530E+02  0.17376398637E+03  0.00000000000E+00 0. -1.
        -14    1    4    4    0    0  0.83903105132E+02 -0.16736858755E+02  0.11382067488E+03  0.14239030698E+03  0.00000000000E+00 0.  1.
</event>
<event>
12    1  0.1039610E+000  0.2095443E+03  0.7818608E-02  0.1142334E+00
         21   -1    0    0  501  502  0.00000000000E+00  0.00000000000E+00  0.45656113549E+03  0.45656113549E+03  0.00000000000E+00 0.  1.
         21   -1    0    0  502  503 -0.00000000000E+00 -0.00000000000E+00 -0.11934914561E+03  0.11934914561E+03  0.00000000000E+00 0.  1.
         -6    2    1    2    0  503  0.44534750465E+02 -0.10905503636E+03  0.29736991970E+03  0.36261191777E+03  0.17082795092E+03 0.  0.
        -24    2    3    3    0    0  0.50131399667E+02 -0.13400704903E+03  0.29389980065E+03  0.33638107439E+03  0.79398286882E+02 0.  0.
          6    2    1    2  501    0 -0.44534750465E+02  0.10905503636E+03  0.39842070182E+02  0.21329836333E+03  0.17329874866E+03 0.  0.
         24    2    5    5    0    0  0.27561880408E+02  0.10779260186E+03  0.36283251868E+02  0.14095008683E+03  0.78559215530E+02 0.  0.
          5    1    5    5  501    0 -0.72096630873E+02  0.12624344990E+01  0.35588183141E+01  0.72348276496E+02  0.47000000000E+01 0. -1.
        -11    1    6    6    0    0  0.11783921903E+02  0.30972859209E+02  0.51328524797E+02  0.61096614316E+02  0.00000000000E+00 0.  1.
         12    1    6    6    0    0  0.15777958506E+02  0.76819742648E+02 -0.15045272929E+02  0.79853472515E+02  0.00000000000E+00 0. -1.
         -5    1    3    3    0  503 -0.55966492016E+01  0.24952012670E+02  0.34701190461E+01  0.26230843387E+02  0.47000000000E+01 0.  1.
         11    1    4    4    0    0  0.49747089085E+02 -0.10854309076E+03  0.15759922608E+03  0.19772175268E+03  0.00000000000E+00 0. -1.
        -12    1    4    4    0    0  0.38431058171E+00 -0.25463958267E+02  0.13630057458E+03  0.13865932170E+03  0.00000000000E+00 0.  1.
</event>
<event>
12    1  0.1039610E+000  0.1909550E+03  0.7818608E-02  0.1157743E+00
         21   -1    0    0  503  502  0.00000000000E+00  0.00000000000E+00  0.95422486805E+02  0.95422486805E+02  0.00000000000E+00 0.  1.
         21   -1    0    0  501  503 -0.00000000000E+00 -0.00000000000E+00 -0.40344962989E+03  0.40344962989E+03  0.00000000000E+00 0.  1.
          6    2    1    2  501    0  0.81661496763E+02  0.24697691987E+02 -0.21324670443E+03  0.28624807123E+03  0.17083683821E+03 0.  0.
         24    2    3    3    0    0 -0.13593816561E+02  0.14396583878E+02 -0.57249615480E+02  0.10311732748E+03  0.83448255092E+02 0.  0.
         -6    2    1    2    0  502 -0.81661496763E+02 -0.24697691987E+02 -0.94780438656E+02  0.21262404547E+03  0.17013840577E+03 0.  0.
        -24    2    5    5    0    0 -0.71511615790E+02 -0.75085024069E+02 -0.39717799814E+02  0.13715294163E+03  0.80509339482E+02 0.  0.
          5    1    3    3  501    0  0.95255313324E+02  0.10301108109E+02 -0.15599708895E+03  0.18313074375E+03  0.47000000000E+01 0. -1.
        -11    1    4    4    0    0 -0.29364437567E+01  0.49208532267E+02 -0.30980212078E+02  0.58222640701E+02  0.00000000000E+00 0.  1.
         12    1    4    4    0    0 -0.10657372805E+02 -0.34811948390E+02 -0.26269403403E+02  0.44894686778E+02  0.00000000000E+00 0. -1.
         -5    1    5    5    0  502 -0.10149880973E+02  0.50387332082E+02 -0.55062638843E+02  0.75471103838E+02  0.47000000000E+01 0.  1.
         13    1    6    6    0    0 -0.50258711561E+02 -0.26995569284E+02 -0.58127737434E+02  0.81446502122E+02  0.00000000000E+00 0. -1.
        -14    1    6    6    0    0 -0.21252904229E+02 -0.48089454785E+02  0.18409937620E+02  0.55706439510E+02  0.00000000000E+00 0.  1.
</event>
<event>
12    1  0.1039610E+000  0.1723770E+03  0.7818608E-02  0.1175880E+00
         21   -1    0    0  503  502  0.00000000000E+00  0.00000000000E+00  0.48236388909E+02  0.48236388909E+02  0.00000000000E+00 0.  1.
         21   -1    0    0  501  503 -0.00000000000E+00 -0.00000000000E+00 -0.62094259821E+03  0.62094259821E+03  0.00000000000E+00 0.  1.
          6    2    1    2  501    0  0.87257023984E+01  0.62702370203E+01 -0.33072178331E+03  0.37207580586E+03  0.17014127540E+03 0.  0.
         24    2    3    3    0    0  0.57320820655E+01  0.49985325798E+02 -0.10082047799E+03  0.13798891827E+03  0.79654147568E+02 0.  0.
         -6    2    1    2    0  502 -0.87257023984E+01 -0.62702370203E+01 -0.24198442599E+03  0.29710318126E+03  0.17204180928E+03 0.  0.
        -24    2    5    5    0    0 -0.41730074942E+02  0.30950225858E+02 -0.71398081599E+02  0.11934929985E+03  0.80294792381E+02 0.  0.
          5    1    3    3  501    0  0.29936203328E+01 -0.43715088777E+02 -0.22990130532E+03  0.23408688759E+03  0.47000000000E+01 0. -1.
        -11    1    4    4    0    0  0.30202042696E+02 -0.24894935425E+00 -0.10877353524E+02  0.32102058789E+02  0.00000000000E+00 0.  1.
         12    1    4    4    0    0 -0.24469960631E+02  0.50234275152E+02 -0.89943124462E+02  0.10588685948E+03  0.00000000000E+00 0. -1.
         -5    1    5    5    0  502  0.33004372543E+02 -0.37220462878E+02 -0.17058634439E+03  0.17775388141E+03  0.47000000000E+01 0.  1.
         11    1    6    6    0    0 -0.27004814183E+02 -0.24590991639E+02 -0.38801318324E+02  0.53287138809E+02  0.00000000000E+00 0. -1.
        -12    1    6    6    0    0 -0.14725260759E+02  0.55541217497E+02 -0.32596763275E+02  0.66062161041E+02  0.00000000000E+00 0.  1.
</event>
<event>
12    1  0.1039610E+000  0.2957124E+03  0.7818608E-02  0.1087472E+00
         21   -1    0    0  503  502  0.00000000000E+00  0.00000000000E+00  0.97934248754E+02  0.97934248754E+02  0.00000000000E+00 0. -1.
         21   -1    0    0  501  503 -0.00000000000E+00 -0.00000000000E+00 -0.12434887870E+04  0.12434887870E+04  0.00000000000E+00 0. -1.
          6    2    1    2  501    0  0.23675920963E+03 -0.39922993751E+02 -0.21545447861E+03  0.36544560061E+03  0.17170057040E+03 0.  0.
         24    2    3    3    0    0  0.17263819761E+03 -0.33389944991E+02 -0.22898847637E+03  0.29941951483E+03  0.79356712672E+02 0.  0.
         -6    2    1    2    0  502 -0.23675920963E+03  0.39922993751E+02 -0.93010005969E+03  0.97597743520E+03  0.17261826151E+03 0.  0.
        -24    2    5    5    0    0 -0.19589507010E+03 -0.29466812282E+02 -0.70251682916E+03  0.73452135245E+03  0.82149561333E+02 0.  0.
          5    1    3    3  501    0  0.64121012018E+02 -0.65330487601E+01  0.13533997761E+02  0.66026085782E+02  0.47000000000E+01 0. -1.
        -13    1    4    4    0    0  0.85797421815E+02 -0.84115778685E+01 -0.17253202230E+03  0.19287107339E+03  0.00000000000E+00 0.  1.
         14    1    4    4    0    0  0.86840775799E+02 -0.24978367123E+02 -0.56456454066E+02  0.10654844143E+03  0.00000000000E+00 0. -1.
         -5    1    5    5    0  502 -0.40864139533E+02  0.69389806034E+02 -0.22758323053E+03  0.24145608275E+03  0.47000000000E+01 0.  1.
         11    1    6    6    0    0 -0.53111206440E+02 -0.26132070177E+02 -0.33574148442E+03  0.34091938886E+03  0.00000000000E+00 0. -1.
        -12    1    6    6    0    0 -0.14278386366E+03 -0.33347421052E+01 -0.36677534474E+03  0.39360196358E+03  0.00000000000E+00 0.  1.
</event>
<event>
12    1  0.1039610E+000  0.1803489E+03  0.7818608E-02  0.1167617E+00
         21   -1    0    0  501  502  0.00000000000E+00  0.00000000000E+00  0.13736392207E+02  0.13736392207E+02  0.00000000000E+00 0. -1.
         21   -1    0    0  502  503 -0.00000000000E+00 -0.00000000000E+00 -0.23597820364E+04  0.23597820364E+04  0.00000000000E+00 0. -1.
         -6    2    1    2    0  503  0.31926613518E+02 -0.47441781517E+02 -0.11654515475E+04  0.11793231253E+04  0.17104295651E+03 0.  0.
        -24    2    3    3    0    0 -0.86142329347E+01  0.55437716320E+01 -0.95770910668E+03  0.96108004798E+03  0.79769588116E+02 0.  0.
          6    2    1    2  501    0 -0.31926613518E+02  0.47441781517E+02 -0.11805940967E+04  0.11941953033E+04  0.17038183604E+03 0.  0.
         24    2    5    5    0    0 -0.86165660172E+02  0.21705165194E+02 -0.77553261762E+03  0.78468200753E+03  0.79871000774E+02 0.  0.
          5    1    5    5  501    0  0.54239046654E+02  0.25736616323E+02 -0.40506147905E+03  0.40951329576E+03  0.47000000000E+01 0. -1.
        -11    1    6    6    0    0  0.48961160325E+00 -0.66765838163E+01 -0.32220935487E+03  0.32227889298E+03  0.00000000000E+00 0.  1.
         12    1    6    6    0    0 -0.86655271775E+02  0.28381749010E+02 -0.45332326275E+03  0.46240311456E+03  0.00000000000E+00 0. -1.
         -5    1    3    3    0  503  0.40540846453E+02 -0.52985553149E+02 -0.20774244080E+03  0.21824307729E+03  0.47000000000E+01 0.  1.
         13    1    4    4    0    0  0.19773922658E+02  0.34523573784E+02 -0.45391160935E+03  0.45565187838E+03  0.00000000000E+00 0. -1.
        -14    1    4    4    0    0 -0.28388155593E+02 -0.28979802152E+02 -0.50379749733E+03  0.50542816960E+03  0.00000000000E+00 0.  1.
</event>
<event>
12    1  0.1039610E+000  0.2022138E+03  0.7818608E-02  0.1148206E+00
         21   -1    0    0  503  502  0.00000000000E+00  0.00000000000E+00  0.76705612979E+03  0.76705612979E+03  0.00000000000E+00 0. -1.
         21   -1    0    0  501  503 -0.00000000000E+00 -0.00000000000E+00 -0.54625060214E+02  0.54625060214E+02  0.00000000000E+00 0. -1.
          6    2    1    2  501    0 -0.10259012691E+03  0.20196526914E+02  0.28458553190E+03  0.34911220614E+03  0.17308314092E+03 0.  0.
         24    2    3    3    0    0 -0.13323038922E+03 -0.10189881512E+02  0.24495232822E+03  0.29033261508E+03  0.80232250253E+02 0.  0.
         -6    2    1    2    0  502  0.10259012691E+03 -0.20196526914E+02  0.42784553767E+03  0.47256898386E+03  0.17128049089E+03 0.  0.
        -24    2    5    5    0    0  0.12891861744E+03 -0.35010666341E+02  0.27091122591E+03  0.31268428682E+03  0.80825826429E+02 0.  0.
          5    1    3    3  501    0  0.30640262310E+02  0.30386408426E+02  0.39633203683E+02  0.58779591064E+02  0.47000000000E+01 0. -1.
        -11    1    4    4    0    0 -0.73337348075E+00  0.10210897060E+02  0.65714576642E+02  0.66507186369E+02  0.00000000000E+00 0.  1.
         12    1    4    4    0    0 -0.13249701574E+03 -0.20400778572E+02  0.17923775158E+03  0.22382542871E+03  0.00000000000E+00 0. -1.
         -5    1    5    5    0  502 -0.26328490528E+02  0.14814139426E+02  0.15693431176E+03  0.15988469704E+03  0.47000000000E+01 0.  1.
         13    1    6    6    0    0  0.13702972744E+01 -0.15770140575E+02  0.41367520945E+01  0.16361166409E+02  0.00000000000E+00 0. -1.
        -14    1    6    6    0    0  0.12754832016E+03 -0.19240525766E+02  0.26677447382E+03  0.29632312041E+03  0.00000000000E+00 0.  1.
</event>
<event>
12    1  0.1039610E+000  0.3016523E+03  0.7818608E-02  0.1084528E+00
         21   -1    0    0  501  502  0.00000000000E+00  0.00000000000E+00  0.73472787695E+03  0.73472787695E+03  0.00000000000E+00 0. -1.
         21   -1    0    0  502  503 -0.00000000000E+00 -0.00000000000E+00 -0.13160235386E+03  0.13160235386E+03  0.00000000000E+00 0. -1.
         -6    2    1    2    0  503  0.56588788949E+02 -0.24043710273E+03  0.40958010697E+03  0.50867474834E+03  0.17315266146E+03 0.  0.
        -24    2    3    3    0    0 -0.89646952227E+01 -0.19536249939E+03  0.23110395801E+03  0.31321425386E+03  0.80294816062E+02 0.  0.
          6    2    1    2  501    0 -0.56588788949E+02  0.24043710273E+03  0.19354541611E+03  0.35765548247E+03  0.17159640042E+03 0.  0.
         24    2    5    5    0    0 -0.39703547215E+02  0.25949570222E+03  0.17844752617E+03  0.32768252993E+03  0.81350658843E+02 0.  0.
          5    1    5    5  501    0 -0.16885241734E+02 -0.19058599489E+02  0.15097889947E+02  0.29972952537E+02  0.47000000000E+01 0. -1.
        -13    1    6    6    0    0 -0.57220338161E+02  0.13277889027E+03  0.11581954934E+03  0.18525271607E+03  0.00000000000E+00 0.  1.
         14    1    6    6    0    0  0.17516790946E+02  0.12671681195E+03  0.62627976827E+02  0.14242981386E+03  0.00000000000E+00 0. -1.
         -5    1    3    3    0  503  0.65553484172E+02 -0.45074603340E+02  0.17847614897E+03  0.19546049448E+03  0.47000000000E+01 0.  1.
         13    1    4    4    0    0 -0.20103129144E+02 -0.80665358499E+02  0.15261022793E+03  0.17378411185E+03  0.00000000000E+00 0. -1.
        -14    1    4    4    0    0  0.11138433922E+02 -0.11469714089E+03  0.78493730074E+02  0.13943014201E+03  0.00000000000E+00 0.  1.
</event>
<event>
12    1  0.1039610E+000  0.2238148E+03  0.7818608E-02  0.1131377E+00
         21   -1    0    0  503  502  0.00000000000E+00  0.00000000000E+00  0.42960877439E+03  0.42960877439E+03  0.00000000000E+00 0.  1.
         21   -1    0    0  501  503 -0.00000000000E+00 -0.00000000000E+00 -0.18877503701E+03  0.18877503701E+03  0.00000000000E+00 0.  1.
          6    2    1    2  501    0  0.19498309675E+01 -0.14155464090E+03  0.31302540618E+03  0.38480902350E+03  0.17335386193E+03 0.  0.
         24    2    3    3    0    0 -0.31368456009E+02 -0.92671302232E+02  0.93382506979E+02  0.15729027214E+03  0.80299357482E+02 0.  0.
         -6    2    1    2    0  502 -0.19498309675E+01  0.14155464090E+03 -0.72191668798E+02  0.23357478791E+03  0.17118418823E+03 0.  0.
        -24    2    5    5    0    0  0.58778927206E+01  0.16576535270E+03 -0.33636357800E+02  0.18714167655E+03  0.79861760293E+02 0.  0.
          5    1    3    3  501    0  0.33318286976E+02 -0.48883338671E+02  0.21964289920E+03  0.22751875135E+03  0.47000000000E+01 0. -1.
        -13    1    4    4    0    0  0.20645177876E+02 -0.62166822849E+02  0.39969002225E+02  0.76736291099E+02  0.00000000000E+00 0.  1.
         14    1    4    4    0    0 -0.52013633885E+02 -0.30504479383E+02  0.53413504753E+02  0.80553981046E+02  0.00000000000E+00 0. -1.
         -5    1    5    5    0  502 -0.78277236880E+01 -0.24210711800E+02 -0.38555310998E+02  0.46433111355E+02  0.47000000000E+01 0.  1.
         11    1    6    6    0    0 -0.60656971209E+01  0.39830310062E+02 -0.44677237255E+02  0.60160633390E+02  0.00000000000E+00 0. -1.
        -12    1    6    6    0    0  0.11943589841E+02  0.12593504264E+03  0.11040879455E+02  0.12698104316E+03  0.00000000000E+00 0.  1.
</event>
<event>
12    1  0.1039610E+000  0.1765750E+03  0.7818608E-02  0.1171520E+00
         21   -1    0    0  501  502  0.00000000000E+00  0.00000000000E+00  0.64802975282E+03  0.64802975282E+03  0.00000000000E+00 0.  1.
         21   -1    0    0  502  503 -0.00000000000E+00 -0.00000000000E+00 -0.77697877500E+02  0.77697877500E+02  0.00000000000E+00 0.  1.
         -6    2    1    2    0  503  0.23783879427E+02 -0.18007074435E+02  0.50983865446E+03  0.53907784256E+03  0.17256749147E+03 0.  0.
        -24    2    3    3    0    0  0.78878478507E+02 -0.18428778857E+02  0.40250942250E+03  0.41834157330E+03  0.80214727387E+02 0.  0.
          6    2    1    2  501    0 -0.23783879427E+02  0.18007074435E+02  0.60493220860E+02  0.18664978775E+03  0.17403673707E+03 0.  0.
         24    2    5    5    0    0 -0.43992587765E+01  0.62022565784E+01  0.10663394435E+03  0.13501478406E+03  0.82464370251E+02 0.  0.
          5    1    5    5  501    0 -0.19384620650E+02  0.11804817857E+02 -0.46140723493E+02  0.51635003698E+02  0.47000000000E+01 0. -1.
        -13    1    6    6    0    0 -0.42578061101E+02 -0.52836496558E+01  0.53162094981E+02  0.68315566188E+02  0.00000000000E+00 0.  1.
         14    1    6    6    0    0  0.38178802324E+02  0.11485906234E+02  0.53471849372E+02  0.66699217868E+02  0.00000000000E+00 0. -1.
         -5    1    3    3    0  503 -0.55094599080E+02  0.42170442239E+00  0.10732923196E+03  0.12073626926E+03  0.47000000000E+01 0.  1.
         13    1    4    4    0    0  0.56939272215E+02 -0.42532449154E+02  0.34494410493E+03  0.35218961580E+03  0.00000000000E+00 0. -1.
        -14    1    4    4    0    0  0.21939206291E+02  0.24103670296E+02  0.57565317574E+02  0.66151957506E+02  0.00000000000E+00 0.  1.
</event>
<event>
12    1  0.1039610E+000  0.2114020E+03  0.7818608E-02  0.1140664E+00
         21   -1    0    0  501  502  0.00000000000E+00  0.00000000000E+00  0.25875473191E+03  0.25875473191E+03  0.00000000000E+00 0. -1.
         21   -1    0    0  502  503 -0.00000000000E+00 -0.00000000000E+00 -0.17406117485E+03  0.17406117485E+03  0.00000000000E+00 0. -1.
         -6    2    1    2    0  503 -0.68815508435E+02 -0.10017443537E+03  0.17966571562E+02  0.21113303804E+03  0.17170867874E+03 0.  0.
        -24    2    3    3    0    0  0.23396324367E+02 -0.70360677334E+02 -0.34578228020E+01  0.11177018305E+03  0.83561979227E+02 0.  0.
          6    2    1    2  501    0  0.68815508435E+02  0.10017443537E+03  0.66726985495E+02  0.22168286872E+03  0.17297488832E+03 0.  0.
         24    2    5    5    0    0  0.16810055639E+02 -0.68475798526E+01 -0.14416785044E+02  0.77583318547E+02  0.74039586070E+02 0.  0.
          5    1    5    5  501    0  0.52005452796E+02  0.10702201522E+03  0.81143770539E+02  0.14409955017E+03  0.47000000000E+01 0. -1.
        -11    1    6    6    0    0  0.41051347149E+02  0.33663033723E+01  0.92314725787E+01  0.42210960509E+02  0.00000000000E+00 0.  1.
         12    1    6    6    0    0 -0.24241291510E+02 -0.10213883225E+02 -0.23648257623E+02  0.35372358038E+02  0.00000000000E+00 0. -1.
         -5    1    3    3    0  503 -0.92211832802E+02 -0.29813758034E+02  0.21424394364E+02  0.99362854985E+02  0.47000000000E+01 0.  1.
         13    1    4    4    0    0  0.34945732142E+02 -0.49433142994E+01 -0.23478617855E+02  0.42389692705E+02  0.00000000000E+00 0. -1.
        -14    1    4    4    0    0 -0.11549407775E+02 -0.65417363035E+02  0.20020795053E+02  0.69380490348E+02  0.00000000000E+00 0.  1.
</event>
<event>
12    1  0.1039610E+000  0.2489678E+03  0.7818608E-02  0.1114473E+00
         21   -1    0    0  503  502  0.00000000000E+00  0.00000000000E+00  0.46388142945E+02  0.46388142945E+02  0.00000000000E+00 0. -1.
         21   -1    0    0  501  503 -0.00000000000E+00 -0.00000000000E+00 -0.14430614431E+04  0.14430614431E+04  0.00000000000E+00 0. -1.
          6    2    1    2  501    0 -0.15409227061E+03 -0.91283288254E+02 -0.47584320641E+03  0.53555595976E+03  0.16827466349E+03 0.  0.
         24    2    3    3    0    0 -0.14787607277E+03 -0.31355019843E+02 -0.41909353584E+03  0.45265449065E+03  0.80038902777E+02 0.  0.
         -6    2    1    2    0  502  0.15409227061E+03  0.91283288254E+02 -0.92083009376E+03  0.95389362630E+03  0.17293907060E+03 0.  0.
        -24    2    5    5    0    0  0.66173321834E+02  0.58392385745E+02 -0.25690387842E+03  0.28334783186E+03  0.80609005933E+02 0.  0.
          5    1    3    3  501    0 -0.62161978413E+01 -0.59928268411E+02 -0.56749670564E+02  0.82901469103E+02  0.47000000000E+01 0. -1.
        -11    1    4    4    0    0 -0.52506283943E+02 -0.24907041676E+02 -0.71400834971E+02  0.92061663102E+02  0.00000000000E+00 0.  1.
         12    1    4    4    0    0 -0.95369788829E+02 -0.64479781671E+01 -0.34769270087E+03  0.36059282755E+03  0.00000000000E+00 0. -1.
         -5    1    5    5    0  502  0.87918948779E+02  0.32890902509E+02 -0.66392621534E+03  0.67054579444E+03  0.47000000000E+01 0.  1.
         13    1    6    6    0    0  0.70808182129E+01  0.58211575383E+02 -0.15241540087E+03  0.16330701123E+03  0.00000000000E+00 0. -1.
        -14    1    6    6    0    0  0.59092503622E+02  0.18081036231E+00 -0.10448847755E+03  0.12004082063E+03  0.00000000000E+00 0.  1.
</event>
<event>
12    1  0.1039610E+000  0.2457212E+03  0.7818608E-02  0.1116072E+00
         21   -1    0    0  501  502  0.00000000000E+00  0.00000000000E+00  0.18000760131E+03  0.18000760131E+03  0.00000000000E+00 0.  1.
         21   -1    0    0  502  503 -0.00000000000E+00 -0.00000000000E+00 -0.40489020743E+03  0.40489020743E+03  0.00000000000E+00 0.  1.
         -6    2    1    2    0  503 -0.17130321967E+03 -0.38885264641E+02  0.89718563654E+01  0.24568279501E+03  0.17153041911E+03 0.  0.
        -24    2    3    3    0    0 -0.77248458173E+02 -0.82662283190E+02  0.13960382516E+02  0.14171308352E+03  0.84186272099E+02 0.  0.
          6    2    1    2  501    0  0.17130321967E+03  0.38885264641E+02 -0.23385446249E+03  0.33921501374E+03  0.17181984473E+03 0.  0.
         24    2    5    5    0    0  0.80154375073E+02  0.60891403291E+02 -0.60772545420E+02  0.14230939669E+03  0.80163428509E+02 0.  0.
          5    1    5    5  501    0  0.91148844593E+02 -0.22006138649E+02 -0.17308191707E+03  0.19690561705E+03  0.47000000000E+01 0. -1.
        -13    1    6    6    0    0 -0.88762295052E+01  0.21821791489E+02 -0.34180515694E+02  0.41512476282E+02  0.00000000000E+00 0.  1.
         14    1    6    6    0    0  0.89030604578E+02  0.39069611802E+02 -0.26592029726E+02  0.10079692040E+03  0.00000000000E+00 0. -1.
         -5    1    3    3    0  503 -0.94054761493E+02  0.43777018548E+02 -0.49885261511E+01  0.10396971148E+03  0.47000000000E+01 0.  1.
         13    1    4    4    0    0 -0.18847444083E+02 -0.36275427173E+02 -0.33890522239E+02  0.53100849924E+02  0.00000000000E+00 0. -1.
        -14    1    4    4    0    0 -0.58401014090E+02 -0.46386856017E+02  0.47850904755E+02  0.88612233601E+02  0.00000000000E+00 0.  1.
</event>
<event>
12    1  0.1039610E+000  0.2324454E+03  0.7818608E-02  0.1125670E+00
         21   -1    0    0  503  502  0.00000000000E+00  0.00000000000E+00  0.24805733823E+03  0.24805733823E+03  0.00000000000E+00 0. -1.
         21   -1    0    0  501  503 -0.00000000000E+00 -0.00000000000E+00 -0.36745122078E+03  0.36745122078E+03  0.00000000000E+00 0. -1.
          6    2    1    2  501    0 -0.14860204842E+03 -0.18214529059E+02  0.13957398758E+03  0.26752115593E+03  0.17225659058E+03 0.  0.
         24    2    3    3    0    0 -0.14906221535E+03  0.25067038859E+02  0.89165479348E+02  0.20091324666E+03  0.97814873568E+02 0.  0.
         -6    2    1    2    0  502  0.14860204842E+03  0.18214529059E+02 -0.25896787014E+03  0.34798740308E+03  0.17781039642E+03 0.  0.
        -24    2    5    5    0    0  0.60344789920E+02  0.95163611903E+01 -0.23577505032E+03  0.25619961145E+03  0.79475227290E+02 0.  0.
          5    1    3    3  501    0  0.46016693683E+00 -0.43281567919E+02  0.50408508234E+02  0.66607909271E+02  0.47000000000E+01 0. -1.
        -13    1    4    4    0    0 -0.91959899789E+02 -0.99695882403E+01  0.40399597154E+01  0.92586916643E+02  0.00000000000E+00 0.  1.
         14    1    4    4    0    0 -0.57102315564E+02  0.35036627100E+02  0.85125519633E+02  0.10832633001E+03  0.00000000000E+00 0. -1.
         -5    1    5    5    0  502  0.88257258496E+02  0.86981678690E+01 -0.23192819821E+02  0.91787791632E+02  0.47000000000E+01 0.  1.
         13    1    6    6    0    0  0.46871752005E+02  0.42896739809E+02 -0.13545001807E+03  0.14961216133E+03  0.00000000000E+00 0. -1.
        -14    1    6    6    0    0  0.13473037915E+02 -0.33380378619E+02 -0.10032503224E+03  0.10658745011E+03  0.00000000000E+00 0.  1.
</event>
<event>
12    1  0.1039610E+000  0.1816945E+03  0.7818608E-02  0.1167701E+00
         21   -1    0    0  503  502  0.00000000000E+00  0.00000000000E+00  0.60959595500E+03  0.60959595500E+03  0.00000000000E+00 0.  1.
         21   -1    0    0  501  503 -0.00000000000E+00 -0.00000000000E+00 -0.52439824067E+02  0.52439824067E+02  0.00000000000E+00 0.  1.
          6    2    1    2  501    0 -0.43516035846E+02 -0.24816234562E+01  0.30046903407E+03  0.35113318625E+03  0.17638897419E+03 0.  0.
         24    2    3    3    0    0 -0.35351870274E+02  0.19457205437E+02  0.57098070983E+02  0.10659386121E+03  0.80459455398E+02 0.  0.
         -6    2    1    2    0  502  0.43516035846E+02  0.24816234562E+01  0.25668709686E+03  0.31090259282E+03  0.16991866495E+03 0.  0.
        -24    2    5    5    0    0  0.58364780765E+02 -0.48877469234E+02  0.21874772716E+03  0.24517795968E+03  0.80412742434E+02 0.  0.
          5    1    3    3  501    0 -0.81641655723E+01 -0.21938828893E+02  0.24337096309E+03  0.24453932503E+03  0.47000000000E+01 0. -1.
        -13    1    4    4    0    0 -0.56258045425E+02  0.13023637783E+00  0.19734651171E+02  0.59619133619E+02  0.00000000000E+00 0.  1.
         14    1    4    4    0    0  0.20906175151E+02  0.19326969059E+02  0.37363419812E+02  0.46974727593E+02  0.00000000000E+00 0. -1.
         -5    1    5    5    0  502 -0.14848744919E+02  0.51359092690E+02  0.37939369704E+02  0.65724633138E+02  0.47000000000E+01 0.  1.
         11    1    6    6    0    0  0.64490856061E+02 -0.31509899807E+01  0.12478119610E+03  0.14049678343E+03  0.00000000000E+00 0. -1.
        -12    1    6    6    0    0 -0.61260752960E+01 -0.45726479254E+02  0.93966531055E+02  0.10468117625E+03  0.00000000000E+00 0.  1.
</event>
<event>
12    1  0.1039610E+000  0.2551745E+03  0.7818608E-02  0.1110216E+00
         21   -1    0    0  503  502  0.00000000000E+00  0.00000000000E+00  0.12190120399E+03  0.12190120399E+03  0.00000000000E+00 0. -1.
         21   -1    0    0  501  503 -0.00000000000E+00 -0.00000000000E+00 -0.70371218156E+03  0.70371218156E+03  0.00000000000E+00 0. -1.
          6    2    1    2  501    0  0.53142865733E+02  0.18102842021E+03 -0.87540809289E+02  0.26977292908E+03  0.17180974033E+03 0.  0.
         24    2    3    3    0    0 -0.30832649674E+02  0.50793649947E+02 -0.43650645523E+02  0.10864745298E+03  0.79801272067E+02 0.  0.
         -6    2    1    2    0  502 -0.53142865733E+02 -0.18102842021E+03 -0.49427016828E+03  0.55584045647E+03  0.17047041003E+03 0.  0.
        -24    2    5    5    0    0 -0.13971310151E+02 -0.13503716864E+03 -0.19695682922E+03  0.25241514842E+03  0.80567860529E+02 0.  0.
          5    1    3    3  501    0  0.83975515407E+02  0.13023477026E+03 -0.43890163766E+02  0.16112547610E+03  0.47000000000E+01 0. -1.
        -13    1    4    4    0    0 -0.17422868504E+02 -0.43459866451E+01 -0.48476886661E+02  0.51695768561E+02  0.00000000000E+00 0.  1.
         14    1    4    4    0    0 -0.13409781170E+02  0.55139636592E+02  0.48262411376E+01  0.56951684418E+02  0.00000000000E+00 0. -1.
         -5    1    5    5    0  502 -0.39171555582E+02 -0.45991251569E+02 -0.29731333905E+03  0.30342530805E+03  0.47000000000E+01 0.  1.
         11    1    6    6    0    0  0.30420637899E+02 -0.81400069958E+02 -0.12548462393E+03  0.15263609482E+03  0.00000000000E+00 0. -1.
        -12    1    6    6    0    0 -0.44391948050E+02 -0.53637098681E+02 -0.71472205295E+02  0.99779053595E+02  0.00000000000E+00 0.  1.
</event>
<event>
12    1  0.1039610E+000  0.1892128E+03  0.7818608E-02  0.1161117E+00
         21   -1    0    0  503  502  0.00000000000E+00  0.00000000000E+00  0.22330608571E+02  0.22330608571E+02  0.00000000000E+00 0.  1.
         21   -1    0    0  501  503 -0.00000000000E+00 -0.00000000000E+00 -0.19506582147E+04  0.19506582147E+04  0.00000000000E+00 0.  1.
          6    2    1    2  501    0 -0.28593320234E+02 -0.43403669473E+02 -0.52498516258E+03  0.55804204077E+03  0.18193416901E+03 0.  0.
         24    2    3    3    0    0 -0.13994655055E+02  0.48501577946E+02 -0.29911071997E+03  0.31370405896E+03  0.79967245655E+02 0.  0.
         -6    2    1    2    0  502  0.28593320234E+02  0.43403669473E+02 -0.14033424435E+04  0.14149467825E+04  0.17321352994E+03 0.  0.
        -24    2    5    5    0    0  0.83018519029E+02  0.28373159093E+02 -0.63219443864E+03  0.64172019606E+03  0.66617498621E+02 0.  0.
          5    1    3    3  501    0 -0.14598665179E+02 -0.91905247418E+02 -0.22587444261E+03  0.24433798181E+03  0.47000000000E+01 0. -1.
        -13    1    4    4    0    0  0.24418790389E+02 -0.84689729404E+01 -0.79684817915E+02  0.83771540710E+02  0.00000000000E+00 0.  1.
         14    1    4    4    0    0 -0.38413445444E+02  0.56970550886E+02 -0.21942590205E+03  0.22993251825E+03  0.00000000000E+00 0. -1.
         -5    1    5    5    0  502 -0.54425198796E+02  0.15030510380E+02 -0.77114800489E+03  0.77322658642E+03  0.47000000000E+01 0.  1.
         13    1    6    6    0    0  0.59701160434E+02 -0.14323149086E+02 -0.36720861550E+03  0.37230571907E+03  0.00000000000E+00 0. -1.
        -14    1    6    6    0    0  0.23317358595E+02  0.42696308178E+02 -0.26498582314E+03  0.26941447699E+03  0.00000000000E+00 0.  1.
</event>
<event>
12    1  0.1039610E+000  0.1951628E+03  0.7818608E-02  0.1154379E+00
         21   -1    0    0  501  502  0.00000000000E+00  0.00000000000E+00  0.20037283354E+03  0.20037283354E+03  0.00000000000E+00 0. -1.
         21   -1    0    0  502  503 -0.00000000000E+00 -0.00000000000E+00 -0.26274711396E+03  0.26274711396E+03  0.00000000000E+00 0. -1.
         -6    2    1    2    0  503  0.88487581559E+02 -0.79895737882E+01  0.92531254235E+02  0.21395287830E+03  0.17123059231E+03 0.  0.
        -24    2    3    3    0    0  0.11873389176E+03  0.26146341922E+02  0.55371791150E+02  0.15493579841E+03  0.78471001809E+02 0.  0.
          6    2    1    2  501    0 -0.88487581559E+02  0.79895737882E+01 -0.15490553465E+03  0.24916706920E+03  0.17376598726E+03 0.  0.
         24    2    5    5    0    0 -0.66615739741E+02  0.59078290746E+02 -0.45685935841E+02  0.12653165332E+03  0.77428375541E+02 0.  0.
          5    1    5    5  501    0 -0.21871841818E+02 -0.51088716958E+02 -0.10921959881E+03  0.12263541589E+03  0.47000000000E+01 0. -1.
        -13    1    6    6    0    0 -0.30108417087E+02 -0.10805322651E+02 -0.34244449923E+02  0.46861008606E+02  0.00000000000E+00 0.  1.
         14    1    6    6    0    0 -0.36507322654E+02  0.69883613396E+02 -0.11441485918E+02  0.79670644711E+02  0.00000000000E+00 0. -1.
         -5    1    3    3    0  503 -0.30246310201E+02 -0.34135915710E+02  0.37159463086E+02  0.59017079892E+02  0.47000000000E+01 0.  1.
         11    1    4    4    0    0  0.91954795459E+02  0.53373563550E+02  0.37188815479E+02  0.11263849116E+03  0.00000000000E+00 0. -1.
        -12    1    4    4    0    0  0.26779096301E+02 -0.27227221628E+02  0.18182975671E+02  0.42297307249E+02  0.00000000000E+00 0.  1.
</event>
<event>
12    1  0.1039610E+000  0.2650201E+03  0.7818608E-02  0.1104755E+00
         21   -1    0    0  501  502  0.00000000000E+00  0.00000000000E+00  0.65847638149E+02  0.65847638149E+02  0.00000000000E+00 0.  1.
         21   -1    0    0  502  503 -0.00000000000E+00 -0.00000000000E+00 -0.10506716830E+04  0.10506716830E+04  0.00000000000E+00 0.  1.
         -6    2    1    2    0  503  0.19162744963E+03  0.70155319671E+02 -0.50070874076E+03  0.56651997487E+03  0.16909402865E+03 0.  0.
        -24    2    3    3    0    0  0.21002759560E+03  0.82862996903E+02 -0.47536494966E+03  0.53239596309E+03  0.80596271526E+02 0.  0.
          6    2    1    2  501    0 -0.19162744963E+03 -0.70155319671E+02 -0.48411530410E+03  0.54999934629E+03  0.16275381692E+03 0.  0.
         24    2    5    5    0    0 -0.53998473405E+02 -0.59194969655E+02 -0.14433017698E+03  0.18320528011E+03  0.79454987957E+02 0.  0.
          5    1    5    5  501    0 -0.13762897623E+03 -0.10960350016E+02 -0.33978512712E+03  0.36679406618E+03  0.47000000000E+01 0. -1.
        -13    1    6    6    0    0 -0.67835981939E+02 -0.30615652737E+02 -0.69135899397E+02  0.10158154962E+03  0.00000000000E+00 0.  1.
         14    1    6    6    0    0  0.13837508533E+02 -0.28579316918E+02 -0.75194277584E+02  0.81623730491E+02  0.00000000000E+00 0. -1.
         -5    1    3    3    0  503 -0.18400145973E+02 -0.12707677231E+02 -0.25343791107E+02  0.34124011782E+02  0.47000000000E+01 0.  1.
         11    1    4    4    0    0  0.15012417907E+03  0.24141873736E+02 -0.34945086505E+03  0.38109842075E+03  0.00000000000E+00 0. -1.
        -12    1    4    4    0    0  0.59903416538E+02  0.58721123166E+02 -0.12591408460E+03  0.15129754235E+03  0.00000000000E+00 0.  1.
</event>
<event>
12    1  0.1039610E+000  0.3745514E+03  0.7818608E-02  0.1053035E+00
         21   -1    0    0  503  502  0.00000000000E+00  0.00000000000E+00  0.61965690704E+03  0.61965690704E+03  0.00000000000E+00 0.  1.
         21   -1    0    0  501  503 -0.00000000000E+00 -0.00000000000E+00 -0.52118373271E+03  0.52118373271E+03  0.00000000000E+00 0. -1.
          6    2    1    2  501    0  0.33247780730E+03 -0.11204662386E+02  0.47857215079E+03  0.60771707143E+03  0.17210955402E+03 0.  0.
         24    2    3    3    0    0  0.18285619311E+03  0.53515916126E+01  0.16143125868E+03  0.25663136618E+03  0.79590074366E+02 0.  0.
         -6    2    1    2    0  502 -0.33247780730E+03  0.11204662386E+02 -0.38009897646E+03  0.53312356832E+03  0.17052410500E+03 0.  0.
        -24    2    5    5    0    0 -0.27776613091E+03  0.44858134401E+01 -0.21844510392E+03  0.36226522063E+03  0.79647226290E+02 0.  0.
          5    1    3    3  501    0  0.14962161419E+03 -0.16556253999E+02  0.31714089211E+03  0.35108570525E+03  0.47000000000E+01 0. -1.
        -11    1    4    4    0    0  0.15923721566E+03 -0.24699709386E+02  0.13412810358E+03  0.20965904384E+03  0.00000000000E+00 0.  1.
         12    1    4    4    0    0  0.23618977449E+02  0.30051300998E+02  0.27303155097E+02  0.46972322337E+02  0.00000000000E+00 0. -1.
         -5    1    5    5    0  502 -0.54711676394E+02  0.67188489462E+01 -0.16165387254E+03  0.17085834768E+03  0.47000000000E+01 0.  1.
         13    1    6    6    0    0 -0.26055490886E+03  0.22360314596E+02 -0.21194336754E+03  0.33661377756E+03  0.00000000000E+00 0. -1.
        -14    1    6    6    0    0 -0.17211222046E+02 -0.17874501156E+02 -0.65017363800E+01  0.25651443075E+02  0.00000000000E+00 0.  1.
</event>
<event>
12    1  0.1039610E+000  0.2469289E+03  0.7818608E-02  0.1115678E+00
         21   -1    0    0  501  502  0.00000000000E+00  0.00000000000E+00  0.12078558135E+03  0.12078558135E+03  0.00000000000E+00 0.  1.
         21   -1    0    0  502  503 -0.00000000000E+00 -0.00000000000E+00 -0.53737070419E+03  0.53737070419E+03  0.00000000000E+00 0.  1.
         -6    2    1    2    0  503 -0.16130320994E+03  0.43263724203E+02 -0.29661732640E+03  0.38594780651E+03  0.18188841540E+03 0.  0.
        -24    2    3    3    0    0 -0.11153024492E+03 -0.11759408744E+02 -0.66192874472E+02  0.14382715218E+03  0.61053041258E+02 0.  0.
          6    2    1    2  501    0  0.16130320994E+03 -0.43263724203E+02 -0.11996779645E+03  0.27220847903E+03  0.17836678083E+03 0.  0.
         24    2    5    5    0    0  0.11012535007E+03 -0.62925804819E+02 -0.14781533655E+03  0.21053720335E+03  0.79933038438E+02 0.  0.
          5    1    5    5  501    0  0.51177859872E+02  0.19662080616E+02  0.27847540102E+02  0.61671275688E+02  0.47000000000E+01 0. -1.
        -13    1    6    6    0    0  0.33994057405E+02 -0.12716988512E+02 -0.10243147154E+03  0.10867163428E+03  0.00000000000E+00 0.  1.
         14    1    6    6    0    0  0.76131292668E+02 -0.50208816307E+02 -0.45383865009E+02  0.10186556907E+03  0.00000000000E+00 0. -1.
         -5    1    3    3    0  503 -0.49772965022E+02  0.55023132947E+02 -0.23042445193E+03  0.24212065433E+03  0.47000000000E+01 0.  1.
         11    1    4    4    0    0 -0.96920936936E+02  0.48756825247E+01 -0.72120010964E+02  0.12090796615E+03  0.00000000000E+00 0. -1.
        -12    1    4    4    0    0 -0.14609307986E+02 -0.16635091269E+02  0.59271364917E+01  0.22919186031E+02  0.00000000000E+00 0.  1.
</event>
<event>
12    1  0.1039610E+000  0.2033007E+03  0.7818608E-02  0.1147087E+00
         21   -1    0    0  503  502  0.00000000000E+00  0.00000000000E+00  0.90701897548E+02  0.90701897548E+02  0.00000000000E+00 0. -1.
         21   -1    0    0  501  503 -0.00000000000E+00 -0.00000000000E+00 -0.53586407490E+03  0.53586407490E+03  0.00000000000E+00 0. -1.
          6    2    1    2  501    0  0.20466941881E+02  0.10591061091E+03 -0.10078268433E+03  0.22691036455E+03  0.17232298415E+03 0.  0.
         24    2    3    3    0    0  0.60706572910E+02  0.68331336249E+02 -0.11975832169E+03  0.16848438914E+03  0.75435232247E+02 0.  0.
         -6    2    1    2    0  502 -0.20466941881E+02 -0.10591061091E+03 -0.34437949303E+03  0.39965560790E+03  0.17173065100E+03 0.  0.
        -24    2    5    5    0    0 -0.50448509495E+02 -0.22586298110E+02 -0.26423308388E+03  0.28012581078E+03  0.74807447993E+02 0.  0.
          5    1    3    3  501    0 -0.40239631029E+02  0.37579274662E+02  0.18975637356E+02  0.58425975410E+02  0.47000000000E+01 0. -1.
        -11    1    4    4    0    0  0.67425340809E+02  0.35415565530E+02 -0.50138093517E+02  0.91182604079E+02  0.00000000000E+00 0.  1.
         12    1    4    4    0    0 -0.67187678984E+01  0.32915770718E+02 -0.69620228168E+02  0.77301785065E+02  0.00000000000E+00 0. -1.
         -5    1    5    5    0  502  0.29981567614E+02 -0.83324312801E+02 -0.80146409146E+02  0.11952979712E+03  0.47000000000E+01 0.  1.
         13    1    6    6    0    0 -0.60518793516E+02 -0.25970072676E+02 -0.13248539275E+03  0.14795049285E+03  0.00000000000E+00 0. -1.
        -14    1    6    6    0    0  0.10070284021E+02  0.33837745664E+01 -0.13174769113E+03  0.13217531793E+03  0.00000000000E+00 0.  1.
</event>
<event>
12    1  0.1244280E+000  0.2686901E+03  0.7818608E-02  0.1103907E+00
         21   -1    0    0  503  502  0.00000000000E+00  0.00000000000E+00  0.19022835146E+03  0.19022835146E+03  0.00000000000E+00 0. -1.
         21   -1    0    0  501  503 -0.00000000000E+00 -0.00000000000E+00 -0.13663026034E+04  0.13663026034E+04  0.00000000000E+00 0.  1.
          6    2    1    2  501    0 -0.10966355126E+03 -0.15299100921E+03  0.75458792780E+02  0.27908497256E+03  0.19173431911E+03 0.  0.
         24    2    3    3    0    0 -0.57666565742E+02 -0.59260376624E+02  0.11457912208E+03  0.16488511199E+03  0.84979408665E+02 0.  0.
         -6    2    1    2    0  502  0.10966355126E+03  0.15299100921E+03 -0.12515330447E+04  0.12774459823E+04  0.17349620256E+03 0.  0.
        -24    2    5    5    0    0  0.14244390780E+03  0.10666745944E+03 -0.10530844849E+04  0.10709893430E+04  0.79768581548E+02 0.  0.
          5    1    3    3  501    0 -0.51996985521E+02 -0.93730632589E+02 -0.39120329302E+02  0.11419986057E+03  0.47000000000E+01 0. -1.
        -11    1    4    4    0    0 -0.47179604883E+02  0.62207661647E+01  0.25984418320E+02  0.54219950609E+02  0.00000000000E+00 0.  1.
         12    1    4    4    0    0 -0.10486960859E+02 -0.65481142788E+02  0.88594703762E+02  0.11066516138E+03  0.00000000000E+00 0. -1.
         -5    1    5    5    0  502 -0.32780356535E+02  0.46323549776E+02 -0.19844855976E+03  0.20645663930E+03  0.47000000000E+01 0.  1.
         13    1    6    6    0    0  0.59952887106E+02  0.90979682122E+02 -0.51575307274E+03  0.52713649397E+03  0.00000000000E+00 0. -1.
        -14    1    6    6    0    0  0.82491020691E+02  0.15687777315E+02 -0.53733141218E+03  0.54385284901E+03  0.00000000000E+00 0.  1.
</event>
<event>
12    1  0.1039610E+000  0.1718776E+03  0.7818608E-02  0.1176121E+00
         21   -1    0    0  503  502  0.00000000000E+00  0.00000000000E+00  0.31866648956E+02  0.31866648956E+02  0.00000000000E+00 0. -1.
         21   -1    0    0  501  503 -0.00000000000E+00 -0.00000000000E+00 -0.13015963050E+04  0.13015963050E+04  0.00000000000E+00 0. -1.
          6    2    1    2  501    0 -0.91817309343E+01  0.18223099542E+00 -0.27615189136E+03  0.32527185410E+03  0.17163209076E+03 0.  0.
         24    2    3    3    0    0 -0.61952649774E+02  0.19997053265E+02 -0.23146555849E+03  0.25318610376E+03  0.79302493141E+02 0.  0.
         -6    2    1    2    0  502  0.91817309343E+01 -0.18223099542E+00 -0.99357776469E+03  0.10081910999E+04  0.17078694901E+03 0.  0.
        -24    2    5    5    0    0 -0.41712883065E+02 -0.45701552205E+02 -0.51999462672E+03  0.52968786172E+03  0.79663181886E+02 0.  0.
          5    1    3    3  501    0  0.52770918839E+02 -0.19814822270E+02 -0.44686332865E+02  0.72085750337E+02  0.47000000000E+01 0. -1.
        -11    1    4    4    0    0 -0.26266886408E+01 -0.25906845257E+02 -0.42067382912E+02  0.49474527076E+02  0.00000000000E+00 0.  1.
         12    1    4    4    0    0 -0.59325961133E+02  0.45903898522E+02 -0.18939817558E+03  0.20371157669E+03  0.00000000000E+00 0. -1.
         -5    1    5    5    0  502  0.50894613999E+02  0.45519321210E+02 -0.47358313797E+03  0.47850323814E+03  0.47000000000E+01 0.  1.
         13    1    6    6    0    0  0.18693977760E+01 -0.55933949157E+02 -0.27506933255E+03  0.28070489669E+03  0.00000000000E+00 0. -1.
        -14    1    6    6    0    0 -0.43582280841E+02  0.10232396952E+02 -0.24492529417E+03  0.24898296503E+03  0.00000000000E+00 0.  1.
</event>
<event>
12    1  0.1039610E+000  0.1821574E+03  0.7818608E-02  0.1165732E+00
         21   -1    0    0  501  502  0.00000000000E+00  0.00000000000E+00  0.15489562925E+03  0.15489562925E+03  0.00000000000E+00 0.  1.
         21   -1    0    0  502  503 -0.00000000000E+00 -0.00000000000E+00 -0.28234854114E+03  0.28234854114E+03  0.00000000000E+00 0.  1.
         -6    2    1    2    0  503 -0.16908388631E+02 -0.56974826811E+02  0.43669856501E+02  0.18731894006E+03  0.17218973384E+03 0.  0.
        -24    2    3    3    0    0 -0.74006111114E+02 -0.20240983434E+02  0.10860658461E+02  0.11176724492E+03  0.80544157096E+02 0.  0.
          6    2    1    2  501    0  0.16908388631E+02  0.56974826811E+02 -0.17112276839E+03  0.24992523034E+03  0.17218476821E+03 0.  0.
         24    2    5    5    0    0 -0.45881495166E+02  0.15510205250E+02 -0.47247354955E+02  0.10491111929E+03  0.80177006278E+02 0.  0.
          5    1    5    5  501    0  0.62789883796E+02  0.41464621562E+02 -0.12387541344E+03  0.14501411105E+03  0.47000000000E+01 0. -1.
        -13    1    6    6    0    0 -0.33257071364E+02  0.32124091970E+02  0.70219726824E+01  0.46768559748E+02  0.00000000000E+00 0.  1.
         14    1    6    6    0    0 -0.12624423801E+02 -0.16613886720E+02 -0.54269327637E+02  0.58142559545E+02  0.00000000000E+00 0. -1.
         -5    1    3    3    0  503  0.57097722484E+02 -0.36733843377E+02  0.32809198040E+02  0.75551695137E+02  0.47000000000E+01 0.  1.
         13    1    4    4    0    0 -0.16132495709E+01 -0.36904306267E+02  0.44084678065E+01  0.37201679849E+02  0.00000000000E+00 0. -1.
        -14    1    4    4    0    0 -0.72392861543E+02  0.16663322832E+02  0.64521906548E+01  0.74565565072E+02  0.00000000000E+00 0.  1.
</event>
<event>
12    1  0.1039610E+000  0.2052547E+03  0.7818608E-02  0.1145902E+00
         21   -1    0    0  503  502  0.00000000000E+00  0.00000000000E+00  0.47510884773E+02  0.47510884773E+02  0.00000000000E+00 0.  1.
         21   -1    0    0  501  503 -0.00000000000E+00 -0.00000000000E+00 -0.96302983826E+03  0.96302983826E+03  0.00000000000E+00 0.  1.
          6    2    1    2  501    0  0.50710257971E+02 -0.95984298459E+02 -0.60724890984E+03  0.64018964483E+03  0.17119295265E+03 0.  0.
         24    2    3    3    0    0 -0.31838022534E+02 -0.18357461320E+02 -0.23091465273E+03  0.24713785749E+03  0.80030542268E+02 0.  0.
         -6    2    1    2    0  502 -0.50710257971E+02  0.95984298459E+02 -0.30827004365E+03  0.37035107820E+03  0.17419812140E+03 0.  0.
        -24    2    5    5    0    0 -0.49952050137E+02  0.11326156496E+03 -0.14665019806E+03  0.20774067476E+03  0.79539411300E+02 0.  0.
          5    1    3    3  501    0  0.82548280505E+02 -0.77626837139E+02 -0.37633425711E+03  0.39305178734E+03  0.47000000000E+01 0. -1.
        -11    1    4    4    0    0 -0.39803428675E+02  0.11478127821E+02 -0.56774782805E+02  0.70281123462E+02  0.00000000000E+00 0.  1.
         12    1    4    4    0    0  0.79654061411E+01 -0.29835589141E+02 -0.17413986993E+03  0.17685673403E+03  0.00000000000E+00 0. -1.
         -5    1    5    5    0  502 -0.75820783380E+00 -0.17277266502E+02 -0.16161984559E+03  0.16261040344E+03  0.47000000000E+01 0.  1.
         13    1    6    6    0    0 -0.35525425701E+02  0.37082240939E+02 -0.12589264051E+02  0.52873793449E+02  0.00000000000E+00 0. -1.
        -14    1    6    6    0    0 -0.14426624436E+02  0.76179324022E+02 -0.13406093401E+03  0.15486688131E+03  0.00000000000E+00 0.  1.
</event>
<event>
12    1  0.1039610E+000  0.2768842E+03  0.7818608E-02  0.1097714E+00
         21   -1    0    0  503  502  0.00000000000E+00  0.00000000000E+00  0.21301918109E+03  0.21301918109E+03  0.00000000000E+00 0. -1.
         21   -1    0    0  501  503 -0.00000000000E+00 -0.00000000000E+00 -0.60811311859E+03  0.60811311859E+03  0.00000000000E+00 0. -1.
          6    2    1    2  501    0 -0.15735606957E+03  0.14427433892E+03  0.65814155222E+02  0.28459863148E+03  0.17632033494E+03 0.  0.
         24    2    3    3    0    0 -0.84727034993E+02  0.15538064274E+03  0.13841047804E+02  0.19447859741E+03  0.79426290659E+02 0.  0.
         -6    2    1    2    0  502  0.15735606957E+03 -0.14427433892E+03 -0.46090809273E+03  0.53653366820E+03  0.17278914802E+03 0.  0.
        -24    2    5    5    0    0  0.12106419479E+03 -0.76214437601E+01 -0.25093569559E+03  0.28335070770E+03  0.51032093495E+02 0.  0.
          5    1    3    3  501    0 -0.72629034574E+02 -0.11106303817E+02  0.51973107418E+02  0.90120034078E+02  0.47000000000E+01 0. -1.
        -13    1    4    4    0    0  0.93234314645E+01  0.50841634643E+02 -0.75611727867E+01  0.52239539827E+02  0.00000000000E+00 0.  1.
         14    1    4    4    0    0 -0.94050466457E+02  0.10453900810E+03  0.21402220591E+02  0.14223905758E+03  0.00000000000E+00 0. -1.
         -5    1    5    5    0  502  0.36291874780E+02 -0.13665289516E+03 -0.20997239714E+03  0.25318296050E+03  0.47000000000E+01 0.  1.
         13    1    6    6    0    0  0.14245654547E+02  0.86821490436E+01 -0.75392467333E+02  0.77216206305E+02  0.00000000000E+00 0. -1.
        -14    1    6    6    0    0  0.10681854024E+03 -0.16303592804E+02 -0.17554322826E+03  0.20613450139E+03  0.00000000000E+00 0.  1.
</event>
<event>
12    1  0.1039610E+000  0.3372435E+03  0.7818608E-02  0.1068606E+00
         21   -1    0    0  501  502  0.00000000000E+00  0.00000000000E+00  0.89260102363E+02  0.89260102363E+02  0.00000000000E+00 0. -1.
         21   -1    0    0  502  503 -0.00000000000E+00 -0.00000000000E+00 -0.15362507613E+04  0.15362507613E+04  0.00000000000E+00 0. -1.
         -6    2    1    2    0  503 -0.56183186444E+02 -0.27819793184E+03 -0.36899172132E+03  0.49599111474E+03  0.17117726419E+03 0.  0.
        -24    2    3    3    0    0  0.14647492231E+02 -0.76192148554E+02 -0.81859924128E+02  0.13781506797E+03  0.79196927026E+02 0.  0.
          6    2    1    2  501    0  0.56183186444E+02  0.27819793184E+03 -0.10779989376E+04  0.11295197489E+04  0.18216068179E+03 0.  0.
         24    2    5    5    0    0  0.56101702037E+02  0.28861976730E+03 -0.88069496439E+03  0.93188480984E+03  0.79604695033E+02 0.  0.
          5    1    5    5  501    0  0.81484406425E-01 -0.10421835456E+02 -0.19730397324E+03  0.19763493909E+03  0.47000000000E+01 0. -1.
        -13    1    6    6    0    0  0.38165943679E+02  0.72018806103E+02 -0.32840132221E+03  0.33836485651E+03  0.00000000000E+00 0.  1.
         14    1    6    6    0    0  0.17935758358E+02  0.21660096119E+03 -0.55229364218E+03  0.59351995333E+03  0.00000000000E+00 0. -1.
         -5    1    3    3    0  503 -0.70830678675E+02 -0.20200578329E+03 -0.28713179719E+03  0.35817604677E+03  0.47000000000E+01 0.  1.
         13    1    4    4    0    0  0.27632554256E+02 -0.27043105664E+02 -0.77726539871E+02  0.86811880633E+02  0.00000000000E+00 0. -1.
        -14    1    4    4    0    0 -0.12985062024E+02 -0.49149042890E+02 -0.41333842574E+01  0.51003187334E+02  0.00000000000E+00 0.  1.
</event>
<event>
12    1  0.1039610E+000  0.2211151E+03  0.7818608E-02  0.1133252E+00
         21   -1    0    0  501  502  0.00000000000E+00  0.00000000000E+00  0.15474493662E+03  0.15474493662E+03  0.00000000000E+00 0.  1.
         21   -1    0    0  502  503 -0.00000000000E+00 -0.00000000000E+00 -0.66893850937E+03  0.66893850937E+03  0.00000000000E+00 0.  1.
         -6    2    1    2    0  503 -0.42153145971E+01  0.13849190869E+03  0.42423668514E+02  0.22514808555E+03  0.17231980480E+03 0.  0.
        -24    2    3    3    0    0 -0.53558722367E+02  0.12376324560E+03 -0.12877193512E+01  0.15743929117E+03  0.81237888206E+02 0.  0.
          6    2    1    2  501    0  0.42153145971E+01 -0.13849190869E+03 -0.55661724127E+03  0.59853536044E+03  0.17095042197E+03 0.  0.
         24    2    5    5    0    0 -0.92296975526E+01 -0.16431001602E+03 -0.52163264067E+03  0.55278216059E+03  0.79903295141E+02 0.  0.
          5    1    5    5  501    0  0.13445012150E+02  0.25818107326E+02 -0.34984600605E+02  0.45753199856E+02  0.47000000000E+01 0. -1.
        -13    1    6    6    0    0  0.14275739915E+02 -0.35800024596E+02 -0.48526494594E+02  0.61969824825E+02  0.00000000000E+00 0.  1.
         14    1    6    6    0    0 -0.23505437468E+02 -0.12850999142E+03 -0.47310614607E+03  0.49081233576E+03  0.00000000000E+00 0. -1.
         -5    1    3    3    0  503  0.49343407770E+02  0.14728663087E+02  0.43711387865E+02  0.67708794376E+02  0.47000000000E+01 0.  1.
         13    1    4    4    0    0  0.19904037479E+02  0.19936395193E+02  0.96583863763E+01  0.29781117988E+02  0.00000000000E+00 0. -1.
        -14    1    4    4    0    0 -0.73462759846E+02  0.10382685041E+03 -0.10946105727E+02  0.12765817318E+03  0.00000000000E+00 0.  1.
</event>
<event>
12    1  0.1039610E+000  0.2047496E+03  0.7818608E-02  0.1145815E+00
         21   -1    0    0  501  502  0.00000000000E+00  0.00000000000E+00  0.90540498034E+02  0.90540498034E+02  0.00000000000E+00 0.  1.
         21   -1    0    0  502  503 -0.00000000000E+00 -0.00000000000E+00 -0.49725212557E+03  0.49725212557E+03  0.00000000000E+00 0.  1.
         -6    2    1    2    0  503 -0.10515148829E+03  0.35238748285E+02 -0.12602354035E+03  0.24042529587E+03  0.17211561609E+03 0.  0.
        -24    2    3    3    0    0 -0.13684430488E+03  0.30795487386E+01 -0.95529232432E+02  0.18573853738E+03  0.81468537615E+02 0.  0.
          6    2    1    2  501    0  0.10515148829E+03 -0.35238748285E+02 -0.28068808719E+03  0.34736732774E+03  0.17198736354E+03 0.  0.
         24    2    5    5    0    0  0.35629983625E+01  0.29044636275E+02 -0.12292691646E+03  0.14896558428E+03  0.78888735923E+02 0.  0.
          5    1    5    5  501    0  0.10158848993E+03 -0.64283384560E+02 -0.15776117073E+03  0.19840174346E+03  0.47000000000E+01 0. -1.
        -11    1    6    6    0    0  0.49110805988E+01  0.11572231470E+02  0.92654017222E+01  0.15616751356E+02  0.00000000000E+00 0.  1.
         12    1    6    6    0    0 -0.13480822364E+01  0.17472404806E+02 -0.13219231818E+03  0.13334883292E+03  0.00000000000E+00 0. -1.
         -5    1    3    3    0  503  0.31692816588E+02  0.32159199546E+02 -0.30494307914E+02  0.54686758488E+02  0.47000000000E+01 0.  1.
         13    1    4    4    0    0 -0.81226296128E+02  0.35118416919E+02 -0.28585845110E+02  0.92995510270E+02  0.00000000000E+00 0. -1.
        -14    1    4    4    0    0 -0.55618008751E+02 -0.32038868181E+02 -0.66943387322E+02  0.92743027112E+02  0.00000000000E+00 0.  1.
</event>
<event>
12    1  0.1039610E+000  0.2404696E+03  0.7818608E-02  0.1119577E+00
         21   -1    0    0  503  502  0.00000000000E+00  0.00000000000E+00  0.19971582109E+03  0.19971582109E+03  0.00000000000E+00 0. -1.
         21   -1    0    0  501  503 -0.00000000000E+00 -0.00000000000E+00 -0.33500658353E+03  0.33500658353E+03  0.00000000000E+00 0. -1.
          6    2    1    2  501    0  0.91145967647E+02 -0.14149706102E+03  0.31533537369E+02  0.24252836756E+03  0.17174585699E+03 0.  0.
         24    2    3    3    0    0  0.29725758682E+02 -0.13544889538E+03  0.64620699879E+02  0.17234380586E+03  0.79350668417E+02 0.  0.
         -6    2    1    2    0  502 -0.91145967647E+02  0.14149706102E+03 -0.16682429981E+03  0.29219403707E+03  0.17093274290E+03 0.  0.
        -24    2    5    5    0    0 -0.14941018260E+02  0.39458818578E+02 -0.13331460791E+03  0.16042155632E+03  0.78626068576E+02 0.  0.
          5    1    3    3  501    0  0.61420208964E+02 -0.60481656457E+01 -0.33087162511E+02  0.70184561692E+02  0.47000000000E+01 0. -1.
        -11    1    4    4    0    0  0.50948006950E+02 -0.12533191394E+03  0.48009967620E+02  0.14355746255E+03  0.00000000000E+00 0.  1.
         12    1    4    4    0    0 -0.21222248267E+02 -0.10116981437E+02  0.16610732259E+02  0.28786343309E+02  0.00000000000E+00 0. -1.
         -5    1    5    5    0  502 -0.76204949386E+02  0.10203824245E+03 -0.33509691905E+02  0.13177248075E+03  0.47000000000E+01 0.  1.
         11    1    6    6    0    0  0.30521020564E+02  0.29937410548E+02 -0.65999778681E+02  0.78636836359E+02  0.00000000000E+00 0. -1.
        -12    1    6    6    0    0 -0.45462038824E+02  0.95214080299E+01 -0.67314829226E+02  0.81784719958E+02  0.00000000000E+00 0.  1.
</event>
<event>
12    1  0.1039610E+000  0.3560823E+03  0.7818608E-02  0.1060359E+00
         21   -1    0    0  503  502  0.00000000000E+00  0.00000000000E+00  0.44322699854E+03  0.44322699854E+03  0.00000000000E+00 0. -1.
         21   -1    0    0  501  503 -0.00000000000E+00 -0.00000000000E+00 -0.31093910157E+03  0.31093910157E+03  0.00000000000E+00 0. -1.
          6    2    1    2  501    0 -0.27558862787E+03  0.14052065887E+03 -0.43887425452E+02  0.35877668079E+03  0.17635037053E+03 0.  0.
         24    2    3    3    0    0 -0.16705291823E+03  0.16029475363E+03 -0.18848671841E+02  0.24555104644E+03  0.79617576264E+02 0.  0.
         -6    2    1    2    0  502  0.27558862787E+03 -0.14052065887E+03  0.17617532242E+03  0.39538941932E+03  0.17204621849E+03 0.  0.
        -24    2    5    5    0    0  0.23198454265E+03 -0.11897631037E+03  0.20283703159E+03  0.33972603875E+03  0.79364535912E+02 0.  0.
          5    1    3    3  501    0 -0.10853570964E+03 -0.19774094759E+02 -0.25038753611E+02  0.11322563435E+03  0.47000000000E+01 0. -1.
        -11    1    4    4    0    0 -0.23495766082E+02  0.50954959717E+02  0.22442288422E+02  0.60432733292E+02  0.00000000000E+00 0.  1.
         12    1    4    4    0    0 -0.14355715214E+03  0.10933979391E+03 -0.41290960263E+02  0.18511831315E+03  0.00000000000E+00 0. -1.
         -5    1    5    5    0  502  0.43604085214E+02 -0.21544348505E+02 -0.26661709174E+02  0.55663380565E+02  0.47000000000E+01 0.  1.
         11    1    6    6    0    0  0.62654301134E+02 -0.32618538788E+02  0.10335452620E+03  0.12518661514E+03  0.00000000000E+00 0. -1.
        -12    1    6    6    0    0  0.16933024152E+03 -0.86357771579E+02  0.99482505394E+02  0.21453942361E+03  0.00000000000E+00 0.  1.
</event>
<event>
12    1  0.1039610E+000  0.2241149E+03  0.7818608E-02  0.1130991E+00
         21   -1    0    0  501  502  0.00000000000E+00  0.00000000000E+00  0.25372702815E+03  0.25372702815E+03  0.00000000000E+00 0. -1.
         21   -1    0    0  502  503 -0.00000000000E+00 -0.00000000000E+00 -0.22634794148E+03  0.22634794148E+03  0.00000000000E+00 0. -1.
         -6    2    1    2    0  503  0.55248792278E+02 -0.13127323621E+03 -0.72304303500E+02  0.23548973501E+03  0.17303875693E+03 0.  0.
        -24    2    3    3    0    0 -0.12867468363E+02 -0.87484023673E+02 -0.92423547167E+02  0.15191824428E+03  0.81963496346E+02 0.  0.
          6    2    1    2  501    0 -0.55248792278E+02  0.13127323621E+03  0.99683390171E+02  0.24458523462E+03  0.17204670042E+03 0.  0.
         24    2    5    5    0    0 -0.83947203502E+02  0.13707475942E+03  0.11167525548E+03  0.21259849812E+03  0.83006843516E+02 0.  0.
          5    1    5    5  501    0  0.28698411224E+02 -0.58015232144E+01 -0.11991865307E+02  0.31986736500E+02  0.47000000000E+01 0. -1.
        -13    1    6    6    0    0 -0.54077340698E+02  0.93438959397E+02  0.24603786237E+02  0.11072734173E+03  0.00000000000E+00 0.  1.
         14    1    6    6    0    0 -0.29869862804E+02  0.43635800025E+02  0.87071469241E+02  0.10187115639E+03  0.00000000000E+00 0. -1.
         -5    1    3    3    0  503  0.68116260641E+02 -0.43789212535E+02  0.20119243667E+02  0.83571490736E+02  0.47000000000E+01 0.  1.
         13    1    4    4    0    0 -0.31263697171E+02 -0.22781606952E+00 -0.20938192251E+02  0.37628161737E+02  0.00000000000E+00 0. -1.
        -14    1    4    4    0    0  0.18396228807E+02 -0.87256207603E+02 -0.71485354916E+02  0.11429008254E+03  0.00000000000E+00 0.  1.
</event>
<event>
12    1  0.1039610E+000  0.1956446E+03  0.7818608E-02  0.1153483E+00
         21   -1    0    0  501  502  0.00000000000E+00  0.00000000000E+00  0.81398478658E+02  0.81398478658E+02  0.00000000000E+00 0.  1.
         21   -1    0    0  502  503 -0.00000000000E+00 -0.00000000000E+00 -0.52835248597E+03  0.52835248597E+03  0.00000000000E+00 0.  1.
         -6    2    1    2    0  503  0.24911607979E+02 -0.80938233827E+02 -0.12216641472E+03  0.23058900065E+03  0.17628121973E+03 0.  0.
        -24    2    3    3    0    0  0.28224655353E+02 -0.99924431764E+02 -0.14820297580E+03  0.19785607369E+03  0.80008628460E+02 0.  0.
          6    2    1    2  501    0 -0.24911607979E+02  0.80938233827E+02 -0.32478759259E+03  0.37916196398E+03  0.17636674493E+03 0.  0.
         24    2    5    5    0    0  0.13239476173E+02  0.73490323780E+02 -0.32200582946E+03  0.33990887757E+03  0.79209718024E+02 0.  0.
          5    1    5    5  501    0 -0.38151084153E+02  0.74479100478E+01 -0.27817631335E+01  0.39253086404E+02  0.47000000000E+01 0. -1.
        -13    1    6    6    0    0 -0.38435001757E+01 -0.15294839971E+02 -0.26062057970E+02  0.30462033566E+02  0.00000000000E+00 0.  1.
         14    1    6    6    0    0  0.17082976349E+02  0.88785163751E+02 -0.29594377149E+03  0.30944684401E+03  0.00000000000E+00 0. -1.
         -5    1    3    3    0  503 -0.33130473736E+01  0.18986197937E+02  0.26036561074E+02  0.32732926963E+02  0.47000000000E+01 0.  1.
         13    1    4    4    0    0 -0.23405202070E+02 -0.63795044437E+02 -0.81028323000E+02  0.10575065157E+03  0.00000000000E+00 0. -1.
        -14    1    4    4    0    0  0.51629857423E+02 -0.36129387327E+02 -0.67174652796E+02  0.92105422123E+02  0.00000000000E+00 0.  1.
</event>
<event>
12    1  0.1039610E+000  0.1778618E+03  0.7818608E-02  0.1170018E+00
         21   -1    0    0  503  502  0.00000000000E+00  0.00000000000E+00  0.10684026505E+04  0.10684026505E+04  0.00000000000E+00 0. -1.
         21   -1    0    0  501  503 -0.00000000000E+00 -0.00000000000E+00 -0.64936686396E+02  0.64936686396E+02  0.00000000000E+00 0. -1.
          6    2    1    2  501    0  0.42359109292E+02  0.59227543009E+01  0.91987712691E+03  0.93681473060E+03  0.17210037102E+03 0.  0.
         24    2    3    3    0    0  0.31189091161E+02  0.66813586227E+02  0.43079717834E+03  0.44380991439E+03  0.77098745332E+02 0.  0.
         -6    2    1    2    0  502 -0.42359109292E+02 -0.59227543009E+01  0.83588837189E+02  0.19652460629E+03  0.17264256143E+03 0.  0.
        -24    2    5    5    0    0 -0.92974653380E+02  0.14381489006E+02  0.55662641737E+02  0.13507415477E+03  0.79344717557E+02 0.  0.
          5    1    3    3  501    0  0.11170018131E+02 -0.60890831926E+02  0.48907994857E+03  0.49300481622E+03  0.47000000000E+01 0. -1.
        -13    1    4    4    0    0  0.51287328177E+01 -0.93199280060E+01  0.77099498996E+01  0.13138047260E+02  0.00000000000E+00 0.  1.
         14    1    4    4    0    0  0.26060358344E+02  0.76133514233E+02  0.42308722844E+03  0.43067186713E+03  0.00000000000E+00 0. -1.
         -5    1    5    5    0  502  0.50615544088E+02 -0.20304243306E+02  0.27926195452E+02  0.61450451520E+02  0.47000000000E+01 0.  1.
         11    1    6    6    0    0 -0.15585061167E+02 -0.25061788502E+02  0.35012929491E+02  0.45791839950E+02  0.00000000000E+00 0. -1.
        -12    1    6    6    0    0 -0.77389592214E+02  0.39443277508E+02  0.20649712246E+02  0.89282314819E+02  0.00000000000E+00 0.  1.
</event>
<event>
12    1  0.1039610E+000  0.2534488E+03  0.7818608E-02  0.1111613E+00
         21   -1    0    0  503  502  0.00000000000E+00  0.00000000000E+00  0.30059200920E+03  0.30059200920E+03  0.00000000000E+00 0. -1.
         21   -1    0    0  501  503 -0.00000000000E+00 -0.00000000000E+00 -0.21577310706E+03  0.21577310706E+03  0.00000000000E+00 0. -1.
          6    2    1    2  501    0 -0.13019062450E+03 -0.13328496077E+03  0.44887208604E+01  0.25049060366E+03  0.16736461523E+03 0.  0.
         24    2    3    3    0    0 -0.15590229655E+03 -0.82789391735E+02  0.71082676541E+01  0.19357097087E+03  0.79117531827E+02 0.  0.
         -6    2    1    2    0  502  0.13019062450E+03  0.13328496077E+03  0.80330181274E+02  0.26587451261E+03  0.17181920427E+03 0.  0.
        -24    2    5    5    0    0  0.69526815354E+02  0.31565755000E+02 -0.17154356195E+02  0.11240718837E+03  0.80689089220E+02 0.  0.
          5    1    3    3  501    0  0.25711672045E+02 -0.50495569031E+02 -0.26195467937E+01  0.56919632786E+02  0.47000000000E+01 0. -1.
        -11    1    4    4    0    0 -0.65023257662E+02 -0.68545194210E+02 -0.22149594299E+02  0.97041600430E+02  0.00000000000E+00 0.  1.
         12    1    4    4    0    0 -0.90879038885E+02 -0.14244197525E+02  0.29257861953E+02  0.96529370441E+02  0.00000000000E+00 0. -1.
         -5    1    5    5    0  502  0.60663809148E+02  0.10171920577E+03  0.97484537469E+02  0.15346732423E+03  0.47000000000E+01 0.  1.
         11    1    6    6    0    0 -0.68334566279E+01 -0.15957305162E+02 -0.14184888688E+02  0.22417466061E+02  0.00000000000E+00 0. -1.
        -12    1    6    6    0    0  0.76360271981E+02  0.47523060161E+02 -0.29694675069E+01  0.89989722310E+02  0.00000000000E+00 0.  1.
</event>
<event>
12    1  0.1039610E+000  0.3680680E+03  0.7818608E-02  0.1055464E+00
         21   -1    0    0  503  502  0.00000000000E+00  0.00000000000E+00  0.29574440681E+03  0.29574440681E+03  0.00000000000E+00 0.  1.
         21   -1    0    0  501  503 -0.00000000000E+00 -0.00000000000E+00 -0.73259236209E+03  0.73259236209E+03  0.00000000000E+00 0.  1.
          6    2    1    2  501    0  0.16708945230E+03 -0.27900489928E+03  0.96483556271E+02  0.38050381987E+03  0.17237012912E+03 0.  0.
         24    2    3    3    0    0  0.40267082630E+02 -0.48658390072E+02  0.46611360638E+02  0.11282349999E+03  0.81039782465E+02 0.  0.
         -6    2    1    2    0  502 -0.16708945230E+03  0.27900489928E+03 -0.53333151156E+03  0.64783294903E+03  0.17170442549E+03 0.  0.
        -24    2    5    5    0    0 -0.70877572163E+02  0.18392340885E+03 -0.42165802196E+03  0.47236137303E+03  0.80488065534E+02 0.  0.
          5    1    3    3  501    0  0.12682236967E+03 -0.23034650921E+03  0.49872195633E+02  0.26768031988E+03  0.47000000000E+01 0. -1.
        -13    1    4    4    0    0 -0.29113165023E+01 -0.58353954460E+02  0.28503218945E+02  0.65008409111E+02  0.00000000000E+00 0.  1.
         14    1    4    4    0    0  0.43178399132E+02  0.96955643874E+01  0.18108141692E+02  0.47815090881E+02  0.00000000000E+00 0. -1.
         -5    1    5    5    0  502 -0.96211880134E+02  0.95081490438E+02 -0.11167348960E+03  0.17547157599E+03  0.47000000000E+01 0.  1.
         13    1    6    6    0    0 -0.25437133289E+02  0.11976736869E+03 -0.17577217470E+03  0.21421280950E+03  0.00000000000E+00 0. -1.
        -14    1    6    6    0    0 -0.45440438874E+02  0.64156040151E+02 -0.24588584726E+03  0.25814856354E+03  0.00000000000E+00 0.  1.
</event>
<event>
12    1  0.1039610E+000  0.1887735E+03  0.7818608E-02  0.1159597E+00
         21   -1    0    0  503  502  0.00000000000E+00  0.00000000000E+00  0.18160685569E+04  0.18160685569E+04  0.00000000000E+00 0.  1.
         21   -1    0    0  501  503 -0.00000000000E+00 -0.00000000000E+00 -0.19611436659E+02  0.19611436659E+02  0.00000000000E+00 0.  1.
          6    2    1    2  501    0 -0.45961040718E+02 -0.62979094928E+02  0.90146460851E+03  0.92099588506E+03  0.17180278302E+03 0.  0.
         24    2    3    3    0    0  0.12476695707E+02 -0.53144476038E+02  0.77729284974E+03  0.78332815304E+03  0.80242244541E+02 0.  0.
         -6    2    1    2    0  502  0.45961040718E+02  0.62979094928E+02  0.89499251173E+03  0.91468410849E+03  0.17192044267E+03 0.  0.
        -24    2    5    5    0    0 -0.66982511654E+01  0.79687523790E+02  0.76640324717E+03  0.77465032122E+03  0.79462034193E+02 0.  0.
          5    1    3    3  501    0 -0.58437736425E+02 -0.98346188902E+01  0.12417175876E+03  0.13766773203E+03  0.47000000000E+01 0. -1.
        -13    1    4    4    0    0 -0.17253156467E+02  0.14581535099E+02  0.21755052195E+03  0.21872019151E+03  0.00000000000E+00 0.  1.
         14    1    4    4    0    0  0.29729852174E+02 -0.67726011137E+02  0.55974232779E+03  0.56460796152E+03  0.00000000000E+00 0. -1.
         -5    1    5    5    0  502  0.52659291883E+02 -0.16708428862E+02  0.12858926455E+03  0.14003378726E+03  0.47000000000E+01 0.  1.
         11    1    6    6    0    0 -0.23241403581E+02  0.52662545321E+02  0.22252045058E+03  0.22984529024E+03  0.00000000000E+00 0. -1.
        -12    1    6    6    0    0  0.16543152416E+02  0.27024978470E+02  0.54388279659E+03  0.54480503098E+03  0.00000000000E+00 0.  1.
</event>
<event>
12    1  0.1039610E+000  0.1748515E+03  0.7818608E-02  0.1173137E+00
         21   -1    0    0  501  502  0.00000000000E+00  0.00000000000E+00  0.28052475444E+03  0.28052475444E+03  0.00000000000E+00 0.  1.
         21   -1    0    0  502  503 -0.00000000000E+00 -0.00000000000E+00 -0.10837906165E+03  0.10837906165E+03  0.00000000000E+00 0.  1.
         -6    2    1    2    0  503  0.14945655196E+02  0.37126711565E+02  0.83359559517E+02  0.19370559463E+03  0.17020950593E+03 0.  0.
        -24    2    3    3    0    0 -0.53276472567E+02  0.14566545997E+02  0.21249555895E+02  0.98611103010E+02  0.78879903776E+02 0.  0.
          6    2    1    2  501    0 -0.14945655196E+02 -0.37126711565E+02  0.88786133273E+02  0.19519822146E+03  0.16916738125E+03 0.  0.
         24    2    5    5    0    0 -0.47206165906E+02 -0.51331951436E+02  0.18832271024E+02  0.11672426251E+03  0.91687009373E+02 0.  0.
          5    1    5    5  501    0  0.32260510710E+02  0.14205239871E+02  0.69953862249E+02  0.78473958958E+02  0.47000000000E+01 0. -1.
        -11    1    6    6    0    0 -0.13670637539E+02  0.24950232428E+02  0.17468414673E+02  0.33384816011E+02  0.00000000000E+00 0.  1.
         12    1    6    6    0    0 -0.33535528367E+02 -0.76282183863E+02  0.13638563508E+01  0.83339446494E+02  0.00000000000E+00 0. -1.
         -5    1    3    3    0  503  0.68222127763E+02  0.22560165568E+02  0.62110003622E+02  0.95094491623E+02  0.47000000000E+01 0.  1.
         13    1    4    4    0    0  0.11876988064E+02 -0.17714047690E+02 -0.38839509243E+01  0.21677993584E+02  0.00000000000E+00 0. -1.
        -14    1    4    4    0    0 -0.65153460631E+02  0.32280593686E+02  0.25133506819E+02  0.76933109426E+02  0.00000000000E+00 0.  1.
</event>
<event>
12    1  0.1039610E+000  0.2053865E+03  0.7818608E-02  0.1145536E+00
         21   -1    0    0  503  502  0.00000000000E+00  0.00000000000E+00  0.57415444538E+02  0.57415444538E+02  0.00000000000E+00 0. -1.
         21   -1    0    0  501  503 -0.00000000000E+00 -0.00000000000E+00 -0.11247767091E+04  0.11247767091E+04  0.00000000000E+00 0. -1.
          6    2    1    2  501    0 -0.10361589737E+03 -0.37271698865E+02 -0.18244983211E+03  0.27375841789E+03  0.17184381398E+03 0.  0.
         24    2    3    3    0    0 -0.53958116779E+02 -0.26005038377E+02 -0.15685727503E+02  0.99330239552E+02  0.77670548181E+02 0.  0.
         -6    2    1    2    0  502  0.10361589737E+03  0.37271698865E+02 -0.88491143240E+03  0.90843373570E+03  0.17337293687E+03 0.  0.
        -24    2    5    5    0    0  0.96580264847E+02 -0.34894448662E+02 -0.58106865062E+03  0.59602378225E+03  0.84013107127E+02 0.  0.
          5    1    3    3  501    0 -0.49657780595E+02 -0.11266660487E+02 -0.16676410461E+03  0.17442817834E+03  0.47000000000E+01 0. -1.
        -11    1    4    4    0    0 -0.45855637095E+02  0.15947853750E+02 -0.26422077108E+02  0.55273860471E+02  0.00000000000E+00 0.  1.
         12    1    4    4    0    0 -0.81024796840E+01 -0.41952892128E+02  0.10736349605E+02  0.44056379081E+02  0.00000000000E+00 0. -1.
         -5    1    5    5    0  502  0.70356325282E+01  0.72166147526E+02 -0.30384278178E+03  0.31240995345E+03  0.47000000000E+01 0.  1.
         13    1    6    6    0    0  0.11731260081E+02 -0.92446349992E+01 -0.96757766365E+01  0.17796246595E+02  0.00000000000E+00 0. -1.
        -14    1    6    6    0    0  0.84849004766E+02 -0.25649813662E+02 -0.57139287398E+03  0.57822753566E+03  0.00000000000E+00 0.  1.
</event>
<event>
12    1  0.1039610E+000  0.1815558E+03  0.7818608E-02  0.1166397E+00
         21   -1    0    0  501  502  0.00000000000E+00  0.00000000000E+00  0.15711067340E+03  0.15711067340E+03  0.00000000000E+00 0.  1.
         21   -1    0    0  502  503 -0.00000000000E+00 -0.00000000000E+00 -0.85500998461E+03  0.85500998461E+03  0.00000000000E+00 0.  1.
         -6    2    1    2    0  503  0.44440392874E+02 -0.37005146960E+02  0.90718576537E+02  0.20295901546E+03  0.17209930972E+03 0.  0.
        -24    2    3    3    0    0  0.41995025003E+02 -0.90360793175E+02  0.68371461766E+02  0.14487039054E+03  0.79900677105E+02 0.  0.
          6    2    1    2  501    0 -0.44440392874E+02  0.37005146960E+02 -0.78861788775E+03  0.80916164254E+03  0.17169758725E+03 0.  0.
         24    2    5    5    0    0 -0.15863905468E+02  0.57864525718E+02 -0.25212804538E+03  0.27148593147E+03  0.80846106185E+02 0.  0.
          5    1    5    5  501    0 -0.28576487406E+02 -0.20859378758E+02 -0.53648984237E+03  0.53767571107E+03  0.47000000000E+01 0. -1.
        -13    1    6    6    0    0 -0.12632183350E+02 -0.16500395350E+02 -0.99844602209E+02  0.10198421296E+03  0.00000000000E+00 0.  1.
         14    1    6    6    0    0 -0.32317221176E+01  0.74364921069E+02 -0.15228344317E+03  0.16950171851E+03  0.00000000000E+00 0. -1.
         -5    1    3    3    0  503  0.24453678707E+01  0.53355646215E+02  0.22347114772E+02  0.58088624924E+02  0.47000000000E+01 0.  1.
         11    1    4    4    0    0  0.16105721560E+02 -0.98701957845E+02  0.48259494033E+02  0.11104255722E+03  0.00000000000E+00 0. -1.
        -12    1    4    4    0    0  0.25889303444E+02  0.83411646698E+01  0.20111967733E+02  0.33827833317E+02  0.00000000000E+00 0.  1.
</event>
<event>
12    1  0.1039610E+000  0.2335551E+03  0.7818608E-02  0.1124169E+00
         21   -1    0    0  503  502  0.00000000000E+00  0.00000000000E+00  0.95044433995E+02  0.95044433995E+02  0.00000000000E+00 0. -1.
         21   -1    0    0  501  503 -0.00000000000E+00 -0.00000000000E+00 -0.77694376462E+03  0.77694376462E+03  0.00000000000E+00 0. -1.
          6    2    1    2  501    0  0.77843484907E+02 -0.13756410084E+03 -0.11800419309E+03  0.26163935017E+03  0.17189144827E+03 0.  0.
         24    2    3    3    0    0 -0.16140929731E+02 -0.38231204971E+02 -0.59700283017E+02  0.11290626600E+03  0.86380243480E+02 0.  0.
         -6    2    1    2    0  502 -0.77843484907E+02  0.13756410084E+03 -0.56389513753E+03  0.61034884845E+03  0.17194330660E+03 0.  0.
        -24    2    5    5    0    0 -0.78984999374E+02  0.67620183828E+02 -0.49450058785E+03  0.51170226661E+03  0.80605576000E+02 0.  0.
          5    1    3    3  501    0  0.93984414638E+02 -0.99332895867E+02 -0.58303910075E+02  0.14873308417E+03  0.47000000000E+01 0. -1.
        -13    1    4    4    0    0  0.25219802543E+02 -0.40426949980E+02 -0.52442630701E+02  0.70856236421E+02  0.00000000000E+00 0.  1.
         14    1    4    4    0    0 -0.41360732275E+02  0.21957450086E+01 -0.72576523159E+01  0.42050029579E+02  0.00000000000E+00 0. -1.
         -5    1    5    5    0  502  0.11415144675E+01  0.69943917011E+02 -0.69394549679E+02  0.98646581832E+02  0.47000000000E+01 0.  1.
         11    1    6    6    0    0 -0.56187150470E+01  0.14506626231E+02 -0.25772669759E+03  0.25819578388E+03  0.00000000000E+00 0. -1.
        -12    1    6    6    0    0 -0.73366284327E+02  0.53113557597E+02 -0.23677389027E+03  0.25350648273E+03  0.00000000000E+00 0.  1.
</event>
<event>
12    1  0.1039610E+000  0.1771712E+03  0.7818608E-02  0.1171338E+00
         21   -1    0    0  503  502  0.00000000000E+00  0.00000000000E+00  0.36830895355E+02  0.36830895355E+02  0.00000000000E+00 0.  1.
         21   -1    0    0  501  503 -0.00000000000E+00 -0.00000000000E+00 -0.84775125809E+03  0.84775125809E+03  0.00000000000E+00 0.  1.
          6    2    1    2  501    0  0.27992252277E+02 -0.34544863528E+02 -0.45059002524E+03  0.48305059495E+03  0.16831397046E+03 0.  0.
         24    2    3    3    0    0  0.31473157367E+02 -0.39594839451E+02 -0.46069100016E+03  0.47033294378E+03  0.80115974841E+02 0.  0.
         -6    2    1    2    0  502 -0.27992252277E+02  0.34544863528E+02 -0.36033033749E+03  0.40153155849E+03  0.17150138939E+03 0.  0.
        -24    2    5    5    0    0 -0.76196544586E+02  0.53471460587E+02 -0.20611499872E+03  0.23878534321E+03  0.76615513663E+02 0.  0.
          5    1    3    3  501    0 -0.34809050898E+01  0.50499759233E+01  0.10100974921E+02  0.12717651176E+02  0.47000000000E+01 0. -1.
        -13    1    4    4    0    0  0.83723806778E+01 -0.56271847453E+02 -0.19531832300E+03  0.20343516135E+03  0.00000000000E+00 0.  1.
         14    1    4    4    0    0  0.23100776689E+02  0.16677008002E+02 -0.26537267717E+03  0.26689778243E+03  0.00000000000E+00 0. -1.
         -5    1    5    5    0  502  0.48204292309E+02 -0.18926597059E+02 -0.15421533877E+03  0.16274621527E+03  0.47000000000E+01 0.  1.
         13    1    6    6    0    0 -0.56938533151E+02 -0.60457144293E+01 -0.85296248757E+02  0.10273264950E+03  0.00000000000E+00 0. -1.
        -14    1    6    6    0    0 -0.19258011435E+02  0.59517175016E+02 -0.12081874996E+03  0.13605269372E+03  0.00000000000E+00 0.  1.
</event>
<event>
12    1  0.1039610E+000  0.1979177E+03  0.7818608E-02  0.1151871E+00
         21   -1    0    0  503  502  0.00000000000E+00  0.00000000000E+00  0.74356109861E+02  0.74356109861E+02  0.00000000000E+00 0. -1.
         21   -1    0    0  501  503 -0.00000000000E+00 -0.00000000000E+00 -0.72099592381E+03  0.72099592381E+03  0.00000000000E+00 0. -1.
          6    2    1    2  501    0 -0.41563395904E+02 -0.87363405655E+02 -0.11355933359E+03  0.22671661957E+03  0.17071854855E+03 0.  0.
         24    2    3    3    0    0  0.38788799072E+02 -0.50743056150E+02 -0.35721562328E+02  0.10891027904E+03  0.80659718472E+02 0.  0.
         -6    2    1    2    0  502  0.41563395904E+02  0.87363405655E+02 -0.53308048035E+03  0.56863541409E+03  0.17266023022E+03 0.  0.
        -24    2    5    5    0    0  0.90049845012E+02  0.70922043861E+02 -0.44762793387E+03  0.46890837751E+03  0.79783384416E+02 0.  0.
          5    1    3    3  501    0 -0.80352194977E+02 -0.36620349505E+02 -0.77837771265E+02  0.11780634054E+03  0.47000000000E+01 0. -1.
        -13    1    4    4    0    0  0.44228735443E+02 -0.11158182002E+02 -0.48865500892E+02  0.66847013710E+02  0.00000000000E+00 0.  1.
         14    1    4    4    0    0 -0.54399363712E+01 -0.39584874147E+02  0.13143938564E+02  0.42063265327E+02  0.00000000000E+00 0. -1.
         -5    1    5    5    0  502 -0.48486449108E+02  0.16441361794E+02 -0.85452546489E+02  0.99727036585E+02  0.47000000000E+01 0.  1.
         11    1    6    6    0    0  0.24723577919E+02  0.69847203260E+02 -0.25121936187E+03  0.26191803086E+03  0.00000000000E+00 0. -1.
        -12    1    6    6    0    0  0.65326267093E+02  0.10748406015E+01 -0.19640857199E+03  0.20699034665E+03  0.00000000000E+00 0.  1.
</event>
<event>
12    1  0.1039610E+000  0.2081731E+03  0.7818608E-02  0.1143158E+00
         21   -1    0    0  501  502  0.00000000000E+00  0.00000000000E+00  0.13988835120E+04  0.13988835120E+04  0.00000000000E+00 0.  1.
         21   -1    0    0  502  503 -0.00000000000E+00 -0.00000000000E+00 -0.31129236606E+02  0.31129236606E+02  0.00000000000E+00 0.  1.
         -6    2    1    2    0  503  0.10942897684E+03 -0.39966874890E+02  0.62065885829E+03  0.65463993638E+03  0.17252239237E+03 0.  0.
        -24    2    3    3    0    0  0.38702190360E+02  0.29821048660E+01  0.50262234918E+03  0.51041233614E+03  0.79904783981E+02 0.  0.
          6    2    1    2  501    0 -0.10942897684E+03  0.39966874890E+02  0.74709541711E+03  0.77537281223E+03  0.17169561327E+03 0.  0.
         24    2    5    5    0    0 -0.13859816681E+03  0.50226387240E+02  0.69355730581E+03  0.71336863012E+03  0.78364049054E+02 0.  0.
          5    1    5    5  501    0  0.29169189968E+02 -0.10259512349E+02  0.53538111300E+02  0.62004182106E+02  0.47000000000E+01 0. -1.
        -11    1    6    6    0    0 -0.23789942817E+02  0.14984042061E+02  0.31420014756E+03  0.31545556838E+03  0.00000000000E+00 0.  1.
         12    1    6    6    0    0 -0.11480822399E+03  0.35242345179E+02  0.37935715825E+03  0.39791306174E+03  0.00000000000E+00 0. -1.
         -5    1    3    3    0  503  0.70726786482E+02 -0.42948979756E+02  0.11803650911E+03  0.14422760024E+03  0.47000000000E+01 0.  1.
         11    1    4    4    0    0  0.62051632232E+02  0.56571571754E+01  0.29797978371E+03  0.30442463762E+03  0.00000000000E+00 0. -1.
        -12    1    4    4    0    0 -0.23349441872E+02 -0.26750523095E+01  0.20464256546E+03  0.20598769851E+03  0.00000000000E+00 0.  1.
</event>
<event>
12    1  0.1039610E+000  0.1778692E+03  0.7818608E-02  0.1170062E+00
         21   -1    0    0  501  502  0.00000000000E+00  0.00000000000E+00  0.61494340413E+03  0.61494340413E+03  0.00000000000E+00 0. -1.
         21   -1    0    0  502  503 -0.00000000000E+00 -0.00000000000E+00 -0.57058574547E+02  0.57058574547E+02  0.00000000000E+00 0. -1.
         -6    2    1    2    0  503 -0.23919098466E+02 -0.34106753391E+02  0.17212053347E+03  0.24751348570E+03  0.17292210288E+03 0.  0.
        -24    2    3    3    0    0 -0.67359805260E+02 -0.36640066100E+02  0.54423221330E+02  0.12194175335E+03  0.77640623276E+02 0.  0.
          6    2    1    2  501    0  0.23919098466E+02  0.34106753391E+02  0.38576429611E+03  0.42448849298E+03  0.17216560230E+03 0.  0.
         24    2    5    5    0    0 -0.31914981360E+02  0.55178388529E+02  0.14974726694E+03  0.18099806947E+03  0.79201241159E+02 0.  0.
          5    1    5    5  501    0  0.55834079827E+02 -0.21071635138E+02  0.23601702917E+03  0.24349042350E+03  0.47000000000E+01 0. -1.
        -11    1    6    6    0    0  0.24766532286E+02  0.17459780499E+02  0.69114383356E+02  0.75465376453E+02  0.00000000000E+00 0.  1.
         12    1    6    6    0    0 -0.56681513646E+02  0.37718608030E+02  0.80632883586E+02  0.10553269302E+03  0.00000000000E+00 0. -1.
         -5    1    3    3    0  503  0.43440706794E+02  0.25333127091E+01  0.11769731214E+03  0.12557173235E+03  0.47000000000E+01 0.  1.
         11    1    4    4    0    0 -0.28169983220E+02  0.16363914725E+02 -0.52823450614E+01  0.33003466925E+02  0.00000000000E+00 0. -1.
        -12    1    4    4    0    0 -0.39189822040E+02 -0.53003980825E+02  0.59705566392E+02  0.88938286429E+02  0.00000000000E+00 0.  1.
</event>
<event>
12    1  0.1039610E+000  0.2437619E+03  0.7818608E-02  0.1118055E+00
         21   -1    0    0  501  502  0.00000000000E+00  0.00000000000E+00  0.28644474281E+03  0.28644474281E+03  0.00000000000E+00 0.  1.
         21   -1    0    0  502  503 -0.00000000000E+00 -0.00000000000E+00 -0.21661844410E+03  0.21661844410E+03  0.00000000000E+00 0.  1.
         -6    2    1    2    0  503  0.16869856325E+03  0.20288634230E+02  0.96216029543E+02  0.25787698135E+03  0.16844043234E+03 0.  0.
        -24    2    3    3    0    0  0.72440367058E+02 -0.10880817308E+01  0.11456698115E+03  0.15747054856E+03  0.80141061852E+02 0.  0.
          6    2    1    2  501    0 -0.16869856325E+03 -0.20288634230E+02 -0.26389730827E+02  0.24518620556E+03  0.17478278972E+03 0.  0.
         24    2    5    5    0    0 -0.11527858564E+03 -0.69166501967E+02 -0.29765927036E+02  0.17254855236E+03  0.10398959182E+03 0.  0.
          5    1    5    5  501    0 -0.53419977608E+02  0.48877867736E+02  0.33761962090E+01  0.72637653204E+02  0.47000000000E+01 0. -1.
        -11    1    6    6    0    0 -0.48255295814E+02 -0.56283611712E+02  0.31765237914E+02  0.80656362806E+02  0.00000000000E+00 0.  1.
         12    1    6    6    0    0 -0.67023289829E+02 -0.12882890255E+02 -0.61531164950E+02  0.91892189553E+02  0.00000000000E+00 0. -1.
         -5    1    3    3    0  503  0.96258196193E+02  0.21376715961E+02 -0.18350951604E+02  0.10040643278E+03  0.47000000000E+01 0.  1.
         13    1    4    4    0    0  0.81566622495E+02 -0.63844616260E+01  0.12028206883E+03  0.14547044833E+03  0.00000000000E+00 0. -1.
        -14    1    4    4    0    0 -0.91262554367E+01  0.52963798953E+01 -0.57150876868E+01  0.12000100231E+02  0.00000000000E+00 0.  1.
</event>
<event>
12    1  0.1039610E+000  0.2622376E+03  0.7818608E-02  0.1105857E+00
         21   -1    0    0  501  502  0.00000000000E+00  0.00000000000E+00  0.79672403451E+03  0.79672403451E+03  0.00000000000E+00 0. -1.
         21   -1    0    0  502  503 -0.00000000000E+00 -0.00000000000E+00 -0.86775454032E+02  0.86775454032E+02  0.00000000000E+00 0. -1.
         -6    2    1    2    0  503  0.98410701689E+02  0.17144328055E+03  0.31928455199E+03  0.41317206820E+03  0.17231096353E+03 0.  0.
        -24    2    3    3    0    0  0.78552764425E+02  0.47247339394E+02  0.88953293875E+02  0.15069626373E+03  0.79961412765E+02 0.  0.
          6    2    1    2  501    0 -0.98410701689E+02 -0.17144328055E+03  0.39066402849E+03  0.47032742034E+03  0.17179067062E+03 0.  0.
         24    2    5    5    0    0 -0.10775466758E+03 -0.16969392784E+03  0.40072703971E+03  0.45570811364E+03  0.81735102328E+02 0.  0.
          5    1    5    5  501    0  0.93439658909E+01 -0.17493527144E+01 -0.10063011220E+02  0.14619306697E+02  0.47000000000E+01 0. -1.
        -13    1    6    6    0    0 -0.67564725750E+02 -0.54324848199E+02  0.10787509831E+03  0.13839515213E+03  0.00000000000E+00 0.  1.
         14    1    6    6    0    0 -0.40189941830E+02 -0.11536907964E+03  0.29285194140E+03  0.31731296151E+03  0.00000000000E+00 0. -1.
         -5    1    3    3    0  503  0.19857937264E+02  0.12419594116E+03  0.23033125811E+03  0.26247580448E+03  0.47000000000E+01 0.  1.
         13    1    4    4    0    0 -0.40084249289E+01  0.21541767940E+02 -0.55490467440E+01  0.22603255433E+02  0.00000000000E+00 0. -1.
        -14    1    4    4    0    0  0.82561189354E+02  0.25705571454E+02  0.94502340619E+02  0.12809300829E+03  0.00000000000E+00 0.  1.
</event>
<event>
12    1  0.1039610E+000  0.2869830E+03  0.7818608E-02  0.1093501E+00
         21   -1    0    0  501  502  0.00000000000E+00  0.00000000000E+00  0.12817810229E+04  0.12817810229E+04  0.00000000000E+00 0.  1.
         21   -1    0    0  502  503 -0.00000000000E+00 -0.00000000000E+00 -0.11790990269E+03  0.11790990269E+03  0.00000000000E+00 0.  1.
         -6    2    1    2    0  503  0.13043860905E+03  0.17112511218E+03  0.10588743359E+04  0.10941036857E+04  0.17190107926E+03 0.  0.
        -24    2    3    3    0    0  0.32756535110E+02  0.16989545911E+02  0.44887106313E+03  0.45737325359E+03  0.79645630930E+02 0.  0.
          6    2    1    2  501    0 -0.13043860905E+03 -0.17112511218E+03  0.10499678432E+03  0.30558723992E+03  0.18989787185E+03 0.  0.
         24    2    5    5    0    0  0.12545986249E+02 -0.62464864583E+02  0.93325065891E+01  0.10205496254E+03  0.79176124064E+02 0.  0.
          5    1    5    5  501    0 -0.14298459530E+03 -0.10866024759E+03  0.95664277730E+02  0.20353227738E+03  0.47000000000E+01 0. -1.
        -13    1    6    6    0    0  0.87981120801E+01  0.35098649205E+01  0.31076724301E+02  0.32488285908E+02  0.00000000000E+00 0.  1.
         14    1    6    6    0    0  0.37478741689E+01 -0.65974729504E+02 -0.21744217712E+02  0.69566676633E+02  0.00000000000E+00 0. -1.
         -5    1    3    3    0  503  0.97682073941E+02  0.15413556627E+03  0.61000327275E+03  0.63673043207E+03  0.47000000000E+01 0.  1.
         11    1    4    4    0    0  0.11817908005E+02  0.33643272853E+02  0.80648075206E+02  0.88179616649E+02  0.00000000000E+00 0. -1.
        -12    1    4    4    0    0  0.20938627104E+02 -0.16653726943E+02  0.36822298792E+03  0.36919363694E+03  0.00000000000E+00 0.  1.
</event>
<event>
12    1  0.1039610E+000  0.2688135E+03  0.7818608E-02  0.1102456E+00
         21   -1    0    0  501  502  0.00000000000E+00  0.00000000000E+00  0.16278572091E+03  0.16278572091E+03  0.00000000000E+00 0.  1.
         21   -1    0    0  502  503 -0.00000000000E+00 -0.00000000000E+00 -0.82154424022E+03  0.82154424022E+03  0.00000000000E+00 0.  1.
         -6    2    1    2    0  503 -0.16803557163E+03  0.11162773510E+03  0.56542512580E+01  0.26887291741E+03  0.17766251879E+03 0.  0.
        -24    2    3    3    0    0 -0.11324501686E+03  0.14150066815E+03  0.40392648095E+02  0.19729608292E+03  0.66688120272E+02 0.  0.
          6    2    1    2  501    0  0.16803557163E+03 -0.11162773510E+03 -0.66441277057E+03  0.71545704372E+03  0.17244636014E+03 0.  0.
         24    2    5    5    0    0  0.12820439748E+03 -0.81402291736E+02 -0.63400447969E+03  0.65674712961E+03  0.79324720872E+02 0.  0.
          5    1    5    5  501    0  0.39831174151E+02 -0.30225443364E+02 -0.30408290881E+02  0.58709914112E+02  0.47000000000E+01 0. -1.
        -11    1    6    6    0    0  0.23359898822E+02  0.14471256605E+02 -0.72059609180E+02  0.77121264357E+02  0.00000000000E+00 0.  1.
         12    1    6    6    0    0  0.10484449866E+03 -0.95873548342E+02 -0.56194487051E+03  0.57962586525E+03  0.00000000000E+00 0. -1.
         -5    1    3    3    0  503 -0.54790554773E+02 -0.29872933047E+02 -0.34738396837E+02  0.71576834492E+02  0.47000000000E+01 0.  1.
         13    1    4    4    0    0 -0.11469901985E+03  0.12881595426E+03  0.20549279004E+02  0.17369999452E+03  0.00000000000E+00 0. -1.
        -14    1    4    4    0    0  0.14540029901E+01  0.12684713882E+02  0.19843369091E+02  0.23596088401E+02  0.00000000000E+00 0.  1.
</event>
<event>
12    1  0.1039610E+000  0.2970180E+03  0.7818608E-02  0.1086777E+00
         21   -1    0    0  501  502  0.00000000000E+00  0.00000000000E+00  0.49300462231E+03  0.49300462231E+03  0.00000000000E+00 0.  1.
         21   -1    0    0  502  503 -0.00000000000E+00 -0.00000000000E+00 -0.20287283814E+03  0.20287283814E+03  0.00000000000E+00 0.  1.
         -6    2    1    2    0  503  0.23865309785E+03 -0.39116352344E+02  0.26504819556E+03  0.39808320621E+03  0.17243637367E+03 0.  0.
        -24    2    3    3    0    0  0.83638357101E+02  0.37413125981E+02  0.80117971242E+02  0.14488840222E+03  0.78604344715E+02 0.  0.
          6    2    1    2  501    0 -0.23865309785E+03  0.39116352344E+02  0.25083588610E+02  0.29779425424E+03  0.17195011286E+03 0.  0.
         24    2    5    5    0    0 -0.45152993761E+02 -0.14220945520E+02 -0.12885421373E+02  0.93463900790E+02  0.79551483517E+02 0.  0.
          5    1    5    5  501    0 -0.19350010408E+03  0.53337297864E+02  0.37969009983E+02  0.20433035345E+03  0.47000000000E+01 0. -1.
        -13    1    6    6    0    0 -0.61148979784E+02 -0.29217023619E+02  0.50500232394E+00  0.67772319018E+02  0.00000000000E+00 0.  1.
         14    1    6    6    0    0  0.15995986022E+02  0.14996078098E+02 -0.13390423697E+02  0.25691581772E+02  0.00000000000E+00 0. -1.
         -5    1    3    3    0  503  0.15501474074E+03 -0.76529478325E+02  0.18493022432E+03  0.25319480399E+03  0.47000000000E+01 0.  1.
         11    1    4    4    0    0  0.45113879889E+02 -0.58288202468E+01 -0.66141879996E+00  0.45493678450E+02  0.00000000000E+00 0. -1.
        -12    1    4    4    0    0  0.38524477212E+02  0.43241946228E+02  0.80779390042E+02  0.99394723771E+02  0.00000000000E+00 0.  1.
</event>
<event>
12    1  0.1039610E+000  0.2035120E+03  0.7818608E-02  0.1146840E+00
         21   -1    0    0  501  502  0.00000000000E+00  0.00000000000E+00  0.54616332136E+03  0.54616332136E+03  0.00000000000E+00 0.  1.
         21   -1    0    0  502  503 -0.00000000000E+00 -0.00000000000E+00 -0.86210907591E+02  0.86210907591E+02  0.00000000000E+00 0.  1.
         -6    2    1    2    0  503 -0.97325164713E+02 -0.50216128306E+02  0.11990645162E+03  0.23608091837E+03  0.17135575756E+03 0.  0.
        -24    2    3    3    0    0 -0.70850072822E+02 -0.25152732798E+02  0.15164890042E+03  0.18751367282E+03  0.80694458980E+02 0.  0.
          6    2    1    2  501    0  0.97325164713E+02  0.50216128306E+02  0.34004596215E+03  0.39629331058E+03  0.17153216727E+03 0.  0.
         24    2    5    5    0    0  0.30660335726E+02 -0.36319761983E+02  0.17101712765E+03  0.19498385570E+03  0.80701082624E+02 0.  0.
          5    1    5    5  501    0  0.66664828986E+02  0.86535890289E+02  0.16902883450E+03  0.20130945488E+03  0.47000000000E+01 0. -1.
        -11    1    6    6    0    0  0.37461139544E+02 -0.14026321245E+02  0.25114952084E+02  0.47231721139E+02  0.00000000000E+00 0.  1.
         12    1    6    6    0    0 -0.68008038178E+01 -0.22293440738E+02  0.14590217556E+03  0.14775213456E+03  0.00000000000E+00 0. -1.
         -5    1    3    3    0  503 -0.26475091890E+02 -0.25063395508E+02 -0.31742448797E+02  0.48567245553E+02  0.47000000000E+01 0.  1.
         11    1    4    4    0    0 -0.41223365682E+01 -0.41213979938E+02  0.63113000744E+02  0.75490639579E+02  0.00000000000E+00 0. -1.
        -12    1    4    4    0    0 -0.66727736254E+02  0.16061247140E+02  0.88535899673E+02  0.11202303324E+03  0.00000000000E+00 0.  1.
</event>
<event>
12    1  0.1039610E+000  0.5733879E+03  0.7818608E-02  0.9962778E-01
         21   -1    0    0  503  502  0.00000000000E+00  0.00000000000E+00  0.60028126647E+03  0.60028126647E+03  0.00000000000E+00 0.  1.
         21   -1    0    0  501  503 -0.00000000000E+00 -0.00000000000E+00 -0.54682398994E+03  0.54682398994E+03  0.00000000000E+00 0.  1.
          6    2    1    2  501    0 -0.45232632604E+03 -0.30760008627E+03  0.18521170612E+02  0.57265400075E+03  0.16844183717E+03 0.  0.
         24    2    3    3    0    0 -0.15738424019E+03 -0.13022688101E+03 -0.41171347340E+02  0.22331551926E+03  0.80286373077E+02 0.  0.
         -6    2    1    2    0  502  0.45232632604E+03  0.30760008627E+03  0.34936105917E+02  0.57445125566E+03  0.17192089845E+03 0.  0.
        -24    2    5    5    0    0  0.20990503950E+03  0.21691997767E+03 -0.32709720129E+01  0.31277811399E+03  0.81884351457E+02 0.  0.
          5    1    3    3  501    0 -0.29494208585E+03 -0.17737320525E+03  0.59692517952E+02  0.34933848149E+03  0.47000000000E+01 0. -1.
        -11    1    4    4    0    0 -0.17071834323E+02 -0.60248439619E+02 -0.91662505309E+01  0.63287772535E+02  0.00000000000E+00 0.  1.
         12    1    4    4    0    0 -0.14031240587E+03 -0.69978441394E+02 -0.32005096809E+02  0.16002774672E+03  0.00000000000E+00 0. -1.
         -5    1    5    5    0  502  0.24242128655E+03  0.90680108595E+02  0.38207077930E+02  0.26167314167E+03  0.47000000000E+01 0.  1.
         13    1    6    6    0    0  0.86954300540E+00  0.36833723332E+02  0.23878177065E+00  0.36844759414E+02  0.00000000000E+00 0. -1.
        -14    1    6    6    0    0  0.20903549649E+03  0.18008625434E+03 -0.35097537835E+01  0.27593335457E+03  0.00000000000E+00 0.  1.
</event>
<event>
12    1  0.1039610E+000  0.2357934E+03  0.7818608E-02  0.1123049E+00
         21   -1    0    0  503  502  0.00000000000E+00  0.00000000000E+00  0.12394200796E+03  0.12394200796E+03  0.00000000000E+00 0. -1.
         21   -1    0    0  501  503 -0.00000000000E+00 -0.00000000000E+00 -0.45152255431E+03  0.45152255431E+03  0.00000000000E+00 0.  1.
          6    2    1    2  501    0 -0.93036794647E+02  0.13016794807E+03 -0.20029381563E+03  0.30750856356E+03  0.16983628652E+03 0.  0.
         24    2    3    3    0    0 -0.10816620141E+03  0.12111970193E+03 -0.21727918339E+03  0.28258142123E+03  0.79196633553E+02 0.  0.
         -6    2    1    2    0  502  0.93036794647E+02 -0.13016794807E+03 -0.12728673072E+03  0.26795599872E+03  0.17320209458E+03 0.  0.
        -24    2    5    5    0    0  0.22461003504E+02 -0.65621892293E+02 -0.13393298778E+03  0.17196954996E+03  0.82612054022E+02 0.  0.
          5    1    3    3  501    0  0.15129406760E+02  0.90482461389E+01  0.16985367756E+02  0.24927142333E+02  0.47000000000E+01 0. -1.
        -13    1    4    4    0    0 -0.53579947110E+02  0.59862437210E+02 -0.16964650231E+03  0.18770790571E+03  0.00000000000E+00 0.  1.
         14    1    4    4    0    0 -0.54586254297E+02  0.61257264723E+02 -0.47632681078E+02  0.94873515515E+02  0.00000000000E+00 0. -1.
         -5    1    5    5    0  502  0.70575791143E+02 -0.64546055779E+02  0.66462570612E+01  0.95986448757E+02  0.47000000000E+01 0.  1.
         13    1    6    6    0    0 -0.25169450939E+01 -0.42389082884E+02 -0.10270227405E+02  0.43688063946E+02  0.00000000000E+00 0. -1.
        -14    1    6    6    0    0  0.24977948598E+02 -0.23232809408E+02 -0.12366276038E+03  0.12828148601E+03  0.00000000000E+00 0.  1.
</event>
<event>
12    1  0.1039610E+000  0.1786346E+03  0.7818608E-02  0.1169144E+00
         21   -1    0    0  503  502  0.00000000000E+00  0.00000000000E+00  0.12255751015E+03  0.12255751015E+03  0.00000000000E+00 0. -1.
         21   -1    0    0  501  503 -0.00000000000E+00 -0.00000000000E+00 -0.26101583676E+03  0.26101583676E+03  0.00000000000E+00 0. -1.
          6    2    1    2  501    0  0.46074185896E+02 -0.66628624570E+01 -0.79317240892E+02  0.19540321473E+03  0.17240640151E+03 0.  0.
         24    2    3    3    0    0  0.32038540090E+02  0.13508236367E+02  0.21882236441E+02  0.91156887246E+02  0.81374475850E+02 0.  0.
         -6    2    1    2    0  502 -0.46074185896E+02  0.66628624570E+01 -0.59141085712E+02  0.18817013219E+03  0.17246189807E+03 0.  0.
        -24    2    5    5    0    0 -0.79578774546E+02  0.49272000626E+02 -0.46626054944E+02  0.13234171549E+03  0.81116146693E+02 0.  0.
          5    1    3    3  501    0  0.14035645806E+02 -0.20171098824E+02 -0.10119947733E+03  0.10424632748E+03  0.47000000000E+01 0. -1.
        -13    1    4    4    0    0 -0.96550766377E+01 -0.15157745022E+02  0.34597090854E+02  0.38986362162E+02  0.00000000000E+00 0.  1.
         14    1    4    4    0    0  0.41693616727E+02  0.28665981389E+02 -0.12714854414E+02  0.52170525084E+02  0.00000000000E+00 0. -1.
         -5    1    5    5    0  502  0.33504588650E+02 -0.42609138169E+02 -0.12515030769E+02  0.55828416700E+02  0.47000000000E+01 0.  1.
         13    1    6    6    0    0 -0.65170531477E+02  0.16156990325E+02 -0.63558950511E+02  0.92455322720E+02  0.00000000000E+00 0. -1.
        -14    1    6    6    0    0 -0.14408243069E+02  0.33115010301E+02  0.16932895567E+02  0.39886392766E+02  0.00000000000E+00 0.  1.
</event>
<event>
12    1  0.1039610E+000  0.2045124E+03  0.7818608E-02  0.1146248E+00
         21   -1    0    0  501  502  0.00000000000E+00  0.00000000000E+00  0.24883144826E+03  0.24883144826E+03  0.00000000000E+00 0. -1.
         21   -1    0    0  502  503 -0.00000000000E+00 -0.00000000000E+00 -0.22127766132E+03  0.22127766132E+03  0.00000000000E+00 0. -1.
         -6    2    1    2    0  503  0.39733678473E+02 -0.10126039306E+03 -0.10262372224E+03  0.22768073575E+03  0.17168126473E+03 0.  0.
        -24    2    3    3    0    0 -0.41887034402E+01 -0.91335471244E+02 -0.12821691020E+03  0.17567322691E+03  0.77857517601E+02 0.  0.
          6    2    1    2  501    0 -0.39733678473E+02  0.10126039306E+03  0.13017750918E+03  0.24242837383E+03  0.17318458400E+03 0.  0.
         24    2    5    5    0    0 -0.90183965745E+02  0.82540115378E+02  0.70424075735E+02  0.16187874261E+03  0.79367238459E+02 0.  0.
          5    1    5    5  501    0  0.50450287272E+02  0.18720277683E+02  0.59753433443E+02  0.80549631226E+02  0.47000000000E+01 0. -1.
        -13    1    6    6    0    0 -0.30518831835E+02  0.55963643648E+02 -0.27374914574E+01  0.63802996531E+02  0.00000000000E+00 0.  1.
         14    1    6    6    0    0 -0.59665133910E+02  0.26576471730E+02  0.73161567192E+02  0.98075746075E+02  0.00000000000E+00 0. -1.
         -5    1    3    3    0  503  0.43922381913E+02 -0.99249218161E+01  0.25593187963E+02  0.52007508843E+02  0.47000000000E+01 0.  1.
         13    1    4    4    0    0 -0.22504488710E+02  0.37950425859E+01 -0.30268972521E+02  0.37908640939E+02  0.00000000000E+00 0. -1.
        -14    1    4    4    0    0  0.18315785270E+02 -0.95130513830E+02 -0.97947937677E+02  0.13776458597E+03  0.00000000000E+00 0.  1.
</event>
<event>
12    1  0.1039610E+000  0.1934039E+03  0.7818608E-02  0.1155657E+00
         21   -1    0    0  503  502  0.00000000000E+00  0.00000000000E+00  0.30894452620E+03  0.30894452620E+03  0.00000000000E+00 0.  1.
         21   -1    0    0  501  503 -0.00000000000E+00 -0.00000000000E+00 -0.20746121774E+03  0.20746121774E+03  0.00000000000E+00 0.  1.
          6    2    1    2  501    0  0.38813313709E+02  0.79131272334E+02  0.21790499248E+03  0.29066455595E+03  0.17098265044E+03 0.  0.
         24    2    3    3    0    0  0.52160226989E+02  0.10680121821E+03  0.11602108981E+03  0.18414608045E+03  0.79509094908E+02 0.  0.
         -6    2    1    2    0  502 -0.38813313709E+02 -0.79131272334E+02 -0.11642168402E+03  0.22574118799E+03  0.17215354734E+03 0.  0.
        -24    2    5    5    0    0 -0.61010179041E+02 -0.11046082743E+03 -0.65430925497E+02  0.16173814659E+03  0.77163370247E+02 0.  0.
          5    1    3    3  501    0 -0.13346913280E+02 -0.27669945877E+02  0.10188390267E+03  0.10651847550E+03  0.47000000000E+01 0. -1.
        -13    1    4    4    0    0 -0.82748636648E+01  0.50965932994E+01  0.45263773125E+02  0.46295332264E+02  0.00000000000E+00 0.  1.
         14    1    4    4    0    0  0.60435090654E+02  0.10170462491E+03  0.70757316689E+02  0.13785074819E+03  0.00000000000E+00 0. -1.
         -5    1    5    5    0  502  0.22196865333E+02  0.31329555097E+02 -0.50990758526E+02  0.64003041398E+02  0.47000000000E+01 0.  1.
         11    1    6    6    0    0 -0.51502019563E+02 -0.47620062174E+02  0.52233801402E+00  0.70145571332E+02  0.00000000000E+00 0. -1.
        -12    1    6    6    0    0 -0.95081594780E+01 -0.62840765257E+02 -0.65953263511E+02  0.91592575259E+02  0.00000000000E+00 0.  1.
</event>
<event>
12    1  0.1039610E+000  0.2879089E+03  0.7818608E-02  0.1091596E+00
         21   -1    0    0  503  502  0.00000000000E+00  0.00000000000E+00  0.49313904367E+03  0.49313904367E+03  0.00000000000E+00 0.  1.
         21   -1    0    0  501  503 -0.00000000000E+00 -0.00000000000E+00 -0.16892909370E+03  0.16892909370E+03  0.00000000000E+00 0.  1.
          6    2    1    2  501    0 -0.58376256801E+02 -0.22327520154E+03  0.13121314029E+03  0.31639913887E+03  0.17213925731E+03 0.  0.
         24    2    3    3    0    0 -0.88354854791E+02 -0.16119107481E+03  0.14295986053E+03  0.24630469853E+03  0.80245497270E+02 0.  0.
         -6    2    1    2    0  502  0.58376256801E+02  0.22327520154E+03  0.19299680967E+03  0.34566899851E+03  0.17023420632E+03 0.  0.
        -24    2    5    5    0    0  0.10379737867E+03  0.13610263730E+03  0.13271659851E+03  0.23026567045E+03  0.78171348770E+02 0.  0.
          5    1    3    3  501    0  0.29978597989E+02 -0.62084126733E+02 -0.11746720238E+02  0.70094440336E+02  0.47000000000E+01 0. -1.
        -13    1    4    4    0    0 -0.30049303606E+00 -0.45800976426E+01 -0.95758597690E+01  0.10619071560E+02  0.00000000000E+00 0.  1.
         14    1    4    4    0    0 -0.88054361754E+02 -0.15661097717E+03  0.15253572030E+03  0.23568562697E+03  0.00000000000E+00 0. -1.
         -5    1    5    5    0  502 -0.45421121869E+02  0.87172564243E+02  0.60280211164E+02  0.11540332806E+03  0.47000000000E+01 0.  1.
         13    1    6    6    0    0  0.60504740428E+02  0.12283893495E+03  0.12276481670E+03  0.18390602973E+03  0.00000000000E+00 0. -1.
        -14    1    6    6    0    0  0.43292638242E+02  0.13263702352E+02  0.99517818111E+01  0.46359640715E+02  0.00000000000E+00 0.  1.
</event>
<event>
12    1  0.1039610E+000  0.1951517E+03  0.7818608E-02  0.1154014E+00
         21   -1    0    0  503  502  0.00000000000E+00  0.00000000000E+00  0.15140887616E+03  0.15140887616E+03  0.00000000000E+00 0. -1.
         21   -1    0    0  501  503 -0.00000000000E+00 -0.00000000000E+00 -0.25386679973E+03  0.25386679973E+03  0.00000000000E+00 0. -1.
          6    2    1    2  501    0 -0.85075952346E+02 -0.31994568825E+02 -0.73457018201E+02  0.20851883723E+03  0.17269221712E+03 0.  0.
         24    2    3    3    0    0  0.74283544371E+01  0.18560878660E+02 -0.60833622867E+02  0.10224400411E+03  0.79708343601E+02 0.  0.
         -6    2    1    2    0  502  0.85075952346E+02  0.31994568825E+02 -0.29000905376E+02  0.19675683866E+03  0.17207739813E+03 0.  0.
        -24    2    5    5    0    0  0.79374464898E+02 -0.26638656514E+02  0.14283462321E+02  0.12350393046E+03  0.89662031237E+02 0.  0.
          5    1    3    3  501    0 -0.92504306784E+02 -0.50555447485E+02 -0.12623395335E+02  0.10627483312E+03  0.47000000000E+01 0. -1.
        -11    1    4    4    0    0 -0.13603568275E+02  0.22105532920E+02  0.10342723824E+02  0.27940715659E+02  0.00000000000E+00 0.  1.
         12    1    4    4    0    0  0.21031922712E+02 -0.35446542593E+01 -0.71176346690E+02  0.74303288453E+02  0.00000000000E+00 0. -1.
         -5    1    5    5    0  502  0.57014874481E+01  0.58633225338E+02 -0.43284367698E+02  0.73252908199E+02  0.47000000000E+01 0.  1.
         11    1    6    6    0    0  0.37058815307E+02  0.29558980822E+02  0.22874000405E+02  0.52633725250E+02  0.00000000000E+00 0. -1.
        -12    1    6    6    0    0  0.42315649592E+02 -0.56197637336E+02 -0.85905380842E+01  0.70870205214E+02  0.00000000000E+00 0.  1.
</event>
<event>
12    1  0.1039610E+000  0.1852139E+03  0.7818608E-02  0.1163166E+00
         21   -1    0    0  503  502  0.00000000000E+00  0.00000000000E+00  0.56784415218E+02  0.56784415218E+02  0.00000000000E+00 0.  1.
         21   -1    0    0  501  503 -0.00000000000E+00 -0.00000000000E+00 -0.61919996360E+03  0.61919996360E+03  0.00000000000E+00 0.  1.
          6    2    1    2  501    0  0.15000647144E+02 -0.65465256442E+02 -0.22224981260E+03  0.28930811573E+03  0.17260790078E+03 0.  0.
         24    2    3    3    0    0 -0.39006067242E+02 -0.58235863167E+02 -0.71592649130E+02  0.12903129199E+03  0.81306075182E+02 0.  0.
         -6    2    1    2    0  502 -0.15000647144E+02  0.65465256442E+02 -0.34016573578E+03  0.38667626309E+03  0.17115807144E+03 0.  0.
        -24    2    5    5    0    0  0.28820702789E+02  0.71704999069E+02 -0.12751349088E+03  0.16941533157E+03  0.80433975506E+02 0.  0.
          5    1    3    3  501    0  0.54006714386E+02 -0.72293932753E+01 -0.15065716347E+03  0.16027682375E+03  0.47000000000E+01 0. -1.
        -13    1    4    4    0    0 -0.23786094802E+02 -0.66250176208E+02 -0.82665320839E+02  0.10857448790E+03  0.00000000000E+00 0.  1.
         14    1    4    4    0    0 -0.15219972440E+02  0.80143130410E+01  0.11072671709E+02  0.20456804085E+02  0.00000000000E+00 0. -1.
         -5    1    5    5    0  502 -0.43821349933E+02 -0.62397426275E+01 -0.21265224491E+03  0.21726093151E+03  0.47000000000E+01 0.  1.
         11    1    6    6    0    0  0.17755891291E+02  0.73605490419E+02 -0.49192186461E+02  0.90293472101E+02  0.00000000000E+00 0. -1.
        -12    1    6    6    0    0  0.11064811498E+02 -0.19004913494E+01 -0.78321304415E+02  0.79121859471E+02  0.00000000000E+00 0.  1.
</event>
<event>
12    1  0.1039610E+000  0.1907865E+03  0.7818608E-02  0.1157924E+00
         21   -1    0    0  501  502  0.00000000000E+00  0.00000000000E+00  0.25941648167E+04  0.25941648167E+04  0.00000000000E+00 0. -1.
         21   -1    0    0  502  503 -0.00000000000E+00 -0.00000000000E+00 -0.14337484840E+02  0.14337484840E+02  0.00000000000E+00 0. -1.
         -6    2    1    2    0  503  0.60472976606E+02  0.60470839278E+02  0.10802788881E+04  0.10968657607E+04  0.16970067039E+03 0.  0.
        -24    2    3    3    0    0 -0.24779350387E+01  0.91222557069E+02  0.67234134296E+03  0.68292903101E+03  0.77598227133E+02 0.  0.
          6    2    1    2  501    0 -0.60472976606E+02 -0.60470839278E+02  0.14995484437E+04  0.15116365408E+04  0.17054557525E+03 0.  0.
         24    2    5    5    0    0 -0.28603776161E+02  0.35123531231E+02  0.71226629831E+03  0.71791795337E+03  0.77659961428E+02 0.  0.
          5    1    5    5  501    0 -0.31869200445E+02 -0.95594370509E+02  0.78728214541E+03  0.79371858746E+03  0.47000000000E+01 0. -1.
        -13    1    6    6    0    0 -0.62013718650E+01  0.12303959674E+01  0.56813083412E+03  0.56816601057E+03  0.00000000000E+00 0.  1.
         14    1    6    6    0    0 -0.22402404296E+02  0.33893135264E+02  0.14413546419E+03  0.14975194280E+03  0.00000000000E+00 0. -1.
         -5    1    3    3    0  503  0.62950911644E+02 -0.30751717791E+02  0.40793754517E+03  0.41393672969E+03  0.47000000000E+01 0.  1.
         13    1    4    4    0    0  0.10907414115E+02  0.80231258554E+02  0.64808767169E+03  0.65312606496E+03  0.00000000000E+00 0. -1.
        -14    1    4    4    0    0 -0.13385349154E+02  0.10991298515E+02  0.24253671271E+02  0.29802966046E+02  0.00000000000E+00 0.  1.
</event>
<event>
12    1  0.1039610E+000  0.1917560E+03  0.7818608E-02  0.1157593E+00
         21   -1    0    0  503  502  0.00000000000E+00  0.00000000000E+00  0.16991995540E+03  0.16991995540E+03  0.00000000000E+00 0. -1.
         21   -1    0    0  501  503 -0.00000000000E+00 -0.00000000000E+00 -0.35680380622E+03  0.35680380622E+03  0.00000000000E+00 0. -1.
          6    2    1    2  501    0  0.79191251443E+02  0.33715751718E+02  0.73366109928E+02  0.20531179002E+03  0.17135442456E+03 0.  0.
         24    2    3    3    0    0  0.30945761957E+02 -0.13324562757E+02  0.10030199036E+03  0.13259280972E+03  0.79907319835E+02 0.  0.
         -6    2    1    2    0  502 -0.79191251443E+02 -0.33715751718E+02 -0.26024996075E+03  0.32141197160E+03  0.16783208037E+03 0.  0.
        -24    2    5    5    0    0 -0.17417557618E+02 -0.70252692973E+02 -0.10241223848E+03  0.14795945967E+03  0.78517023197E+02 0.  0.
          5    1    3    3  501    0  0.48245489486E+02  0.47040314475E+02 -0.26935880427E+02  0.72718980301E+02  0.47000000000E+01 0. -1.
        -11    1    4    4    0    0  0.30242319648E+02  0.30417548112E+02  0.52487742391E+02  0.67784867280E+02  0.00000000000E+00 0.  1.
         12    1    4    4    0    0  0.70344230859E+00 -0.43742110869E+02  0.47814247964E+02  0.64807942435E+02  0.00000000000E+00 0. -1.
         -5    1    5    5    0  502 -0.61773693825E+02  0.36536941255E+02 -0.15783772227E+03  0.17345251193E+03  0.47000000000E+01 0.  1.
         11    1    6    6    0    0  0.30725796646E+02 -0.37053313712E+02 -0.42073614274E+02  0.63931304184E+02  0.00000000000E+00 0. -1.
        -12    1    6    6    0    0 -0.48143354264E+02 -0.33199379261E+02 -0.60338624208E+02  0.84028155486E+02  0.00000000000E+00 0.  1.
</event>
<event>
12    1  0.1039610E+000  0.3444323E+03  0.7818608E-02  0.1064991E+00
         21   -1    0    0  503  502  0.00000000000E+00  0.00000000000E+00  0.40182851469E+03  0.40182851469E+03  0.00000000000E+00 0. -1.
         21   -1    0    0  501  503 -0.00000000000E+00 -0.00000000000E+00 -0.29628779176E+03  0.29628779176E+03  0.00000000000E+00 0. -1.
          6    2    1    2  501    0  0.29665203421E+03 -0.31180234078E+02  0.27041568942E+02  0.34485194942E+03  0.17092976386E+03 0.  0.
         24    2    3    3    0    0  0.30429611263E+03 -0.28728762901E+01  0.27397936540E+02  0.31515421487E+03  0.77247360120E+02 0.  0.
         -6    2    1    2    0  502 -0.29665203421E+03  0.31180234078E+02  0.78499153993E+02  0.35326435703E+03  0.17221774696E+03 0.  0.
        -24    2    5    5    0    0 -0.19586671598E+03  0.83072006037E+02  0.78742532431E+02  0.23980693946E+03  0.77731931557E+02 0.  0.
          5    1    3    3  501    0 -0.76440784178E+01 -0.28307357788E+02 -0.35636759768E+00  0.29697734554E+02  0.47000000000E+01 0. -1.
        -13    1    4    4    0    0  0.61976519420E+02 -0.18373461063E+01  0.37785310057E+02  0.72609878503E+02  0.00000000000E+00 0.  1.
         14    1    4    4    0    0  0.24231959321E+03 -0.10355301839E+01 -0.10387373518E+02  0.24254433637E+03  0.00000000000E+00 0. -1.
         -5    1    5    5    0  502 -0.10078531823E+03 -0.51891771959E+02 -0.24337843849E+00  0.11345741757E+03  0.47000000000E+01 0.  1.
         13    1    6    6    0    0 -0.11033651479E+03  0.12000705733E+02  0.62635257463E+02  0.12744151173E+03  0.00000000000E+00 0. -1.
        -14    1    6    6    0    0 -0.85530201191E+02  0.71071300304E+02  0.16107274968E+02  0.11236542773E+03  0.00000000000E+00 0.  1.
</event>
<event>
12    1  0.1039610E+000  0.3890141E+03  0.7818608E-02  0.1047694E+00
         21   -1    0    0  501  502  0.00000000000E+00  0.00000000000E+00  0.85221454190E+03  0.85221454190E+03  0.00000000000E+00 0.  1.
         21   -1    0    0  502  503 -0.00000000000E+00 -0.00000000000E+00 -0.18037598302E+03  0.18037598302E+03  0.00000000000E+00 0.  1.
         -6    2    1    2    0  503  0.24534436163E+03 -0.24767681362E+03  0.26895190153E+03  0.47254623516E+03  0.17154346167E+03 0.  0.
        -24    2    3    3    0    0  0.18963402700E+03 -0.10886009947E+03  0.20160915831E+03  0.30843999952E+03  0.81715329886E+02 0.  0.
          6    2    1    2  501    0 -0.24534436163E+03  0.24767681362E+03  0.40288665736E+03  0.56004428975E+03  0.17261021993E+03 0.  0.
         24    2    5    5    0    0 -0.15348279046E+03  0.71528031232E+02  0.22994984345E+03  0.29661275520E+03  0.80180856977E+02 0.  0.
          5    1    5    5  501    0 -0.91861571168E+02  0.17614878239E+03  0.17293681390E+03  0.26343153455E+03  0.47000000000E+01 0. -1.
        -11    1    6    6    0    0  0.85829504591E+01 -0.20658160715E+01  0.66451812632E+01  0.11049573234E+02  0.00000000000E+00 0.  1.
         12    1    6    6    0    0 -0.16206574092E+03  0.73593847303E+02  0.22330466219E+03  0.28556318197E+03  0.00000000000E+00 0. -1.
         -5    1    3    3    0  503  0.55710334625E+02 -0.13881671415E+03  0.67342743227E+02  0.16410623564E+03  0.47000000000E+01 0.  1.
         11    1    4    4    0    0  0.68062930088E+02 -0.35663305721E+02  0.22775460629E+02  0.80144590797E+02  0.00000000000E+00 0. -1.
        -12    1    4    4    0    0  0.12157109692E+03 -0.73196793749E+02  0.17883369768E+03  0.22829540873E+03  0.00000000000E+00 0.  1.
</event>
<event>
12    1  0.1039610E+000  0.1955482E+03  0.7818608E-02  0.1154505E+00
         21   -1    0    0  501  502  0.00000000000E+00  0.00000000000E+00  0.10666251805E+03  0.10666251805E+03  0.00000000000E+00 0. -1.
         21   -1    0    0  502  503 -0.00000000000E+00 -0.00000000000E+00 -0.93150364999E+03  0.93150364999E+03  0.00000000000E+00 0. -1.
         -6    2    1    2    0  503 -0.58888325423E+02 -0.65623206976E+02 -0.42515240046E+01  0.19559439166E+03  0.17454183002E+03 0.  0.
        -24    2    3    3    0    0 -0.33424100181E-01 -0.20532745824E+02 -0.57959780002E+02  0.10392260833E+03  0.83779339071E+02 0.  0.
          6    2    1    2  501    0  0.58888325423E+02  0.65623206976E+02 -0.82058960793E+03  0.84257177638E+03  0.16966335355E+03 0.  0.
         24    2    5    5    0    0  0.43450830338E+02  0.86036313903E+02 -0.34500809331E+03  0.36627892714E+03  0.76416268216E+02 0.  0.
          5    1    5    5  501    0  0.15437495085E+02 -0.20413106927E+02 -0.47558151462E+03  0.47629284924E+03  0.47000000000E+01 0. -1.
        -11    1    6    6    0    0  0.51546331839E+02  0.55000913098E+02 -0.30898168852E+03  0.31804372122E+03  0.00000000000E+00 0.  1.
         12    1    6    6    0    0 -0.80955015014E+01  0.31035400805E+02 -0.36026404794E+02  0.48235205919E+02  0.00000000000E+00 0. -1.
         -5    1    3    3    0  503 -0.58854901323E+02 -0.45090461152E+02  0.53708255998E+02  0.91671783330E+02  0.47000000000E+01 0.  1.
         11    1    4    4    0    0  0.15249449232E+01  0.29642606564E+02 -0.41641637606E+02  0.51137418428E+02  0.00000000000E+00 0. -1.
        -12    1    4    4    0    0 -0.15583690234E+01 -0.50175352388E+02 -0.16318142396E+02  0.52785189898E+02  0.00000000000E+00 0.  1.
</event>
<event>
12    1  0.1039610E+000  0.3381112E+03  0.7818608E-02  0.1067629E+00
         21   -1    0    0  503  502  0.00000000000E+00  0.00000000000E+00  0.10827063962E+03  0.10827063962E+03  0.00000000000E+00 0. -1.
         21   -1    0    0  501  503 -0.00000000000E+00 -0.00000000000E+00 -0.16452589068E+04  0.16452589068E+04  0.00000000000E+00 0. -1.
          6    2    1    2  501    0  0.16835703306E+03  0.23662375091E+03 -0.24321277964E+03  0.41630323789E+03  0.17268769388E+03 0.  0.
         24    2    3    3    0    0  0.18694557880E+03  0.17790033688E+03 -0.16426787699E+03  0.31606172432E+03  0.79460045769E+02 0.  0.
         -6    2    1    2    0  502 -0.16835703306E+03 -0.23662375091E+03 -0.12937754875E+04  0.13372263085E+04  0.17315974699E+03 0.  0.
        -24    2    5    5    0    0 -0.69544029978E+02 -0.90827541357E+02 -0.34701953161E+03  0.37421567806E+03  0.80801014933E+02 0.  0.
          5    1    3    3  501    0 -0.18588545739E+02  0.58723414036E+02 -0.78944902648E+02  0.10024151357E+03  0.47000000000E+01 0. -1.
        -13    1    4    4    0    0  0.48416924888E+02  0.73129418385E+02 -0.94384453777E+02  0.12884306564E+03  0.00000000000E+00 0.  1.
         14    1    4    4    0    0  0.13852865392E+03  0.10477091849E+03 -0.69883423214E+02  0.18721865868E+03  0.00000000000E+00 0. -1.
         -5    1    5    5    0  502 -0.98813003087E+02 -0.14579620956E+03 -0.94675595590E+03  0.96301063044E+03  0.47000000000E+01 0.  1.
         13    1    6    6    0    0  0.10761640288E+02  0.74434396127E+01 -0.29421211230E+02  0.32199772751E+02  0.00000000000E+00 0. -1.
        -14    1    6    6    0    0 -0.80305670266E+02 -0.98270980970E+02 -0.31759832038E+03  0.34201590531E+03  0.00000000000E+00 0.  1.
</event>
<event>
12    1  0.1039610E+000  0.1787834E+03  0.7818608E-02  0.1169020E+00
         21   -1    0    0  503  502  0.00000000000E+00  0.00000000000E+00  0.30495855335E+03  0.30495855335E+03  0.00000000000E+00 0.  1.
         21   -1    0    0  501  503 -0.00000000000E+00 -0.00000000000E+00 -0.16044983798E+03  0.16044983798E+03  0.00000000000E+00 0.  1.
          6    2    1    2  501    0  0.39688945052E+02 -0.22932747773E+02  0.20936807929E+03  0.27522360421E+03  0.17266127652E+03 0.  0.
         24    2    3    3    0    0  0.43366050760E+02 -0.67281531162E+02  0.83435235967E+02  0.14157665617E+03  0.81701237298E+02 0.  0.
         -6    2    1    2    0  502 -0.39688945052E+02  0.22932747773E+02 -0.64859363909E+02  0.19018478712E+03  0.17280738667E+03 0.  0.
        -24    2    5    5    0    0 -0.87581773243E+02  0.38437775578E+02 -0.62986456446E+02  0.13959104579E+03  0.79814389518E+02 0.  0.
          5    1    3    3  501    0 -0.36771057084E+01  0.44348783389E+02  0.12593284332E+03  0.13364694804E+03  0.47000000000E+01 0. -1.
        -11    1    4    4    0    0  0.16849827123E+02 -0.57470956315E+02  0.93946844771E+02  0.11141291279E+03  0.00000000000E+00 0.  1.
         12    1    4    4    0    0  0.26516223638E+02 -0.98105748468E+01 -0.10511608803E+02  0.30163743376E+02  0.00000000000E+00 0. -1.
         -5    1    5    5    0  502  0.47892828191E+02 -0.15505027805E+02 -0.18729074638E+01  0.50593741330E+02  0.47000000000E+01 0.  1.
         11    1    6    6    0    0 -0.17025590344E+02  0.61857132481E+01  0.19321536634E+02  0.26485006189E+02  0.00000000000E+00 0. -1.
        -12    1    6    6    0    0 -0.70556182900E+02  0.32252062330E+02 -0.82307993080E+02  0.11310603960E+03  0.00000000000E+00 0.  1.
</event>
<event>
12    1  0.1039610E+000  0.1823441E+03  0.7818608E-02  0.1165695E+00
         21   -1    0    0  501  502  0.00000000000E+00  0.00000000000E+00  0.87944975227E+03  0.87944975227E+03  0.00000000000E+00 0. -1.
         21   -1    0    0  502  503 -0.00000000000E+00 -0.00000000000E+00 -0.42484052969E+02  0.42484052969E+02  0.00000000000E+00 0. -1.
         -6    2    1    2    0  503 -0.52213854072E+02  0.21563647290E+02  0.57402917954E+03  0.60229466439E+03  0.17337268054E+03 0.  0.
        -24    2    3    3    0    0  0.33661364339E+02  0.67227057492E+01  0.30116950867E+03  0.31581727145E+03  0.88652094003E+02 0.  0.
          6    2    1    2  501    0  0.52213854072E+02 -0.21563647290E+02  0.26293651977E+03  0.31963914085E+03  0.17274920982E+03 0.  0.
         24    2    5    5    0    0  0.30754696948E+02 -0.19891225485E+01  0.27499224371E+03  0.28784153208E+03  0.79260365237E+02 0.  0.
          5    1    5    5  501    0  0.21459157124E+02 -0.19574524741E+02 -0.12055723945E+02  0.31797608764E+02  0.47000000000E+01 0. -1.
        -11    1    6    6    0    0  0.23040717297E+02 -0.19782895188E+02  0.32146324006E+02  0.44222434835E+02  0.00000000000E+00 0.  1.
         12    1    6    6    0    0  0.77139796517E+01  0.17793772640E+02  0.24284591971E+03  0.24361909725E+03  0.00000000000E+00 0. -1.
         -5    1    3    3    0  503 -0.85875218411E+02  0.14840941540E+02  0.27285967087E+03  0.28647739295E+03  0.47000000000E+01 0.  1.
         13    1    4    4    0    0  0.58567693871E+01  0.15321633503E+02  0.35557460780E+01  0.16783847325E+02  0.00000000000E+00 0. -1.
        -14    1    4    4    0    0  0.27804594952E+02 -0.85989277542E+01  0.29761376259E+03  0.29903342412E+03  0.00000000000E+00 0.  1.
</event>
<event>
12    1  0.1039610E+000  0.2893530E+03  0.7818608E-02  0.1091281E+00
         21   -1    0    0  503  502  0.00000000000E+00  0.00000000000E+00  0.18611189077E+03  0.18611189077E+03  0.00000000000E+00 0. -1.
         21   -1    0    0  501  503 -0.00000000000E+00 -0.00000000000E+00 -0.62549477556E+03  0.62549477556E+03  0.00000000000E+00 0.  1.
          6    2    1    2  501    0 -0.22071083439E+03  0.74599553829E+02 -0.43771999332E+03  0.52224888599E+03  0.16391077000E+03 0.  0.
         24    2    3    3    0    0 -0.17474509598E+02  0.21052109495E+00 -0.10764219181E+03  0.12751837418E+03  0.66096077733E+02 0.  0.
         -6    2    1    2    0  502  0.22071083439E+03 -0.74599553829E+02 -0.16628914670E+01  0.28935778033E+03  0.17160068177E+03 0.  0.
        -24    2    5    5    0    0  0.77125554045E+02 -0.91480242784E+02  0.92934480311E+01  0.14429289221E+03  0.80106707953E+02 0.  0.
          5    1    3    3  501    0 -0.20323632479E+03  0.74389032734E+02 -0.33007780151E+03  0.39473051181E+03  0.47000000000E+01 0. -1.
        -11    1    4    4    0    0 -0.15154665944E+02  0.32569632303E+02 -0.57097453236E+02  0.67457868438E+02  0.00000000000E+00 0.  1.
         12    1    4    4    0    0 -0.23198436546E+01 -0.32359111208E+02 -0.50544738571E+02  0.60060505742E+02  0.00000000000E+00 0. -1.
         -5    1    5    5    0  502  0.14358528034E+03  0.16880688955E+02 -0.10956339498E+02  0.14506488812E+03  0.47000000000E+01 0.  1.
         13    1    6    6    0    0  0.86961575997E+02 -0.93278389636E+02 -0.40827582323E+01  0.12759248641E+03  0.00000000000E+00 0. -1.
        -14    1    6    6    0    0 -0.98360219517E+01  0.17981468514E+01  0.13376206263E+02  0.16700405801E+02  0.00000000000E+00 0.  1.
</event>
<event>
12    1  0.1039610E+000  0.2761496E+03  0.7818608E-02  0.1097863E+00
         21   -1    0    0  501  502  0.00000000000E+00  0.00000000000E+00  0.22857544565E+03  0.22857544565E+03  0.00000000000E+00 0. -1.
         21   -1    0    0  502  503 -0.00000000000E+00 -0.00000000000E+00 -0.38846304108E+03  0.38846304108E+03  0.00000000000E+00 0. -1.
         -6    2    1    2    0  503  0.14176869778E+03  0.16274650769E+03  0.36407380870E+02  0.27853926223E+03  0.17226094678E+03 0.  0.
        -24    2    3    3    0    0  0.88686811449E+02  0.15979450511E+02  0.11227286309E+02  0.12037990307E+03  0.79022628028E+02 0.  0.
          6    2    1    2  501    0 -0.14176869778E+03 -0.16274650769E+03 -0.19629497631E+03  0.33849922450E+03  0.17165435569E+03 0.  0.
         24    2    5    5    0    0 -0.16207506383E+03 -0.13118326630E+03 -0.20088410372E+03  0.30039756050E+03  0.80043085623E+02 0.  0.
          5    1    5    5  501    0  0.20306366050E+02 -0.31563241386E+02  0.45891274111E+01  0.38101663997E+02  0.47000000000E+01 0. -1.
        -13    1    6    6    0    0 -0.25946202560E+02 -0.52386960370E+01 -0.65909541766E+02  0.71026171650E+02  0.00000000000E+00 0.  1.
         14    1    6    6    0    0 -0.13612886127E+03 -0.12594457026E+03 -0.13497456195E+03  0.22937138885E+03  0.00000000000E+00 0. -1.
         -5    1    3    3    0  503  0.53081886333E+02  0.14676705718E+03  0.25180094561E+02  0.15815935916E+03  0.47000000000E+01 0.  1.
         13    1    4    4    0    0 -0.53971357220E+01 -0.76833720847E+01  0.20872886096E+02  0.22887565501E+02  0.00000000000E+00 0. -1.
        -14    1    4    4    0    0  0.94083947171E+02  0.23662822595E+02 -0.96455997870E+01  0.97492337564E+02  0.00000000000E+00 0.  1.
</event>
<event>
12    1  0.1039610E+000  0.3006197E+03  0.7818608E-02  0.1084951E+00
         21   -1    0    0  503  502  0.00000000000E+00  0.00000000000E+00  0.10962973943E+03  0.10962973943E+03  0.00000000000E+00 0.  1.
         21   -1    0    0  501  503 -0.00000000000E+00 -0.00000000000E+00 -0.86891631252E+03  0.86891631252E+03  0.00000000000E+00 0.  1.
          6    2    1    2  501    0 -0.74159193306E+00 -0.24620214436E+03 -0.49109166135E+03  0.57579789949E+03  0.17249972569E+03 0.  0.
         24    2    3    3    0    0  0.66175855992E+02 -0.15954928584E+03 -0.30124403027E+03  0.35659279975E+03  0.81087856858E+02 0.  0.
         -6    2    1    2    0  502  0.74159193306E+00  0.24620214436E+03 -0.26819491175E+03  0.40274815247E+03  0.17222519495E+03 0.  0.
        -24    2    5    5    0    0 -0.11823742826E+02  0.18160659903E+03 -0.10219720518E+03  0.22412060504E+03  0.81639568520E+02 0.  0.
          5    1    3    3  501    0 -0.66917447925E+02 -0.86652858523E+02 -0.18984763107E+03  0.21920509974E+03  0.47000000000E+01 0. -1.
        -13    1    4    4    0    0 -0.68234503138E+01  0.60819683592E+01 -0.89488364812E+01  0.12791852394E+02  0.00000000000E+00 0.  1.
         14    1    4    4    0    0  0.72999306306E+02 -0.16563125420E+03 -0.29229519379E+03  0.34380094736E+03  0.00000000000E+00 0. -1.
         -5    1    5    5    0  502  0.12565334759E+02  0.64595545331E+02 -0.16599770657E+03  0.17862754743E+03  0.47000000000E+01 0.  1.
         11    1    6    6    0    0 -0.38877808262E+02  0.15129662578E+03 -0.95084633356E+02  0.18287493117E+03  0.00000000000E+00 0. -1.
        -12    1    6    6    0    0  0.27054065437E+02  0.30309973249E+02 -0.71125718270E+01  0.41245673870E+02  0.00000000000E+00 0.  1.
</event>
<event>
12    1  0.1039610E+000  0.2001439E+03  0.7818608E-02  0.1150028E+00
         21   -1    0    0  503  502  0.00000000000E+00  0.00000000000E+00  0.48144787784E+02  0.48144787784E+02  0.00000000000E+00 0. -1.
         21   -1    0    0  501  503 -0.00000000000E+00 -0.00000000000E+00 -0.13137377806E+04  0.13137377806E+04  0.00000000000E+00 0. -1.
          6    2    1    2  501    0 -0.77503773747E+02  0.64115884557E+02 -0.21510769649E+03  0.29250099464E+03  0.17078591622E+03 0.  0.
         24    2    3    3    0    0 -0.62286465294E+02 -0.22636088208E+02 -0.14936104615E+03  0.18249107106E+03  0.81254370102E+02 0.  0.
         -6    2    1    2    0  502  0.77503773747E+02 -0.64115884557E+02 -0.10504852963E+04  0.10693815738E+04  0.17303153142E+03 0.  0.
        -24    2    5    5    0    0  0.13652442930E+02  0.64348533690E+01 -0.74758634811E+03  0.75185320981E+03  0.78550013951E+02 0.  0.
          5    1    3    3  501    0 -0.15217308453E+02  0.86751972765E+02 -0.65746650332E+02  0.11000992358E+03  0.47000000000E+01 0. -1.
        -11    1    4    4    0    0 -0.27446468607E+02 -0.43550041641E+02 -0.12482465663E+03  0.13502262651E+03  0.00000000000E+00 0.  1.
         12    1    4    4    0    0 -0.34839996687E+02  0.20913953433E+02 -0.24536389520E+02  0.47468444551E+02  0.00000000000E+00 0. -1.
         -5    1    5    5    0  502  0.63851330817E+02 -0.70550737926E+02 -0.30289894824E+03  0.31752836395E+03  0.47000000000E+01 0.  1.
         11    1    6    6    0    0  0.85583124091E+01  0.37473721547E+02 -0.58442179613E+03  0.58568452285E+03  0.00000000000E+00 0. -1.
        -12    1    6    6    0    0  0.50941305214E+01 -0.31038868178E+02 -0.16316455198E+03  0.16616868696E+03  0.00000000000E+00 0.  1.
</event>
<event>
12    1  0.1039610E+000  0.2040608E+03  0.7818608E-02  0.1146429E+00
         21   -1    0    0  501  502  0.00000000000E+00  0.00000000000E+00  0.27575285721E+03  0.27575285721E+03  0.00000000000E+00 0.  1.
         21   -1    0    0  502  503 -0.00000000000E+00 -0.00000000000E+00 -0.16332865302E+03  0.16332865302E+03  0.00000000000E+00 0.  1.
         -6    2    1    2    0  503  0.10723231402E+03 -0.16002875570E+02  0.11717914557E+03  0.23531208391E+03  0.17287557226E+03 0.  0.
        -24    2    3    3    0    0  0.13790905844E+03  0.14585784360E+02  0.88468271171E+02  0.18312843635E+03  0.80484381661E+02 0.  0.
          6    2    1    2  501    0 -0.10723231402E+03  0.16002875570E+02 -0.47549413866E+01  0.20376942631E+03  0.17246596312E+03 0.  0.
         24    2    5    5    0    0 -0.17537577216E+02  0.60860183731E+02 -0.51158691441E+01  0.10337249322E+03  0.81536321100E+02 0.  0.
          5    1    5    5  501    0 -0.89694736807E+02 -0.44857308161E+02  0.36092775756E+00  0.10039693310E+03  0.47000000000E+01 0. -1.
        -13    1    6    6    0    0  0.78235748849E+01  0.25679690397E+02 -0.39684956192E+02  0.47911904270E+02  0.00000000000E+00 0.  1.
         14    1    6    6    0    0 -0.25361152101E+02  0.35180493334E+02  0.34569087048E+02  0.55460588947E+02  0.00000000000E+00 0. -1.
         -5    1    3    3    0  503 -0.30676744417E+02 -0.30588659930E+02  0.28710874400E+02  0.52183647564E+02  0.47000000000E+01 0.  1.
         13    1    4    4    0    0  0.78800931584E+02  0.15537587530E+02  0.94133104661E+02  0.12374184756E+03  0.00000000000E+00 0. -1.
        -14    1    4    4    0    0  0.59108126855E+02 -0.95180316963E+00 -0.56648334900E+01  0.59386588789E+02  0.00000000000E+00 0.  1.
</event>
<event>
12    1  0.1039610E+000  0.2660152E+03  0.7818608E-02  0.1104255E+00
         21   -1    0    0  503  502  0.00000000000E+00  0.00000000000E+00  0.29248605997E+03  0.29248605997E+03  0.00000000000E+00 0. -1.
         21   -1    0    0  501  503 -0.00000000000E+00 -0.00000000000E+00 -0.47246420653E+03  0.47246420653E+03  0.00000000000E+00 0.  1.
          6    2    1    2  501    0  0.11455174359E+03 -0.16091982643E+03 -0.35914391735E+03  0.44422540533E+03  0.17127336300E+03 0.  0.
         24    2    3    3    0    0  0.75658652082E+02 -0.18238006817E+03 -0.31631199627E+03  0.38233939717E+03  0.84518724206E+02 0.  0.
         -6    2    1    2    0  502 -0.11455174359E+03  0.16091982643E+03  0.17916577079E+03  0.32072486117E+03  0.17817623482E+03 0.  0.
        -24    2    5    5    0    0 -0.89319770589E+02  0.10974864116E+03  0.35473212569E+02  0.16604847658E+03  0.79315585542E+02 0.  0.
          5    1    3    3  501    0  0.38893091504E+02  0.21460241744E+02 -0.42831921078E+02  0.61886008158E+02  0.47000000000E+01 0. -1.
        -13    1    4    4    0    0  0.12318132008E+02 -0.86007892919E+02 -0.20231268807E+03  0.22018064805E+03  0.00000000000E+00 0.  1.
         14    1    4    4    0    0  0.63340520074E+02 -0.96372175254E+02 -0.11399930820E+03  0.16215874912E+03  0.00000000000E+00 0. -1.
         -5    1    5    5    0  502 -0.25231972996E+02  0.51171185269E+02  0.14369255822E+03  0.15467638459E+03  0.47000000000E+01 0.  1.
         11    1    6    6    0    0 -0.83795778456E+02  0.41198473560E+02  0.18068771448E+02  0.95107976597E+02  0.00000000000E+00 0. -1.
        -12    1    6    6    0    0 -0.55239921332E+01  0.68550167599E+02  0.17404441121E+02  0.70940499982E+02  0.00000000000E+00 0.  1.
</event>
<event>
12    1  0.1039610E+000  0.2041180E+03  0.7818608E-02  0.1146422E+00
         21   -1    0    0  503  502  0.00000000000E+00  0.00000000000E+00  0.10319873616E+04  0.10319873616E+04  0.00000000000E+00 0. -1.
         21   -1    0    0  501  503 -0.00000000000E+00 -0.00000000000E+00 -0.47106633851E+02  0.47106633851E+02  0.00000000000E+00 0. -1.
          6    2    1    2  501    0 -0.10717066681E+03  0.20025606344E+02  0.69749621356E+03  0.72659714120E+03  0.17191818093E+03 0.  0.
         24    2    3    3    0    0 -0.38742954656E+02 -0.52727449052E+02  0.32136167328E+03  0.33739970897E+03  0.79271925309E+02 0.  0.
         -6    2    1    2    0  502  0.10717066681E+03 -0.20025606344E+02  0.28738451418E+03  0.35249685424E+03  0.17256186290E+03 0.  0.
        -24    2    5    5    0    0  0.21537588651E+02 -0.54127339756E+02  0.84611745265E+02  0.12970807960E+03  0.79192182959E+02 0.  0.
          5    1    3    3  501    0 -0.68427712150E+02  0.72753055396E+02  0.37613454028E+03  0.38919743222E+03  0.47000000000E+01 0. -1.
        -13    1    4    4    0    0  0.19844610951E+02 -0.29706764054E+02  0.74265977520E+02  0.82411988396E+02  0.00000000000E+00 0.  1.
         14    1    4    4    0    0 -0.58587565607E+02 -0.23020684998E+02  0.24709569576E+03  0.25498772058E+03  0.00000000000E+00 0. -1.
         -5    1    5    5    0  502  0.85633078155E+02  0.34101733412E+02  0.20277276891E+03  0.22278877465E+03  0.47000000000E+01 0.  1.
         13    1    6    6    0    0  0.15278705061E+02 -0.52621812027E+02  0.99442829403E+02  0.11354017020E+03  0.00000000000E+00 0. -1.
        -14    1    6    6    0    0  0.62588835902E+01 -0.15055277284E+01 -0.14831084138E+02  0.16167909396E+02  0.00000000000E+00 0.  1.
</event>
<event>
12    1  0.1039610E+000  0.3233417E+03  0.7818608E-02  0.1074128E+00
         21   -1    0    0  503  502  0.00000000000E+00  0.00000000000E+00  0.92046255793E+03  0.92046255793E+03  0.00000000000E+00 0.  1.
         21   -1    0    0  501  503 -0.00000000000E+00 -0.00000000000E+00 -0.16493507939E+03  0.16493507939E+03  0.00000000000E+00 0.  1.
          6    2    1    2  501    0 -0.26090431888E+02 -0.27299850275E+03  0.68061415690E+03  0.75349120343E+03  0.17118548399E+03 0.  0.
         24    2    3    3    0    0  0.14961732993E+02 -0.13355653384E+03  0.48570106965E+03  0.51029880117E+03  0.80237997419E+02 0.  0.
         -6    2    1    2    0  502  0.26090431888E+02  0.27299850275E+03  0.74913321636E+02  0.33190643390E+03  0.17129209545E+03 0.  0.
        -24    2    5    5    0    0 -0.73722951892E+01  0.51095903157E+02 -0.83685179804E+00  0.95008361753E+02  0.79754287824E+02 0.  0.
          5    1    3    3  501    0 -0.41052164881E+02 -0.13944196891E+03  0.19491308725E+03  0.24319240226E+03  0.47000000000E+01 0. -1.
        -11    1    4    4    0    0 -0.28752686990E+02 -0.85434013378E+02  0.31470738400E+03  0.32736283417E+03  0.00000000000E+00 0.  1.
         12    1    4    4    0    0  0.43714419983E+02 -0.48122520462E+02  0.17099368565E+03  0.18293596700E+03  0.00000000000E+00 0. -1.
         -5    1    5    5    0  502  0.33462727077E+02  0.22190259959E+03  0.75750173434E+02  0.23689807214E+03  0.47000000000E+01 0.  1.
         11    1    6    6    0    0 -0.16318121722E+02  0.70181449869E+02  0.72822377137E+01  0.72420632338E+02  0.00000000000E+00 0. -1.
        -12    1    6    6    0    0  0.89458265326E+01 -0.19085546711E+02 -0.81190895117E+01  0.22587729415E+02  0.00000000000E+00 0.  1.
</event>
<event>
12    1  0.1039610E+000  0.2072630E+03  0.7818608E-02  0.1143771E+00
         21   -1    0    0  503  502  0.00000000000E+00  0.00000000000E+00  0.66876632633E+03  0.66876632633E+03  0.00000000000E+00 0.  1.
         21   -1    0    0  501  503 -0.00000000000E+00 -0.00000000000E+00 -0.74625111572E+02  0.74625111572E+02  0.00000000000E+00 0.  1.
          6    2    1    2  501    0  0.10187210454E+03 -0.56832430343E+02  0.43590650839E+03  0.48263071747E+03  0.17120185327E+03 0.  0.
         24    2    3    3    0    0  0.41178618531E+02  0.37369227318E+02  0.20141574782E+03  0.22269676751E+03  0.77028624635E+02 0.  0.
         -6    2    1    2    0  502 -0.10187210454E+03  0.56832430343E+02  0.15823470636E+03  0.26076072043E+03  0.17131865105E+03 0.  0.
        -24    2    5    5    0    0 -0.85895356045E+02  0.19168643465E+01  0.30550068988E+02  0.12077346207E+03  0.79191135024E+02 0.  0.
          5    1    3    3  501    0  0.60693486010E+02 -0.94201657662E+02  0.23449076057E+03  0.25993394996E+03  0.47000000000E+01 0. -1.
        -11    1    4    4    0    0 -0.16587186650E+01 -0.16003458264E+02  0.93752479753E+02  0.95123022891E+02  0.00000000000E+00 0.  1.
         12    1    4    4    0    0  0.42837337196E+02  0.53372685582E+02  0.10766326807E+03  0.12757374462E+03  0.00000000000E+00 0. -1.
         -5    1    5    5    0  502 -0.15976748495E+02  0.54915565997E+02  0.12768463738E+03  0.13998725836E+03  0.47000000000E+01 0.  1.
         11    1    6    6    0    0 -0.22945009525E+01  0.17328248418E+02  0.31198584876E+02  0.35761496419E+02  0.00000000000E+00 0. -1.
        -12    1    6    6    0    0 -0.83600855093E+02 -0.15411384071E+02 -0.64851588756E+00  0.85011965652E+02  0.00000000000E+00 0.  1.
</event>
<event>
12    1  0.1039610E+000  0.2436108E+03  0.7818608E-02  0.1120229E+00
         21   -1    0    0  503  502  0.00000000000E+00  0.00000000000E+00  0.16451155834E+03  0.16451155834E+03  0.00000000000E+00 0.  1.
         21   -1    0    0  501  503 -0.00000000000E+00 -0.00000000000E+00 -0.34923397689E+03  0.34923397689E+03  0.00000000000E+00 0.  1.
          6    2    1    2  501    0 -0.10868420345E+03 -0.10139087401E+03 -0.13813517707E+03  0.26572017036E+03  0.17156198991E+03 0.  0.
         24    2    3    3    0    0 -0.24439905966E+02 -0.22522008723E+02 -0.32377216968E+01  0.88134098170E+02  0.81563389691E+02 0.  0.
         -6    2    1    2    0  502  0.10868420345E+03  0.10139087401E+03 -0.46587241476E+02  0.24802536486E+03  0.19301255175E+03 0.  0.
        -24    2    5    5    0    0  0.17573158114E+02  0.99123612381E+02  0.27486027372E+02  0.13048685111E+03  0.78339199598E+02 0.  0.
          5    1    3    3  501    0 -0.84244297483E+02 -0.78868865282E+02 -0.13489745538E+03  0.17758607219E+03  0.47000000000E+01 0. -1.
        -11    1    4    4    0    0  0.23680425287E+02 -0.10349118987E+02 -0.23108781890E+02  0.34668178580E+02  0.00000000000E+00 0.  1.
         12    1    4    4    0    0 -0.48120331253E+02 -0.12172889736E+02  0.19871060193E+02  0.53465919590E+02  0.00000000000E+00 0. -1.
         -5    1    5    5    0  502  0.91111045335E+02  0.22672616249E+01 -0.74073268848E+02  0.11753851375E+03  0.47000000000E+01 0.  1.
         11    1    6    6    0    0 -0.20413540893E+02  0.23760853693E+02 -0.16404610865E+02  0.35361024838E+02  0.00000000000E+00 0. -1.
        -12    1    6    6    0    0  0.37986699007E+02  0.75362758688E+02  0.43890638236E+02  0.95125826269E+02  0.00000000000E+00 0.  1.
</event>
<event>
12    1  0.1039610E+000  0.2351704E+03  0.7818608E-02  0.1123108E+00
         21   -1    0    0  501  502  0.00000000000E+00  0.00000000000E+00  0.12781286851E+04  0.12781286851E+04  0.00000000000E+00 0.  1.
         21   -1    0    0  502  503 -0.00000000000E+00 -0.00000000000E+00 -0.48008122427E+02  0.48008122427E+02  0.00000000000E+00 0.  1.
         -6    2    1    2    0  503 -0.15945706631E+03  0.13836956693E+02  0.82505822457E+03  0.85791969340E+03  0.17229947485E+03 0.  0.
        -24    2    3    3    0    0 -0.17177490299E+03 -0.18793093866E+02  0.76504743578E+03  0.78835077742E+03  0.79621426739E+02 0.  0.
          6    2    1    2  501    0  0.15945706631E+03 -0.13836956693E+02  0.40506233813E+03  0.46821711415E+03  0.17185386479E+03 0.  0.
         24    2    5    5    0    0  0.14338439558E+03  0.26110927012E+02  0.20731006663E+03  0.26577646842E+03  0.80117426563E+02 0.  0.
          5    1    5    5  501    0  0.16072670739E+02 -0.39947883704E+02  0.19775227150E+03  0.20244064573E+03  0.47000000000E+01 0. -1.
        -13    1    6    6    0    0  0.45826337560E+01 -0.11554700875E+02 -0.11869824155E+01  0.12486815916E+02  0.00000000000E+00 0.  1.
         14    1    6    6    0    0  0.13880176182E+03  0.37665627887E+02  0.20849704904E+03  0.25328965251E+03  0.00000000000E+00 0. -1.
         -5    1    3    3    0  503  0.12317836671E+02  0.32630050559E+02  0.60010788789E+02  0.69568915982E+02  0.47000000000E+01 0.  1.
         11    1    4    4    0    0 -0.11921442120E+03  0.77019321695E+01  0.36645327441E+03  0.38543404144E+03  0.00000000000E+00 0. -1.
        -12    1    4    4    0    0 -0.52560481789E+02 -0.26495026036E+02  0.39859416137E+03  0.40291673598E+03  0.00000000000E+00 0.  1.
</event>
<event>
12    1  0.1039610E+000  0.2302142E+03  0.7818608E-02  0.1126576E+00
         21   -1    0    0  501  502  0.00000000000E+00  0.00000000000E+00  0.10029207976E+04  0.10029207976E+04  0.00000000000E+00 0. -1.
         21   -1    0    0  502  503 -0.00000000000E+00 -0.00000000000E+00 -0.52732156396E+02  0.52732156396E+02  0.00000000000E+00 0. -1.
         -6    2    1    2    0  503  0.15376765994E+03 -0.62444920206E+01  0.47770022392E+03  0.53006386362E+03  0.17054825903E+03 0.  0.
        -24    2    3    3    0    0  0.85331528898E+02  0.53552798425E+02  0.35270628754E+03  0.37545211081E+03  0.80082396274E+02 0.  0.
          6    2    1    2  501    0 -0.15376765994E+03  0.62444920206E+01  0.47248841728E+03  0.52558909037E+03  0.17121653112E+03 0.  0.
         24    2    5    5    0    0 -0.14431465930E+03 -0.49908398144E+02  0.33552985326E+03  0.37719015320E+03  0.79840842612E+02 0.  0.
          5    1    5    5  501    0 -0.94530006446E+01  0.56152890164E+02  0.13695856402E+03  0.14839893717E+03  0.47000000000E+01 0. -1.
        -13    1    6    6    0    0 -0.80805402840E+02  0.13873543942E+02  0.14853669467E+03  0.16966183428E+03  0.00000000000E+00 0.  1.
         14    1    6    6    0    0 -0.63509256458E+02 -0.63781942086E+02  0.18699315859E+03  0.20752831892E+03  0.00000000000E+00 0. -1.
         -5    1    3    3    0  503  0.68436131044E+02 -0.59797290446E+02  0.12499393637E+03  0.15461175281E+03  0.47000000000E+01 0.  1.
         11    1    4    4    0    0 -0.36304545706E+01 -0.14500172012E+01 -0.28457103578E+01  0.48353715176E+01  0.00000000000E+00 0. -1.
        -12    1    4    4    0    0  0.88961983469E+02  0.55002815626E+02  0.35555199790E+03  0.37061673929E+03  0.00000000000E+00 0.  1.
</event>
<event>
12    1  0.1039610E+000  0.2197948E+03  0.7818608E-02  0.1135132E+00
         21   -1    0    0  501  502  0.00000000000E+00  0.00000000000E+00  0.34639107026E+02  0.34639107026E+02  0.00000000000E+00 0.  1.
         21   -1    0    0  502  503 -0.00000000000E+00 -0.00000000000E+00 -0.17889165255E+04  0.17889165255E+04  0.00000000000E+00 0.  1.
         -6    2    1    2    0  503  0.15243747241E+01  0.13171719720E+03 -0.42086572142E+03  0.47215025594E+03  0.16865990916E+03 0.  0.
        -24    2    3    3    0    0  0.30845522280E+02  0.10555336008E+03 -0.40856061963E+03  0.43070412708E+03  0.80568648417E+02 0.  0.
          6    2    1    2  501    0 -0.15243747241E+01 -0.13171719720E+03 -0.13334116971E+04  0.13514053766E+04  0.17594883994E+03 0.  0.
         24    2    5    5    0    0 -0.63481960640E+02 -0.55185736857E+02 -0.57691143565E+03  0.58850922220E+03  0.80255063098E+02 0.  0.
          5    1    5    5  501    0  0.61957585916E+02 -0.76531460344E+02 -0.75650026141E+03  0.76289615439E+03  0.47000000000E+01 0. -1.
        -11    1    6    6    0    0  0.38402988866E+01 -0.35829410648E+01 -0.27112407576E+03  0.27117494320E+03  0.00000000000E+00 0.  1.
         12    1    6    6    0    0 -0.67322259526E+02 -0.51602795792E+02 -0.30578735988E+03  0.31733427900E+03  0.00000000000E+00 0. -1.
         -5    1    3    3    0  503 -0.29321147556E+02  0.26163837118E+02 -0.12305101793E+02  0.41446128852E+02  0.47000000000E+01 0.  1.
         11    1    4    4    0    0  0.38827187729E+02  0.61464955945E+02 -0.13344572223E+03  0.15196464094E+03  0.00000000000E+00 0. -1.
        -12    1    4    4    0    0 -0.79816654489E+01  0.44088404138E+02 -0.27511489740E+03  0.27873948614E+03  0.00000000000E+00 0.  1.
</event>
<event>
12    1  0.1039610E+000  0.1866208E+03  0.7818608E-02  0.1161959E+00
         21   -1    0    0  501  502  0.00000000000E+00  0.00000000000E+00  0.75348462364E+02  0.75348462364E+02  0.00000000000E+00 0. -1.
         21   -1    0    0  502  503 -0.00000000000E+00 -0.00000000000E+00 -0.46167490037E+03  0.46167490037E+03  0.00000000000E+00 0. -1.
         -6    2    1    2    0  503 -0.44064380806E+02  0.48712585050E+02 -0.21866842054E+03  0.28747731787E+03  0.17467897570E+03 0.  0.
        -24    2    3    3    0    0 -0.77953889355E+00  0.67910128631E+01 -0.21185636948E+03  0.22665388659E+03  0.80262927172E+02 0.  0.
          6    2    1    2  501    0  0.44064380806E+02 -0.48712585050E+02 -0.16765801747E+03  0.24954604486E+03  0.17276988189E+03 0.  0.
         24    2    5    5    0    0  0.30135477960E+02 -0.44660308791E+02 -0.19522614149E+03  0.21804165248E+03  0.80785058519E+02 0.  0.
          5    1    5    5  501    0  0.13928902846E+02 -0.40522762585E+01  0.27568124025E+02  0.31504392386E+02  0.47000000000E+01 0. -1.
        -11    1    6    6    0    0  0.83684467842E+01 -0.64045703947E+02 -0.10551987466E+03  0.12371874168E+03  0.00000000000E+00 0.  1.
         12    1    6    6    0    0  0.21767031176E+02  0.19385395156E+02 -0.89706266834E+02  0.94322910795E+02  0.00000000000E+00 0. -1.
         -5    1    3    3    0  503 -0.43284841912E+02  0.41921572186E+02 -0.68120510597E+01  0.60823431288E+02  0.47000000000E+01 0.  1.
         13    1    4    4    0    0  0.33182288859E+02  0.22374431736E+02 -0.14072455763E+03  0.14630475252E+03  0.00000000000E+00 0. -1.
        -14    1    4    4    0    0 -0.33961827752E+02 -0.15583418873E+02 -0.71131811848E+02  0.80349134064E+02  0.00000000000E+00 0.  1.
</event>
<event>
12    1  0.1039610E+000  0.2513052E+03  0.7818608E-02  0.1112537E+00
         21   -1    0    0  503  502  0.00000000000E+00  0.00000000000E+00  0.88969375233E+02  0.88969375233E+02  0.00000000000E+00 0.  1.
         21   -1    0    0  501  503 -0.00000000000E+00 -0.00000000000E+00 -0.71020220358E+03  0.71020220358E+03  0.00000000000E+00 0.  1.
          6    2    1    2  501    0 -0.27213148322E+02  0.18091161294E+03 -0.32769336154E+03  0.41275244971E+03  0.17179079838E+03 0.  0.
         24    2    3    3    0    0  0.49632317426E+02  0.11470844126E+03 -0.21874570314E+03  0.26382371569E+03  0.78306301726E+02 0.  0.
         -6    2    1    2    0  502  0.27213148322E+02 -0.18091161294E+03 -0.29353946680E+03  0.38641912910E+03  0.17229265110E+03 0.  0.
        -24    2    5    5    0    0  0.60538951390E+02 -0.15030609043E+03 -0.14772045856E+03  0.23366907076E+03  0.80765186156E+02 0.  0.
          5    1    3    3  501    0 -0.76845465748E+02  0.66203171675E+02 -0.10894765840E+03  0.14892873402E+03  0.47000000000E+01 0. -1.
        -11    1    4    4    0    0  0.38710451539E+02  0.12515022277E+03 -0.20564189301E+03  0.24382302082E+03  0.00000000000E+00 0.  1.
         12    1    4    4    0    0  0.10921865887E+02 -0.10441781514E+02 -0.13103810130E+02  0.20000694877E+02  0.00000000000E+00 0. -1.
         -5    1    5    5    0  502 -0.33325803068E+02 -0.30605522503E+02 -0.14581900824E+03  0.15275005834E+03  0.47000000000E+01 0.  1.
         13    1    6    6    0    0  0.36994105136E+02 -0.11100602818E+03 -0.14695753646E+03  0.18784946002E+03  0.00000000000E+00 0. -1.
        -14    1    6    6    0    0  0.23544846255E+02 -0.39300062252E+02 -0.76292210219E+00  0.45819610740E+02  0.00000000000E+00 0.  1.
</event>
<event>
12    1  0.1039610E+000  0.2059430E+03  0.7818608E-02  0.1144939E+00
         21   -1    0    0  503  502  0.00000000000E+00  0.00000000000E+00  0.12790620881E+04  0.12790620881E+04  0.00000000000E+00 0. -1.
         21   -1    0    0  501  503 -0.00000000000E+00 -0.00000000000E+00 -0.41441017382E+02  0.41441017382E+02  0.00000000000E+00 0. -1.
          6    2    1    2  501    0  0.34026016451E+02 -0.10584765305E+03  0.91494272226E+03  0.93770573903E+03  0.17265680569E+03 0.  0.
         24    2    3    3    0    0  0.25987978699E+02 -0.98983086187E+02  0.91672198284E+03  0.92600154759E+03  0.81404213176E+02 0.  0.
         -6    2    1    2    0  502 -0.34026016451E+02  0.10584765305E+03  0.32267834844E+03  0.38279736643E+03  0.17335227642E+03 0.  0.
        -24    2    5    5    0    0 -0.40819929332E+02  0.53968338009E+02  0.74740268506E+02  0.12935506123E+03  0.81041816318E+02 0.  0.
          5    1    3    3  501    0  0.80380377519E+01 -0.68645668619E+01 -0.17792605854E+01  0.11704191443E+02  0.47000000000E+01 0. -1.
        -11    1    4    4    0    0  0.24530332464E+02 -0.48889579866E+02  0.19455892005E+03  0.20210171103E+03  0.00000000000E+00 0.  1.
         12    1    4    4    0    0  0.14576462351E+01 -0.50093506321E+02  0.72216306280E+03  0.72389983656E+03  0.00000000000E+00 0. -1.
         -5    1    5    5    0  502  0.67939128810E+01  0.51879315040E+02  0.24793807994E+03  0.25344230520E+03  0.47000000000E+01 0.  1.
         11    1    6    6    0    0  0.23192194934E+02  0.51856702855E+01  0.89127961596E+01  0.25381233571E+02  0.00000000000E+00 0. -1.
        -12    1    6    6    0    0 -0.64012124267E+02  0.48782667724E+02  0.65827472346E+02  0.10397382766E+03  0.00000000000E+00 0.  1.
</event>
<event>
12    1  0.1039610E+000  0.2038794E+03  0.7818608E-02  0.1146846E+00
         21   -1    0    0  503  502  0.00000000000E+00  0.00000000000E+00  0.53184721734E+02  0.53184721734E+02  0.00000000000E+00 0. -1.
         21   -1    0    0  501  503 -0.00000000000E+00 -0.00000000000E+00 -0.11638402472E+04  0.11638402472E+04  0.00000000000E+00 0. -1.
          6    2    1    2  501    0  0.48416599371E+02  0.92630657131E+02 -0.90842998422E+03  0.93102730544E+03  0.17504914028E+03 0.  0.
         24    2    3    3    0    0 -0.36278441590E+02  0.31759192966E+02 -0.29771486278E+03  0.31145193903E+03  0.77739302426E+02 0.  0.
         -6    2    1    2    0  502 -0.48416599371E+02 -0.92630657131E+02 -0.20222554122E+03  0.28599766346E+03  0.17313257421E+03 0.  0.
        -24    2    5    5    0    0 -0.96064239719E+02 -0.43916335135E+02 -0.15277754725E+03  0.20167342670E+03  0.78576137910E+02 0.  0.
          5    1    3    3  501    0  0.84695040961E+02  0.60871464166E+02 -0.61071512144E+03  0.61957536641E+03  0.47000000000E+01 0. -1.
        -11    1    4    4    0    0 -0.16850320736E+02  0.42688560752E+02 -0.27778428794E+03  0.28154991947E+03  0.00000000000E+00 0.  1.
         12    1    4    4    0    0 -0.19428120854E+02 -0.10929367787E+02 -0.19930574845E+02  0.29902019561E+02  0.00000000000E+00 0. -1.
         -5    1    5    5    0  502  0.47647640348E+02 -0.48714321996E+02 -0.49447993968E+02  0.84324236764E+02  0.47000000000E+01 0.  1.
         11    1    6    6    0    0 -0.55946106482E+02 -0.44782846185E+02 -0.40220989511E+02  0.82177844582E+02  0.00000000000E+00 0. -1.
        -12    1    6    6    0    0 -0.40118133238E+02  0.86651104997E+00 -0.11255655774E+03  0.11949558212E+03  0.00000000000E+00 0.  1.
</event>
<event>
12    1  0.1039610E+000  0.2263917E+03  0.7818608E-02  0.1129430E+00
         21   -1    0    0  501  502  0.00000000000E+00  0.00000000000E+00  0.27697700500E+03  0.27697700500E+03  0.00000000000E+00 0.  1.
         21   -1    0    0  502  503 -0.00000000000E+00 -0.00000000000E+00 -0.18761688626E+03  0.18761688626E+03  0.00000000000E+00 0.  1.
         -6    2    1    2    0  503  0.13204797658E+03  0.61747840529E+02  0.12673516996E+02  0.22674611607E+03  0.17321581681E+03 0.  0.
        -24    2    3    3    0    0  0.87348934224E+02  0.10361909359E+03 -0.15520789751E+02  0.15915754342E+03  0.81996803880E+02 0.  0.
          6    2    1    2  501    0 -0.13204797658E+03 -0.61747840529E+02  0.76686601745E+02  0.23784777518E+03  0.17158457198E+03 0.  0.
         24    2    5    5    0    0 -0.23714806246E+02 -0.78891919201E+02  0.41505099162E+02  0.12256627904E+03  0.80706211356E+02 0.  0.
          5    1    5    5  501    0 -0.10833317033E+03  0.17144078671E+02  0.35181502583E+02  0.11528149614E+03  0.47000000000E+01 0. -1.
        -11    1    6    6    0    0  0.12523983656E+02 -0.67933466705E+02  0.38749946946E+01  0.69186860379E+02  0.00000000000E+00 0.  1.
         12    1    6    6    0    0 -0.36238789903E+02 -0.10958452496E+02  0.37630104467E+02  0.53379418664E+02  0.00000000000E+00 0. -1.
         -5    1    3    3    0  503  0.44699042352E+02 -0.41871253062E+02  0.28194306747E+02  0.67588572652E+02  0.47000000000E+01 0.  1.
         13    1    4    4    0    0  0.67484382349E+02  0.17093273012E+02 -0.75448423770E+01  0.70023185373E+02  0.00000000000E+00 0. -1.
        -14    1    4    4    0    0  0.19864551875E+02  0.86525820579E+02 -0.79759473741E+01  0.89134358048E+02  0.00000000000E+00 0.  1.
</event>
<event>
12    1  0.1039610E+000  0.1846717E+03  0.7818608E-02  0.1164215E+00
         21   -1    0    0  501  502  0.00000000000E+00  0.00000000000E+00  0.15163153995E+03  0.15163153995E+03  0.00000000000E+00 0. -1.
         21   -1    0    0  502  503 -0.00000000000E+00 -0.00000000000E+00 -0.25454307947E+03  0.25454307947E+03  0.00000000000E+00 0. -1.
         -6    2    1    2    0  503 -0.21098626279E+02 -0.63807761908E+02  0.23240159919E+02  0.18252779905E+03  0.16810624581E+03 0.  0.
        -24    2    3    3    0    0 -0.19860930862E+02  0.15092580044E+02  0.47758740206E+02  0.99762790563E+02  0.83961149157E+02 0.  0.
          6    2    1    2  501    0  0.21098626279E+02  0.63807761908E+02 -0.12615169944E+03  0.22364682037E+03  0.17200891396E+03 0.  0.
         24    2    5    5    0    0  0.29492422736E+02 -0.95669229748E+00 -0.13295228278E+03  0.15781955945E+03  0.79749517793E+02 0.  0.
          5    1    5    5  501    0 -0.83937964568E+01  0.64764454206E+02  0.68005833396E+01  0.65827260928E+02  0.47000000000E+01 0. -1.
        -13    1    6    6    0    0 -0.18314725264E+02  0.21550298349E+02 -0.25509988479E+02  0.38086796041E+02  0.00000000000E+00 0.  1.
         14    1    6    6    0    0  0.47807148000E+02 -0.22506990647E+02 -0.10744229430E+03  0.11973276341E+03  0.00000000000E+00 0. -1.
         -5    1    3    3    0  503 -0.12376954162E+01 -0.78900341952E+02 -0.24518580287E+02  0.82765008484E+02  0.47000000000E+01 0.  1.
         13    1    4    4    0    0 -0.51991523060E+02  0.39769328293E+00  0.24610324766E+02  0.57523427533E+02  0.00000000000E+00 0. -1.
        -14    1    4    4    0    0  0.32130592197E+02  0.14694886761E+02  0.23148415440E+02  0.42239363031E+02  0.00000000000E+00 0.  1.
</event>
<event>
12    1  0.1039610E+000  0.2218781E+03  0.7818608E-02  0.1132732E+00
         21   -1    0    0  501  502  0.00000000000E+00  0.00000000000E+00  0.49554884889E+03  0.49554884889E+03  0.00000000000E+00 0. -1.
         21   -1    0    0  502  503 -0.00000000000E+00 -0.00000000000E+00 -0.11577845023E+03  0.11577845023E+03  0.00000000000E+00 0. -1.
         -6    2    1    2    0  503 -0.14557484455E+02  0.13874184686E+03  0.72223956991E+02  0.23209821681E+03  0.17085684610E+03 0.  0.
        -24    2    3    3    0    0  0.14557144655E+01  0.98388892030E+01  0.62923710277E+02  0.10178712894E+03  0.79387048424E+02 0.  0.
          6    2    1    2  501    0  0.14557484455E+02 -0.13874184686E+03  0.30754644166E+03  0.37922908230E+03  0.17253597497E+03 0.  0.
         24    2    5    5    0    0  0.14203952691E+02 -0.90758125883E+02  0.30797140456E+03  0.33101255964E+03  0.79272561011E+02 0.  0.
          5    1    5    5  501    0  0.35353176306E+00 -0.47983720982E+02 -0.42496289666E+00  0.48216522660E+02  0.47000000000E+01 0. -1.
        -13    1    6    6    0    0  0.11728777182E+02 -0.62000278562E+02  0.83333542765E+02  0.10452788195E+03  0.00000000000E+00 0.  1.
         14    1    6    6    0    0  0.24751755098E+01 -0.28757847321E+02  0.22463786180E+03  0.22648467769E+03  0.00000000000E+00 0. -1.
         -5    1    3    3    0  503 -0.16013198920E+02  0.12890295766E+03  0.93002467146E+01  0.13031108787E+03  0.47000000000E+01 0.  1.
         11    1    4    4    0    0  0.13000743831E+01  0.44902838246E+02  0.34160442487E+02  0.56434837705E+02  0.00000000000E+00 0. -1.
        -12    1    4    4    0    0  0.15564008240E+00 -0.35063949043E+02  0.28763267790E+02  0.45352291235E+02  0.00000000000E+00 0.  1.
</event>
<event>
12    1  0.1039610E+000  0.2578869E+03  0.7818608E-02  0.1108577E+00
         21   -1    0    0  503  502  0.00000000000E+00  0.00000000000E+00  0.93399559278E+02  0.93399559278E+02  0.00000000000E+00 0.  1.
         21   -1    0    0  501  503 -0.00000000000E+00 -0.00000000000E+00 -0.10068586625E+04  0.10068586625E+04  0.00000000000E+00 0.  1.
          6    2    1    2  501    0  0.11719260370E+03 -0.15090387565E+03 -0.15826283610E+03  0.30257693487E+03  0.17320389769E+03 0.  0.
         24    2    3    3    0    0  0.83992584652E+01 -0.80960491216E+02 -0.30516058687E+02  0.12072700186E+03  0.83777266967E+02 0.  0.
         -6    2    1    2    0  502 -0.11719260370E+03  0.15090387565E+03 -0.75519626716E+03  0.79768128695E+03  0.17166230678E+03 0.  0.
        -24    2    5    5    0    0 -0.34552408010E+02  0.98621648942E+02 -0.60225854729E+03  0.61609144876E+03  0.77027377715E+02 0.  0.
          5    1    3    3  501    0  0.10879334523E+03 -0.69943384438E+02 -0.12774677742E+03  0.18184993301E+03  0.47000000000E+01 0. -1.
        -13    1    4    4    0    0 -0.15060151663E+02 -0.86099570819E+02 -0.38372541839E+02  0.95458871932E+02  0.00000000000E+00 0.  1.
         14    1    4    4    0    0  0.23459410128E+02  0.51390796027E+01  0.78564831522E+01  0.25268129932E+02  0.00000000000E+00 0. -1.
         -5    1    5    5    0  502 -0.82640195688E+02  0.52282226712E+02 -0.15293771987E+03  0.18158983818E+03  0.47000000000E+01 0.  1.
         13    1    6    6    0    0 -0.55864207079E+02  0.90383070938E+02 -0.51831051536E+03  0.52908950044E+03  0.00000000000E+00 0. -1.
        -14    1    6    6    0    0  0.21311799069E+02  0.82385780047E+01 -0.83948031934E+02  0.87001948327E+02  0.00000000000E+00 0.  1.
</event>
<event>
12    1  0.1039610E+000  0.3004413E+03  0.7818608E-02  0.1085034E+00
         21   -1    0    0  503  502  0.00000000000E+00  0.00000000000E+00  0.75941611491E+02  0.75941611491E+02  0.00000000000E+00 0. -1.
         21   -1    0    0  501  503 -0.00000000000E+00 -0.00000000000E+00 -0.23532732946E+04  0.23532732946E+04  0.00000000000E+00 0. -1.
          6    2    1    2  501    0  0.21398999954E+03  0.12122976842E+03 -0.28413598117E+03  0.41351929093E+03  0.17255889292E+03 0.  0.
         24    2    3    3    0    0  0.74735818230E+02  0.82916689429E+02 -0.20732046043E+03  0.24986620279E+03  0.83610561937E+02 0.  0.
         -6    2    1    2    0  502 -0.21398999954E+03 -0.12122976842E+03 -0.19931957019E+04  0.20156956152E+04  0.17236974816E+03 0.  0.
        -24    2    5    5    0    0 -0.47239767146E+02 -0.32106601224E+02 -0.68078703104E+03  0.68972910413E+03  0.94830511963E+02 0.  0.
          5    1    3    3  501    0  0.13925418131E+03  0.38313078987E+02 -0.76815520731E+02  0.16365308814E+03  0.47000000000E+01 0. -1.
        -11    1    4    4    0    0  0.39806732524E+02  0.40609973981E+02 -0.30085438814E+02  0.64334124457E+02  0.00000000000E+00 0.  1.
         12    1    4    4    0    0  0.34929085706E+02  0.42306715448E+02 -0.17723502162E+03  0.18553207833E+03  0.00000000000E+00 0. -1.
         -5    1    5    5    0  502 -0.16675023239E+03 -0.89123167192E+02 -0.13124086709E+04  0.13259665110E+04  0.47000000000E+01 0.  1.
         11    1    6    6    0    0  0.13028822471E+02 -0.41666463703E+02 -0.17906789699E+03  0.18431265867E+03  0.00000000000E+00 0. -1.
        -12    1    6    6    0    0 -0.60268589618E+02  0.95598624787E+01 -0.50171913405E+03  0.50541644546E+03  0.00000000000E+00 0.  1.
</event>
<event>
12    1  0.1039610E+000  0.4381802E+03  0.7818608E-02  0.1031344E+00
         21   -1    0    0  501  502  0.00000000000E+00  0.00000000000E+00  0.58570316055E+03  0.58570316055E+03  0.00000000000E+00 0. -1.
         21   -1    0    0  502  503 -0.00000000000E+00 -0.00000000000E+00 -0.41532691085E+03  0.41532691085E+03  0.00000000000E+00 0. -1.
         -6    2    1    2    0  503 -0.35774917649E+03 -0.18404108015E+03  0.31544985664E+03  0.53991713205E+03  0.17362691313E+03 0.  0.
        -24    2    3    3    0    0 -0.36030257305E+03 -0.16509248054E+03  0.32447058793E+03  0.51825996570E+03  0.78985811028E+02 0.  0.
          6    2    1    2  501    0  0.35774917649E+03  0.18404108015E+03 -0.14507360694E+03  0.46111293936E+03  0.17240417324E+03 0.  0.
         24    2    5    5    0    0  0.29376025341E+03  0.17299709317E+03 -0.62106746792E+02  0.35565137381E+03  0.80047304550E+02 0.  0.
          5    1    5    5  501    0  0.63988923081E+02  0.11043986978E+02 -0.82966860144E+02  0.10546156555E+03  0.47000000000E+01 0. -1.
        -13    1    6    6    0    0  0.12985419902E+03  0.12172461622E+03 -0.22473722722E+02  0.17939917338E+03  0.00000000000E+00 0.  1.
         14    1    6    6    0    0  0.16390605439E+03  0.51272476951E+02 -0.39633024070E+02  0.17625220043E+03  0.00000000000E+00 0. -1.
         -5    1    3    3    0  503  0.25533965526E+01 -0.18948599607E+02 -0.90207312922E+01  0.21657166344E+02  0.47000000000E+01 0.  1.
         13    1    4    4    0    0 -0.14529827658E+03 -0.32015594965E+02  0.93019117386E+02  0.17546835526E+03  0.00000000000E+00 0. -1.
        -14    1    4    4    0    0 -0.21500429647E+03 -0.13307688557E+03  0.23145147055E+03  0.34279161044E+03  0.00000000000E+00 0.  1.
</event>
<event>
12    1  0.1039610E+000  0.3824782E+03  0.7818608E-02  0.1050096E+00
         21   -1    0    0  503  502  0.00000000000E+00  0.00000000000E+00  0.22123618239E+03  0.22123618239E+03  0.00000000000E+00 0. -1.
         21   -1    0    0  501  503 -0.00000000000E+00 -0.00000000000E+00 -0.74789808090E+03  0.74789808090E+03  0.00000000000E+00 0. -1.
          6    2    1    2  501    0 -0.30083894676E+03 -0.16138438498E+03 -0.96798612791E+02  0.39374565667E+03  0.17063610141E+03 0.  0.
         24    2    3    3    0    0 -0.10550650100E+03 -0.58536337970E+02  0.20437777172E+02  0.14374776414E+03  0.75416127862E+02 0.  0.
         -6    2    1    2    0  502  0.30083894676E+03  0.16138438498E+03 -0.42986328572E+03  0.57538860662E+03  0.17245466829E+03 0.  0.
        -24    2    5    5    0    0  0.76804964989E+02  0.85309832341E+02 -0.11490203479E+03  0.18143271806E+03  0.80861507785E+02 0.  0.
          5    1    3    3  501    0 -0.19533244576E+03 -0.10284804701E+03 -0.11723638996E+03  0.24999789253E+03  0.47000000000E+01 0. -1.
        -11    1    4    4    0    0 -0.11664050800E+03 -0.45671326142E+02  0.18552681595E+02  0.12662969688E+03  0.00000000000E+00 0.  1.
         12    1    4    4    0    0  0.11134006998E+02 -0.12865011828E+02  0.18850955773E+01  0.17118067254E+02  0.00000000000E+00 0. -1.
         -5    1    5    5    0  502  0.22403398177E+03  0.76074552636E+02 -0.31496125093E+03  0.39395588856E+03  0.47000000000E+01 0.  1.
         13    1    6    6    0    0 -0.94918021146E+01  0.17454876503E+02 -0.50238405813E+02  0.54024665105E+02  0.00000000000E+00 0. -1.
        -14    1    6    6    0    0  0.86296767103E+02  0.67854955838E+02 -0.64663628978E+02  0.12740805295E+03  0.00000000000E+00 0.  1.
</event>
<event>
12    1  0.1039610E+000  0.2391720E+03  0.7818608E-02  0.1120414E+00
         21   -1    0    0  503  502  0.00000000000E+00  0.00000000000E+00  0.11367720164E+04  0.11367720164E+04  0.00000000000E+00 0.  1.
         21   -1    0    0  501  503 -0.00000000000E+00 -0.00000000000E+00 -0.53248558755E+02  0.53248558755E+02  0.00000000000E+00 0.  1.
          6    2    1    2  501    0  0.16085337570E+03  0.37715293472E+02  0.68376704339E+03  0.72438983263E+03  0.17293642806E+03 0.  0.
         24    2    3    3    0    0  0.52787313299E+02  0.72301230473E+02  0.43452881303E+03  0.45049889383E+03  0.78230400836E+02 0.  0.
         -6    2    1    2    0  502 -0.16085337570E+03 -0.37715293472E+02  0.39975641423E+03  0.46563074250E+03  0.17236747318E+03 0.  0.
        -24    2    5    5    0    0 -0.11403191044E+03  0.42262447968E+02  0.25896404040E+03  0.29700906162E+03  0.79766016309E+02 0.  0.
          5    1    3    3  501    0  0.10806606240E+03 -0.34585937001E+02  0.24923823036E+03  0.27389093879E+03  0.47000000000E+01 0. -1.
        -13    1    4    4    0    0 -0.98435942996E+01  0.42166615121E+02  0.10245126923E+03  0.11122581691E+03  0.00000000000E+00 0.  1.
         14    1    4    4    0    0  0.62630907599E+02  0.30134615352E+02  0.33207754380E+03  0.33927307693E+03  0.00000000000E+00 0. -1.
         -5    1    5    5    0  502 -0.46821465260E+02 -0.79977741440E+02  0.14079237383E+03  0.16862168088E+03  0.47000000000E+01 0.  1.
         11    1    6    6    0    0 -0.81033736679E+02  0.53396572973E+02  0.23631721355E+03  0.25546719145E+03  0.00000000000E+00 0. -1.
        -12    1    6    6    0    0 -0.32998173763E+02 -0.11134125005E+02  0.22646826850E+02  0.41541870176E+02  0.00000000000E+00 0.  1.
</event>
<event>
12    1  0.1039610E+000  0.2021824E+03  0.7818608E-02  0.1148942E+00
         21   -1    0    0  503  502  0.00000000000E+00  0.00000000000E+00  0.16042540456E+03  0.16042540456E+03  0.00000000000E+00 0. -1.
         21   -1    0    0  501  503 -0.00000000000E+00 -0.00000000000E+00 -0.27307319201E+03  0.27307319201E+03  0.00000000000E+00 0. -1.
          6    2    1    2  501    0  0.17661195260E+02 -0.95593272345E+02  0.90839234182E+01  0.19749792692E+03  0.17167679499E+03 0.  0.
         24    2    3    3    0    0  0.57892683490E+01  0.16963351741E+02 -0.34567018015E-01  0.83852983603E+02  0.81914899340E+02 0.  0.
         -6    2    1    2    0  502 -0.17661195260E+02  0.95593272345E+02 -0.12173171087E+03  0.23600066964E+03  0.17727863691E+03 0.  0.
        -24    2    5    5    0    0 -0.48813974140E+02 -0.70193019537E+01 -0.48392985232E+02  0.10599876691E+03  0.80385215649E+02 0.  0.
          5    1    3    3  501    0  0.11871926911E+02 -0.11255662409E+03  0.91184904362E+01  0.11364494332E+03  0.47000000000E+01 0. -1.
        -13    1    4    4    0    0  0.26261385562E+02 -0.25296590957E+02  0.42021145801E+01  0.36704708862E+02  0.00000000000E+00 0.  1.
         14    1    4    4    0    0 -0.20472117213E+02  0.42259942699E+02 -0.42366815981E+01  0.47148274741E+02  0.00000000000E+00 0. -1.
         -5    1    5    5    0  502  0.31152778880E+02  0.10261257430E+03 -0.73338725635E+02  0.13000190273E+03  0.47000000000E+01 0.  1.
         13    1    6    6    0    0  0.46072384848E+01 -0.13232299400E+02 -0.50268587383E+02  0.52184780073E+02  0.00000000000E+00 0. -1.
        -14    1    6    6    0    0 -0.53421212624E+02  0.62129974459E+01  0.18756021507E+01  0.53813986834E+02  0.00000000000E+00 0.  1.
</event>
<event>
12    1  0.1039610E+000  0.4979876E+03  0.7818608E-02  0.1014310E+00
         21   -1    0    0  503  502  0.00000000000E+00  0.00000000000E+00  0.25185013344E+03  0.25185013344E+03  0.00000000000E+00 0. -1.
         21   -1    0    0  501  503 -0.00000000000E+00 -0.00000000000E+00 -0.98558959762E+03  0.98558959762E+03  0.00000000000E+00 0.  1.
          6    2    1    2  501    0  0.45355609981E+03  0.11200927997E+03 -0.34667496037E+03  0.60677442641E+03  0.17243103525E+03 0.  0.
         24    2    3    3    0    0  0.19561587082E+03  0.93704192087E+02 -0.21367670531E+03  0.31594997107E+03  0.84383679072E+02 0.  0.
         -6    2    1    2    0  502 -0.45355609981E+03 -0.11200927997E+03 -0.38706450380E+03  0.63066530466E+03  0.17222247799E+03 0.  0.
        -24    2    5    5    0    0 -0.46471070244E+03 -0.10246377201E+03 -0.37717802515E+03  0.61235207604E+03  0.79100827019E+02 0.  0.
          5    1    3    3  501    0  0.25794022899E+03  0.18305087884E+02 -0.13299825506E+03  0.29082445534E+03  0.47000000000E+01 0. -1.
        -13    1    4    4    0    0  0.94412924903E+02  0.67850923701E+02 -0.61934642524E+02  0.13173248719E+03  0.00000000000E+00 0.  1.
         14    1    4    4    0    0  0.10120294592E+03  0.25853268386E+02 -0.15174206279E+03  0.18421748388E+03  0.00000000000E+00 0. -1.
         -5    1    5    5    0  502  0.11154602636E+02 -0.95455079629E+01 -0.98864786503E+01  0.18313228616E+02  0.47000000000E+01 0.  1.
         11    1    6    6    0    0 -0.63883573779E+01 -0.13002266023E+02 -0.54067231646E+01  0.15462945615E+02  0.00000000000E+00 0. -1.
        -12    1    6    6    0    0 -0.45832234507E+03 -0.89461505985E+02 -0.37177130199E+03  0.59688913043E+03  0.00000000000E+00 0.  1.
</event>
<event>
12    1  0.1039610E+000  0.3953036E+03  0.7818608E-02  0.1045471E+00
         21   -1    0    0  501  502  0.00000000000E+00  0.00000000000E+00  0.33477728854E+03  0.33477728854E+03  0.00000000000E+00 0. -1.
         21   -1    0    0  502  503 -0.00000000000E+00 -0.00000000000E+00 -0.98920921112E+03  0.98920921112E+03  0.00000000000E+00 0. -1.
         -6    2    1    2    0  503 -0.10597407786E+03  0.33919285680E+03 -0.80874972308E+03  0.90018946684E+03  0.17315502402E+03 0.  0.
        -24    2    3    3    0    0 -0.63484652763E+02  0.19153030076E+03 -0.32303242411E+03  0.39072605675E+03  0.87193733436E+02 0.  0.
          6    2    1    2  501    0  0.10597407786E+03 -0.33919285680E+03  0.15431780050E+03  0.42379703282E+03  0.17177788622E+03 0.  0.
         24    2    5    5    0    0  0.11794725857E+03 -0.30962745033E+03  0.17744561312E+03  0.38411761709E+03  0.79238149535E+02 0.  0.
          5    1    5    5  501    0 -0.11973180707E+02 -0.29565406472E+02 -0.23127812622E+02  0.39679415732E+02  0.47000000000E+01 0. -1.
        -11    1    6    6    0    0  0.44684768526E+02 -0.21330326621E+03  0.95346382324E+02  0.23787800347E+03  0.00000000000E+00 0.  1.
         12    1    6    6    0    0  0.73262490042E+02 -0.96324184121E+02  0.82099230798E+02  0.14623961362E+03  0.00000000000E+00 0. -1.
         -5    1    3    3    0  503 -0.42489425099E+02  0.14766255604E+03 -0.48571729898E+03  0.50946341010E+03  0.47000000000E+01 0.  1.
         13    1    4    4    0    0 -0.12736885476E+02  0.18923445354E+02 -0.22315887014E+01  0.22919533674E+02  0.00000000000E+00 0. -1.
        -14    1    4    4    0    0 -0.50747767287E+02  0.17260685541E+03 -0.32080083540E+03  0.36780652307E+03  0.00000000000E+00 0.  1.
</event>
<event>
12    1  0.1039610E+000  0.3595115E+03  0.7818608E-02  0.1059232E+00
         21   -1    0    0  501  502  0.00000000000E+00  0.00000000000E+00  0.10192895723E+03  0.10192895723E+03  0.00000000000E+00 0. -1.
         21   -1    0    0  502  503 -0.00000000000E+00 -0.00000000000E+00 -0.13168318916E+04  0.13168318916E+04  0.00000000000E+00 0. -1.
         -6    2    1    2    0  503 -0.28327429126E+02 -0.30974595042E+03 -0.76115840193E+03  0.83985444922E+03  0.17102159513E+03 0.  0.
        -24    2    3    3    0    0 -0.30013098333E+02 -0.28830962720E+03 -0.76047055752E+03  0.81783353725E+03  0.80703151016E+02 0.  0.
          6    2    1    2  501    0  0.28327429126E+02  0.30974595042E+03 -0.45374453245E+03  0.57890639962E+03  0.18028733108E+03 0.  0.
         24    2    5    5    0    0  0.19172350564E+02  0.21826043772E+03 -0.19301643096E+03  0.30240206439E+03  0.78654104940E+02 0.  0.
          5    1    5    5  501    0  0.91550785616E+01  0.91485512703E+02 -0.26072810149E+03  0.27650433524E+03  0.47000000000E+01 0. -1.
        -11    1    6    6    0    0  0.10250253020E+02  0.19820043895E+03 -0.19750404867E+03  0.27999344801E+03  0.00000000000E+00 0.  1.
         12    1    6    6    0    0  0.89220975446E+01  0.20059998767E+02  0.44876177087E+01  0.22408616375E+02  0.00000000000E+00 0. -1.
         -5    1    3    3    0  503  0.16856692069E+01 -0.21436323226E+02 -0.68784440862E+00  0.22020911971E+02  0.47000000000E+01 0.  1.
         13    1    4    4    0    0 -0.40542032540E+02 -0.22227139035E+03 -0.49594081771E+03  0.54498213002E+03  0.00000000000E+00 0. -1.
        -14    1    4    4    0    0  0.10528934207E+02 -0.66038236849E+02 -0.26452973981E+03  0.27285140723E+03  0.00000000000E+00 0.  1.
</event>
<event>
12    1  0.1039610E+000  0.2586773E+03  0.7818608E-02  0.1108294E+00
         21   -1    0    0  503  502  0.00000000000E+00  0.00000000000E+00  0.86667996464E+03  0.86667996464E+03  0.00000000000E+00 0.  1.
         21   -1    0    0  501  503 -0.00000000000E+00 -0.00000000000E+00 -0.93694729405E+02  0.93694729405E+02  0.00000000000E+00 0.  1.
          6    2    1    2  501    0 -0.11902897172E+03  0.15221475121E+03  0.59354073565E+03  0.64746008597E+03  0.17197886922E+03 0.  0.
         24    2    3    3    0    0 -0.14930935709E+03  0.12148429087E+03  0.42323237043E+03  0.47170943250E+03  0.79576581286E+02 0.  0.
         -6    2    1    2    0  502  0.11902897172E+03 -0.15221475121E+03  0.17944449959E+03  0.31291460808E+03  0.16845770069E+03 0.  0.
        -24    2    5    5    0    0 -0.47848017609E+01 -0.78219727586E+02  0.86663411783E+02  0.14134673731E+03  0.79543278126E+02 0.  0.
          5    1    3    3  501    0  0.30280385372E+02  0.30730460337E+02  0.17030836522E+03  0.17575065347E+03  0.47000000000E+01 0. -1.
        -13    1    4    4    0    0 -0.60776037242E+02  0.10226225940E+02  0.86696841258E+02  0.10637031862E+03  0.00000000000E+00 0.  1.
         14    1    4    4    0    0 -0.88533319851E+02  0.11125806493E+03  0.33653552917E+03  0.36533911388E+03  0.00000000000E+00 0. -1.
         -5    1    5    5    0  502  0.12381377348E+03 -0.73995023620E+02  0.92781087805E+02  0.17156787077E+03  0.47000000000E+01 0.  1.
         13    1    6    6    0    0 -0.20835696408E+02 -0.48447834307E+02  0.93021434195E+02  0.10693131493E+03  0.00000000000E+00 0. -1.
        -14    1    6    6    0    0  0.16050894648E+02 -0.29771893278E+02 -0.63580224115E+01  0.34415422376E+02  0.00000000000E+00 0.  1.
</event>
<event>
12    1  0.1039610E+000  0.2648852E+03  0.7818608E-02  0.1104408E+00
         21   -1    0    0  501  502  0.00000000000E+00  0.00000000000E+00  0.96055917291E+03  0.96055917291E+03  0.00000000000E+00 0.  1.
         21   -1    0    0  502  503 -0.00000000000E+00 -0.00000000000E+00 -0.79210364974E+02  0.79210364974E+02  0.00000000000E+00 0.  1.
         -6    2    1    2    0  503 -0.96519101615E+02 -0.17502168545E+03  0.59017310393E+03  0.64689138752E+03  0.17382648616E+03 0.  0.
        -24    2    3    3    0    0 -0.12727332178E+03 -0.95011127170E+02  0.42625487473E+03  0.46185412814E+03  0.79940007049E+02 0.  0.
          6    2    1    2  501    0  0.96519101615E+02  0.17502168545E+03  0.29117570400E+03  0.39287815036E+03  0.17210875362E+03 0.  0.
         24    2    5    5    0    0  0.15895896596E+02  0.57005489791E+02  0.16942248582E+03  0.20506478618E+03  0.99223396612E+02 0.  0.
          5    1    5    5  501    0  0.80623205020E+02  0.11801619566E+03  0.12175321818E+03  0.18781336418E+03  0.47000000000E+01 0. -1.
        -11    1    6    6    0    0 -0.41127386790E+02  0.28924569058E+02  0.92467489148E+02  0.10525364216E+03  0.00000000000E+00 0.  1.
         12    1    6    6    0    0  0.57023283386E+02  0.28080920733E+02  0.76954996669E+02  0.99811144015E+02  0.00000000000E+00 0. -1.
         -5    1    3    3    0  503  0.30754220163E+02 -0.80010558285E+02  0.16391822921E+03  0.18503725939E+03  0.47000000000E+01 0.  1.
         13    1    4    4    0    0 -0.27170534203E+01 -0.42572117365E+02  0.10381312569E+03  0.11223605758E+03  0.00000000000E+00 0. -1.
        -14    1    4    4    0    0 -0.12455626836E+03 -0.52439009805E+02  0.32244174904E+03  0.34961807055E+03  0.00000000000E+00 0.  1.
</event>
<event>
12    1  0.1039610E+000  0.1843376E+03  0.7818608E-02  0.1164787E+00
         21   -1    0    0  501  502  0.00000000000E+00  0.00000000000E+00  0.20250706334E+03  0.20250706334E+03  0.00000000000E+00 0.  1.
         21   -1    0    0  502  503 -0.00000000000E+00 -0.00000000000E+00 -0.39492204820E+03  0.39492204820E+03  0.00000000000E+00 0.  1.
         -6    2    1    2    0  503  0.43469893524E+02 -0.39664800872E+02  0.13191207691E+03  0.22667409787E+03  0.17469236543E+03 0.  0.
        -24    2    3    3    0    0 -0.40132227565E+02 -0.40917305113E+01  0.39764670854E+02  0.97182814659E+02  0.78967920506E+02 0.  0.
          6    2    1    2  501    0 -0.43469893524E+02  0.39664800872E+02 -0.32432706177E+03  0.37075501367E+03  0.16973010661E+03 0.  0.
         24    2    5    5    0    0 -0.12113517832E+02 -0.29982047723E+02 -0.24811064083E+03  0.26275066821E+03  0.80208248046E+02 0.  0.
          5    1    5    5  501    0 -0.31356375692E+02  0.69646848595E+02 -0.76216420949E+02  0.10800434546E+03  0.47000000000E+01 0. -1.
        -11    1    6    6    0    0 -0.16277138993E+02 -0.16019706070E+02 -0.24709199236E+03  0.24814517711E+03  0.00000000000E+00 0.  1.
         12    1    6    6    0    0  0.41636211606E+01 -0.13962341653E+02 -0.10186484692E+01  0.14605491101E+02  0.00000000000E+00 0. -1.
         -5    1    3    3    0  503  0.83602121089E+02 -0.35573070361E+02  0.92147406054E+02  0.12949128321E+03  0.47000000000E+01 0.  1.
         13    1    4    4    0    0 -0.25163538220E+01 -0.29011352774E+02 -0.92572685079E+01  0.30556302894E+02  0.00000000000E+00 0. -1.
        -14    1    4    4    0    0 -0.37615873743E+02  0.24919622263E+02  0.49021939362E+02  0.66626511765E+02  0.00000000000E+00 0.  1.
</event>
<event>
12    1  0.1039610E+000  0.1818636E+03  0.7818608E-02  0.1166250E+00
         21   -1    0    0  501  502  0.00000000000E+00  0.00000000000E+00  0.15341041719E+04  0.15341041719E+04  0.00000000000E+00 0.  1.
         21   -1    0    0  502  503 -0.00000000000E+00 -0.00000000000E+00 -0.27847055633E+02  0.27847055633E+02  0.00000000000E+00 0.  1.
         -6    2    1    2    0  503  0.45082539058E+02 -0.34802910908E+02  0.11260965102E+04  0.11405292956E+04  0.17166841837E+03 0.  0.
        -24    2    3    3    0    0 -0.37446938737E+02 -0.32583509844E+02  0.48210044965E+03  0.49124580091E+03  0.80234874148E+02 0.  0.
          6    2    1    2  501    0 -0.45082539058E+02  0.34802910908E+02  0.38016060605E+03  0.42142193193E+03  0.17271560551E+03 0.  0.
         24    2    5    5    0    0 -0.50933625150E+02  0.80250226347E+02  0.20742964440E+03  0.24265457249E+03  0.82582390224E+02 0.  0.
          5    1    5    5  501    0  0.58510860919E+01 -0.45447315438E+02  0.17273096165E+03  0.17876735944E+03  0.47000000000E+01 0. -1.
        -11    1    6    6    0    0  0.14590843719E+02  0.24729027675E+02  0.16065511216E+02  0.32901644044E+02  0.00000000000E+00 0.  1.
         12    1    6    6    0    0 -0.65524468870E+02  0.55521198672E+02  0.19136413318E+03  0.20975292844E+03  0.00000000000E+00 0. -1.
         -5    1    3    3    0  503  0.82529477795E+02 -0.22194010646E+01  0.64399606056E+03  0.64928349468E+03  0.47000000000E+01 0.  1.
         11    1    4    4    0    0  0.15375736409E+02  0.16272876535E+02  0.11176047993E+03  0.11398080827E+03  0.00000000000E+00 0. -1.
        -12    1    4    4    0    0 -0.52822675145E+02 -0.48856386379E+02  0.37033996972E+03  0.37726499264E+03  0.00000000000E+00 0.  1.
</event>
<event>
12    1  0.1039610E+000  0.1831268E+03  0.7818608E-02  0.1165252E+00
         21   -1    0    0  503  502  0.00000000000E+00  0.00000000000E+00  0.66648358654E+03  0.66648358654E+03  0.00000000000E+00 0.  1.
         21   -1    0    0  501  503 -0.00000000000E+00 -0.00000000000E+00 -0.61584550910E+02  0.61584550910E+02  0.00000000000E+00 0.  1.
          6    2    1    2  501    0 -0.39939763279E+02 -0.44039880566E+02  0.14451121507E+03  0.23327862643E+03  0.17320718950E+03 0.  0.
         24    2    3    3    0    0 -0.75359487821E+02 -0.59042762861E+02  0.14979735445E+03  0.19416754573E+03  0.78081292029E+02 0.  0.
         -6    2    1    2    0  502  0.39939763279E+02  0.44039880566E+02  0.46038782056E+03  0.49478951102E+03  0.17124549375E+03 0.  0.
        -24    2    5    5    0    0  0.68977674043E+01 -0.20068884716E+02  0.11358250549E+03  0.14053293192E+03  0.79988624639E+02 0.  0.
          5    1    3    3  501    0  0.35419724542E+02  0.15002882295E+02 -0.52861393756E+01  0.39111080697E+02  0.47000000000E+01 0. -1.
        -13    1    4    4    0    0 -0.47339278676E+00  0.77124213233E+01 -0.53591990630E+01  0.94035396524E+01  0.00000000000E+00 0.  1.
         14    1    4    4    0    0 -0.74886095034E+02 -0.66755184184E+02  0.15515655351E+03  0.18476400608E+03  0.00000000000E+00 0. -1.
         -5    1    5    5    0  502  0.33041995874E+02  0.64108765283E+02  0.34680531507E+03  0.35425657911E+03  0.47000000000E+01 0.  1.
         11    1    6    6    0    0  0.42415334806E+02 -0.65478972851E+01  0.45403949111E+02  0.62477629440E+02  0.00000000000E+00 0. -1.
        -12    1    6    6    0    0 -0.35517567402E+02 -0.13520987431E+02  0.68178556378E+02  0.78055302479E+02  0.00000000000E+00 0.  1.
</event>
<event>
12    1  0.1039610E+000  0.2407308E+03  0.7818608E-02  0.1119370E+00
         21   -1    0    0  503  502  0.00000000000E+00  0.00000000000E+00  0.23654856538E+03  0.23654856538E+03  0.00000000000E+00 0. -1.
         21   -1    0    0  501  503 -0.00000000000E+00 -0.00000000000E+00 -0.28741920642E+03  0.28741920642E+03  0.00000000000E+00 0.  1.
          6    2    1    2  501    0 -0.12067997712E+03  0.11662760448E+03  0.75666178172E+02  0.25234242127E+03  0.17258526024E+03 0.  0.
         24    2    3    3    0    0 -0.12780709832E+03  0.44289498732E+02  0.15576558905E+02  0.15791546673E+03  0.79990320454E+02 0.  0.
         -6    2    1    2    0  502  0.12067997712E+03 -0.11662760448E+03 -0.12653681921E+03  0.27162535053E+03  0.17205554170E+03 0.  0.
        -24    2    5    5    0    0  0.13462690694E+02 -0.11783143453E+01 -0.29163004108E+02  0.86347626642E+02  0.80142369273E+02 0.  0.
          5    1    3    3  501    0  0.71271212067E+01  0.72338105750E+02  0.60089619266E+02  0.94426954541E+02  0.47000000000E+01 0. -1.
        -13    1    4    4    0    0 -0.58513116011E+02  0.62335255128E+02  0.66001386690E+01  0.85749814039E+02  0.00000000000E+00 0.  1.
         14    1    4    4    0    0 -0.69293982311E+02 -0.18045756395E+02  0.89764202362E+01  0.72165652694E+02  0.00000000000E+00 0. -1.
         -5    1    5    5    0  502  0.10721728642E+03 -0.11544929014E+03 -0.97373815099E+02  0.18527772388E+03  0.47000000000E+01 0.  1.
         13    1    6    6    0    0  0.18277003124E+02 -0.17485755033E+01  0.25526462206E+02  0.31443705765E+02  0.00000000000E+00 0. -1.
        -14    1    6    6    0    0 -0.48143124297E+01  0.57026115798E+00 -0.54689466314E+02  0.54903920877E+02  0.00000000000E+00 0.  1.
</event>
<event>
12    1  0.1039610E+000  0.1922249E+03  0.7818608E-02  0.1156597E+00
         21   -1    0    0  501  502  0.00000000000E+00  0.00000000000E+00  0.71642784903E+03  0.71642784903E+03  0.00000000000E+00 0.  1.
         21   -1    0    0  502  503 -0.00000000000E+00 -0.00000000000E+00 -0.62468808757E+02  0.62468808757E+02  0.00000000000E+00 0.  1.
         -6    2    1    2    0  503 -0.75893028766E+02 -0.38144337445E+02  0.16361431248E+03  0.25242835073E+03  0.17244038596E+03 0.  0.
        -24    2    3    3    0    0 -0.69624135746E+01 -0.63024166926E+02  0.39716235690E+02  0.10840314787E+03  0.78443242359E+02 0.  0.
          6    2    1    2  501    0  0.75893028766E+02  0.38144337445E+02  0.49034472780E+03  0.52646830706E+03  0.17180274726E+03 0.  0.
         24    2    5    5    0    0  0.72279953468E+01 -0.79803535706E+00  0.39163884854E+03  0.39999168546E+03  0.80990616537E+02 0.  0.
          5    1    5    5  501    0  0.68665033419E+02  0.38942372802E+02  0.98705879256E+02  0.12647662161E+03  0.47000000000E+01 0. -1.
        -11    1    6    6    0    0  0.41888954047E+02 -0.24364020527E+01  0.27874503528E+03  0.28188546472E+03  0.00000000000E+00 0.  1.
         12    1    6    6    0    0 -0.34660958700E+02  0.16383666956E+01  0.11289381327E+03  0.11810622074E+03  0.00000000000E+00 0. -1.
         -5    1    3    3    0  503 -0.68930615192E+02  0.24879829481E+02  0.12389807679E+03  0.14402520285E+03  0.47000000000E+01 0.  1.
         13    1    4    4    0    0 -0.34036116694E+02 -0.63904469764E+02  0.20691929125E+02  0.75302021396E+02  0.00000000000E+00 0. -1.
        -14    1    4    4    0    0  0.27073703120E+02  0.88030283869E+00  0.19024306565E+02  0.33101126476E+02  0.00000000000E+00 0.  1.
</event>
<event>
12    1  0.1039610E+000  0.2808802E+03  0.7818608E-02  0.1095577E+00
         21   -1    0    0  501  502  0.00000000000E+00  0.00000000000E+00  0.15512375898E+03  0.15512375898E+03  0.00000000000E+00 0. -1.
         21   -1    0    0  502  503 -0.00000000000E+00 -0.00000000000E+00 -0.75998919763E+03  0.75998919763E+03  0.00000000000E+00 0. -1.
         -6    2    1    2    0  503 -0.20050357694E+03  0.96078662372E+02 -0.35775888803E+02  0.28048188282E+03  0.16720460114E+03 0.  0.
        -24    2    3    3    0    0 -0.21696702806E+03  0.74443183720E+02 -0.27159829039E+02  0.25157746023E+03  0.99684920180E+02 0.  0.
          6    2    1    2  501    0  0.20050357694E+03 -0.96078662372E+02 -0.56908954984E+03  0.63463107379E+03  0.17164175005E+03 0.  0.
         24    2    5    5    0    0  0.62651709975E+02 -0.49529585951E+02 -0.13646338354E+03  0.17816919860E+03  0.82119374297E+02 0.  0.
          5    1    5    5  501    0  0.13785186696E+03 -0.46549076421E+02 -0.43262616629E+03  0.45646187519E+03  0.47000000000E+01 0. -1.
        -13    1    6    6    0    0  0.43366826338E+02 -0.55561356220E+00 -0.15168132415E+02  0.45946300983E+02  0.00000000000E+00 0.  1.
         14    1    6    6    0    0  0.19284883638E+02 -0.48973972389E+02 -0.12129525113E+03  0.13222289762E+03  0.00000000000E+00 0. -1.
         -5    1    3    3    0  503  0.16463451126E+02  0.21635478652E+02 -0.86160597646E+01  0.28904422591E+02  0.47000000000E+01 0.  1.
         13    1    4    4    0    0 -0.61563536530E+02  0.70908756523E+02 -0.76011936656E+00  0.93907925987E+02  0.00000000000E+00 0. -1.
        -14    1    4    4    0    0 -0.15540349153E+03  0.35344271971E+01 -0.26399709672E+02  0.15766953424E+03  0.00000000000E+00 0.  1.
</event>
<event>
12    1  0.1039610E+000  0.1774250E+03  0.7818608E-02  0.1171160E+00
         21   -1    0    0  501  502  0.00000000000E+00  0.00000000000E+00  0.84310194257E+03  0.84310194257E+03  0.00000000000E+00 0.  1.
         21   -1    0    0  502  503 -0.00000000000E+00 -0.00000000000E+00 -0.47512398550E+02  0.47512398550E+02  0.00000000000E+00 0.  1.
         -6    2    1    2    0  503  0.23925730478E+02 -0.34453385367E+02  0.61384933227E+03  0.63897623625E+03  0.17239533469E+03 0.  0.
        -24    2    3    3    0    0 -0.25077865511E+02 -0.47313872932E+02  0.54485101902E+03  0.55324641768E+03  0.79696071682E+02 0.  0.
          6    2    1    2  501    0 -0.23925730478E+02  0.34453385367E+02  0.18174021174E+03  0.25163810486E+03  0.16891641398E+03 0.  0.
         24    2    5    5    0    0  0.32113743982E+02 -0.14654401063E+02  0.52911289247E+02  0.10273888170E+03  0.80682273523E+02 0.  0.
          5    1    5    5  501    0 -0.56039474461E+02  0.49107786430E+02  0.12882892250E+03  0.14889922316E+03  0.47000000000E+01 0. -1.
        -11    1    6    6    0    0  0.24943445513E+02 -0.47321564621E+02  0.40382858531E+02  0.67024482209E+02  0.00000000000E+00 0.  1.
         12    1    6    6    0    0  0.71702984687E+01  0.32667163558E+02  0.12528430716E+02  0.35714399494E+02  0.00000000000E+00 0. -1.
         -5    1    3    3    0  503  0.49003595989E+02  0.12860487565E+02  0.68998313254E+02  0.85729818571E+02  0.47000000000E+01 0.  1.
         13    1    4    4    0    0 -0.30273116877E+02 -0.58416340088E+02  0.26217518958E+03  0.27030493969E+03  0.00000000000E+00 0. -1.
        -14    1    4    4    0    0  0.51952513659E+01  0.11102467156E+02  0.28267582944E+03  0.28294147799E+03  0.00000000000E+00 0.  1.
</event>
<event>
12    1  0.1039610E+000  0.2432070E+03  0.7818608E-02  0.1118202E+00
         21   -1    0    0  503  502  0.00000000000E+00  0.00000000000E+00  0.22288623315E+03  0.22288623315E+03  0.00000000000E+00 0. -1.
         21   -1    0    0  501  503 -0.00000000000E+00 -0.00000000000E+00 -0.30464587416E+03  0.30464587416E+03  0.00000000000E+00 0. -1.
          6    2    1    2  501    0  0.76512597669E+02  0.14913607212E+03  0.57684662295E+02  0.24995433215E+03  0.17622117435E+03 0.  0.
         24    2    3    3    0    0  0.91195606010E+02  0.11886471372E+03  0.99344527102E+02  0.19619951647E+03  0.78609518983E+02 0.  0.
         -6    2    1    2    0  502 -0.76512597669E+02 -0.14913607212E+03 -0.13944430331E+03  0.27757777515E+03  0.17178172756E+03 0.  0.
        -24    2    5    5    0    0 -0.19517386542E+02 -0.15137281887E+03 -0.65979417686E+02  0.18445078365E+03  0.79838270021E+02 0.  0.
          5    1    3    3  501    0 -0.14683008341E+02  0.30271358396E+02 -0.41659864807E+02  0.53754815680E+02  0.47000000000E+01 0. -1.
        -13    1    4    4    0    0  0.69832679691E+02  0.75672197967E+02  0.22347867359E+02  0.10536750862E+03  0.00000000000E+00 0.  1.
         14    1    4    4    0    0  0.21362926319E+02  0.43192515756E+02  0.76996659743E+02  0.90832007849E+02  0.00000000000E+00 0. -1.
         -5    1    5    5    0  502 -0.56995211127E+02  0.22367467483E+01 -0.73464885625E+02  0.93126991508E+02  0.47000000000E+01 0.  1.
         13    1    6    6    0    0  0.58311656914E+01 -0.78585925647E+02  0.59500264113E+01  0.79026280549E+02  0.00000000000E+00 0. -1.
        -14    1    6    6    0    0 -0.25348552234E+02 -0.72786893221E+02 -0.71929444098E+02  0.10542450310E+03  0.00000000000E+00 0.  1.
</event>
<event>
12    1  0.1039610E+000  0.1912413E+03  0.7818608E-02  0.1157550E+00
         21   -1    0    0  501  502  0.00000000000E+00  0.00000000000E+00  0.35190458396E+03  0.35190458396E+03  0.00000000000E+00 0. -1.
         21   -1    0    0  502  503 -0.00000000000E+00 -0.00000000000E+00 -0.12048519568E+03  0.12048519568E+03  0.00000000000E+00 0. -1.
         -6    2    1    2    0  503 -0.30400311875E+02  0.76435997845E+02  0.20432104330E+03  0.27923811566E+03  0.17163972668E+03 0.  0.
        -24    2    3    3    0    0  0.21937885126E+02  0.13842246491E+02  0.30617074180E+02  0.87268265262E+02  0.77494943699E+02 0.  0.
          6    2    1    2  501    0  0.30400311875E+02 -0.76435997845E+02  0.27098344984E+02  0.19315166399E+03  0.17264589271E+03 0.  0.
         24    2    5    5    0    0 -0.34260715433E+02 -0.79846937123E+01  0.40595236614E+02  0.97910467157E+02  0.81859235199E+02 0.  0.
          5    1    5    5  501    0  0.64661027308E+02 -0.68451304132E+02 -0.13496891630E+02  0.95241196830E+02  0.47000000000E+01 0. -1.
        -13    1    6    6    0    0  0.29832057175E+01  0.18248618142E+02 -0.16559371690E+02  0.24821852695E+02  0.00000000000E+00 0.  1.
         14    1    6    6    0    0 -0.37243921151E+02 -0.26233311854E+02  0.57154608305E+02  0.73088614462E+02  0.00000000000E+00 0. -1.
         -5    1    3    3    0  503 -0.52338197000E+02  0.62593751354E+02  0.17370396912E+03  0.19196985040E+03  0.47000000000E+01 0.  1.
         11    1    4    4    0    0  0.30007880204E+02  0.34084602240E+02 -0.48201244947E+01  0.45666909073E+02  0.00000000000E+00 0. -1.
        -12    1    4    4    0    0 -0.80699950780E+01 -0.20242355749E+02  0.35437198675E+02  0.41601356189E+02  0.00000000000E+00 0.  1.
</event>
<event>
12    1  0.1039610E+000  0.1960445E+03  0.7818608E-02  0.1153381E+00
         21   -1    0    0  503  502  0.00000000000E+00  0.00000000000E+00  0.13361022682E+03  0.13361022682E+03  0.00000000000E+00 0. -1.
         21   -1    0    0  501  503 -0.00000000000E+00 -0.00000000000E+00 -0.49169909822E+03  0.49169909822E+03  0.00000000000E+00 0. -1.
          6    2    1    2  501    0 -0.73133775079E+02  0.55691106117E+02  0.23553590585E+02  0.19625872827E+03  0.17179251566E+03 0.  0.
         24    2    3    3    0    0 -0.82173216045E+02  0.55680823325E+02 -0.38180036036E+02  0.13369002799E+03  0.81009363112E+02 0.  0.
         -6    2    1    2    0  502  0.73133775079E+02 -0.55691106117E+02 -0.38164246198E+03  0.42905059676E+03  0.17315714666E+03 0.  0.
        -24    2    5    5    0    0  0.71272681607E+02  0.29368988861E+02 -0.19859306628E+03  0.22714008517E+03  0.78810403278E+02 0.  0.
          5    1    3    3  501    0  0.90394409658E+01  0.10282792310E-01  0.61733626622E+02  0.62568700279E+02  0.47000000000E+01 0. -1.
        -13    1    4    4    0    0 -0.85950797127E+02  0.69911638514E+02 -0.41986565687E+02  0.11848227051E+03  0.00000000000E+00 0.  1.
         14    1    4    4    0    0  0.37775810817E+01 -0.14230815189E+02  0.38065296505E+01  0.15207757486E+02  0.00000000000E+00 0. -1.
         -5    1    5    5    0  502  0.18610934722E+01 -0.85060094978E+02 -0.18304939570E+03  0.20191051159E+03  0.47000000000E+01 0.  1.
         11    1    6    6    0    0 -0.99970492955E+00  0.37460060572E+02 -0.64476816504E+02  0.74575568482E+02  0.00000000000E+00 0. -1.
        -12    1    6    6    0    0  0.72272386537E+02 -0.80910717108E+01 -0.13411624978E+03  0.15256451669E+03  0.00000000000E+00 0.  1.
</event>
<event>
12    1  0.1039610E+000  0.4479676E+03  0.7818608E-02  0.1028331E+00
         21   -1    0    0  501  502  0.00000000000E+00  0.00000000000E+00  0.10784788443E+04  0.10784788443E+04  0.00000000000E+00 0.  1.
         21   -1    0    0  502  503 -0.00000000000E+00 -0.00000000000E+00 -0.18817873474E+03  0.18817873474E+03  0.00000000000E+00 0.  1.
         -6    2    1    2    0  503  0.29790292040E+03  0.28676990867E+03  0.51223722643E+03  0.68048656926E+03  0.17231327370E+03 0.  0.
        -24    2    3    3    0    0  0.12525508586E+03  0.21344324646E+03  0.28233678489E+03  0.38373688150E+03  0.79328923648E+02 0.  0.
          6    2    1    2  501    0 -0.29790292040E+03 -0.28676990867E+03  0.37806288312E+03  0.58617100977E+03  0.17228400566E+03 0.  0.
         24    2    5    5    0    0 -0.11720688593E+03 -0.95912429593E+02  0.81003117238E+02  0.18950461506E+03  0.80086489907E+02 0.  0.
          5    1    5    5  501    0 -0.18069603447E+03 -0.19085747907E+03  0.29705976588E+03  0.39666639471E+03  0.47000000000E+01 0. -1.
        -13    1    6    6    0    0 -0.77587570019E+02 -0.36970447929E+02  0.81556340670E+02  0.11848241112E+03  0.00000000000E+00 0.  1.
         14    1    6    6    0    0 -0.39619315911E+02 -0.58941981665E+02 -0.55322343137E+00  0.71022203936E+02  0.00000000000E+00 0. -1.
         -5    1    3    3    0  503  0.17264783454E+03  0.73326662206E+02  0.22990044155E+03  0.29674968776E+03  0.47000000000E+01 0.  1.
         13    1    4    4    0    0  0.12045053195E+03  0.21537621022E+03  0.25105095417E+03  0.35202531750E+03  0.00000000000E+00 0. -1.
        -14    1    4    4    0    0  0.48045539024E+01 -0.19329637545E+01  0.31285830718E+02  0.31711563992E+02  0.00000000000E+00 0.  1.
</event>
<event>
12    1  0.1039610E+000  0.7469314E+03  0.7818608E-02  0.9640197E-01
         21   -1    0    0  503  502  0.00000000000E+00  0.00000000000E+00  0.38905627638E+03  0.38905627638E+03  0.00000000000E+00 0. -1.
         21   -1    0    0  501  503 -0.00000000000E+00 -0.00000000000E+00 -0.24780069617E+04  0.24780069617E+04  0.00000000000E+00 0. -1.
          6    2    1    2  501    0  0.47272272410E+03  0.55186647924E+03 -0.11397039780E+03  0.75557643318E+03  0.17286731913E+03 0.  0.
         24    2    3    3    0    0  0.30663078615E+03  0.45331836598E+03 -0.66079023028E+02  0.55654393269E+03  0.76516219004E+02 0.  0.
         -6    2    1    2    0  502 -0.47272272410E+03 -0.55186647924E+03 -0.19749802875E+04  0.21114868049E+04  0.17264416126E+03 0.  0.
        -24    2    5    5    0    0 -0.27409215631E+03 -0.41663901118E+03 -0.12746757157E+04  0.13710888350E+04  0.79823789644E+02 0.  0.
          5    1    3    3  501    0  0.16609193795E+03  0.98548113255E+02 -0.47891374776E+02  0.19903250050E+03  0.47000000000E+01 0. -1.
        -11    1    4    4    0    0  0.94264875478E+02  0.12097576424E+03  0.14321805491E+02  0.15403284194E+03  0.00000000000E+00 0.  1.
         12    1    4    4    0    0  0.21236591067E+03  0.33234260174E+03 -0.80400828520E+02  0.40251109075E+03  0.00000000000E+00 0. -1.
         -5    1    5    5    0  502 -0.19863056779E+03 -0.13522746806E+03 -0.70030457175E+03  0.74039796987E+03  0.47000000000E+01 0.  1.
         13    1    6    6    0    0 -0.15188733714E+03 -0.17689562031E+03 -0.52018669000E+03  0.57004913483E+03  0.00000000000E+00 0. -1.
        -14    1    6    6    0    0 -0.12220481917E+03 -0.23974339087E+03 -0.75448902573E+03  0.80103970016E+03  0.00000000000E+00 0.  1.
</event>
<event>
12    1  0.1039610E+000  0.1806378E+03  0.7818608E-02  0.1167827E+00
         21   -1    0    0  503  502  0.00000000000E+00  0.00000000000E+00  0.37035610306E+03  0.37035610306E+03  0.00000000000E+00 0.  1.
         21   -1    0    0  501  503 -0.00000000000E+00 -0.00000000000E+00 -0.13078844222E+03  0.13078844222E+03  0.00000000000E+00 0.  1.
          6    2    1    2  501    0  0.40920441139E+02 -0.23758993463E+02 -0.26077256314E+02  0.17990127112E+03  0.17159682917E+03 0.  0.
         24    2    3    3    0    0 -0.23408957734E+02 -0.59613242484E+02 -0.25120058328E+01  0.10243379561E+03  0.79904031986E+02 0.  0.
         -6    2    1    2    0  502 -0.40920441139E+02  0.23758993463E+02  0.26564491715E+03  0.32124327416E+03  0.17433028112E+03 0.  0.
        -24    2    5    5    0    0  0.27893342270E+01 -0.45205443119E+02  0.99533094519E+02  0.13608964716E+03  0.81007670538E+02 0.  0.
          5    1    3    3  501    0  0.64329398872E+02  0.35854249021E+02 -0.23565250481E+02  0.77467475513E+02  0.47000000000E+01 0. -1.
        -13    1    4    4    0    0  0.11140380743E+02 -0.44871030747E+02 -0.30676297493E+02  0.55484707003E+02  0.00000000000E+00 0.  1.
         14    1    4    4    0    0 -0.34549338476E+02 -0.14742211737E+02  0.28164291660E+02  0.46949088604E+02  0.00000000000E+00 0. -1.
         -5    1    5    5    0  502 -0.43709775366E+02  0.68964436582E+02  0.16611182263E+03  0.18515362701E+03  0.47000000000E+01 0.  1.
         11    1    6    6    0    0 -0.34782241978E+02 -0.74999361350E+01  0.21313980429E+02  0.41476971451E+02  0.00000000000E+00 0. -1.
        -12    1    6    6    0    0  0.37571576205E+02 -0.37705506984E+02  0.78219114090E+02  0.94612675707E+02  0.00000000000E+00 0.  1.
</event>
<event>
12    1  0.1039610E+000  0.1963473E+03  0.7818608E-02  0.1153615E+00
         21   -1    0    0  503  502  0.00000000000E+00  0.00000000000E+00  0.16974377241E+03  0.16974377241E+03  0.00000000000E+00 0. -1.
         21   -1    0    0  501  503 -0.00000000000E+00 -0.00000000000E+00 -0.32864587288E+03  0.32864587288E+03  0.00000000000E+00 0. -1.
          6    2    1    2  501    0  0.56827816995E+01 -0.93634141684E+02  0.61269203657E+02  0.20568465575E+03  0.17248946576E+03 0.  0.
         24    2    3    3    0    0  0.28912745566E+02 -0.12830210017E+03  0.42547162139E+02  0.15970527553E+03  0.79988363285E+02 0.  0.
         -6    2    1    2    0  502 -0.56827816995E+01  0.93634141684E+02 -0.22017130413E+03  0.29270498954E+03  0.16852644077E+03 0.  0.
        -24    2    5    5    0    0 -0.45557106458E+02  0.16322134741E+01 -0.11034098569E+03  0.14391283444E+03  0.80359546561E+02 0.  0.
          5    1    3    3  501    0 -0.23229963866E+02  0.34667958491E+02  0.18722041518E+02  0.45979380223E+02  0.47000000000E+01 0. -1.
        -11    1    4    4    0    0  0.50153741953E+02 -0.68315820980E+02  0.45130874581E+02  0.96016899911E+02  0.00000000000E+00 0.  1.
         12    1    4    4    0    0 -0.21240996387E+02 -0.59986279195E+02 -0.25837124419E+01  0.63688375620E+02  0.00000000000E+00 0. -1.
         -5    1    5    5    0  502  0.39874324758E+02  0.92001928210E+02 -0.10983031845E+03  0.14879215510E+03  0.47000000000E+01 0.  1.
         13    1    6    6    0    0 -0.83298267682E+01 -0.17928887826E+02  0.56275268300E+01  0.20554807002E+02  0.00000000000E+00 0. -1.
        -14    1    6    6    0    0 -0.37227279690E+02  0.19561101300E+02 -0.11596851252E+03  0.12335802743E+03  0.00000000000E+00 0.  1.
</event>
<event>
12    1  0.1039610E+000  0.2091206E+03  0.7818608E-02  0.1143297E+00
         21   -1    0    0  501  502  0.00000000000E+00  0.00000000000E+00  0.52663673648E+03  0.52663673648E+03  0.00000000000E+00 0.  1.
         21   -1    0    0  502  503 -0.00000000000E+00 -0.00000000000E+00 -0.10720801489E+03  0.10720801489E+03  0.00000000000E+00 0. -1.
         -6    2    1    2    0  503 -0.17595230808E+02 -0.11812122447E+03  0.36830972263E+03  0.42353686330E+03  0.17166597499E+03 0.  0.
        -24    2    3    3    0    0 -0.13324659584E+02 -0.12969840586E+03  0.18582214421E+03  0.24057218041E+03  0.79661042365E+02 0.  0.
          6    2    1    2  501    0  0.17595230808E+02  0.11812122447E+03  0.51118998965E+02  0.21030788807E+03  0.16539056779E+03 0.  0.
         24    2    5    5    0    0  0.29141390842E+02  0.59620694434E+01 -0.32047181011E+00  0.86287329211E+02  0.80997737919E+02 0.  0.
          5    1    5    5  501    0 -0.11546160034E+02  0.11215915502E+03  0.51439470775E+02  0.12402055886E+03  0.47000000000E+01 0. -1.
        -13    1    6    6    0    0 -0.16260954305E+01 -0.11532194588E+02  0.34635973361E+02  0.36541570150E+02  0.00000000000E+00 0.  1.
         14    1    6    6    0    0  0.30767486273E+02  0.17494264032E+02 -0.34956445171E+02  0.49745759061E+02  0.00000000000E+00 0. -1.
         -5    1    3    3    0  503 -0.42705712235E+01  0.11577181392E+02  0.18248757842E+03  0.18296468289E+03  0.47000000000E+01 0.  1.
         13    1    4    4    0    0  0.21722389166E+02 -0.97978710091E+02  0.15317704874E+03  0.18312536166E+03  0.00000000000E+00 0. -1.
        -14    1    4    4    0    0 -0.35047048750E+02 -0.31719695768E+02  0.32645095468E+02  0.57446818745E+02  0.00000000000E+00 0.  1.
</event>
<event>
12    1  0.1039610E+000  0.1765663E+03  0.7818608E-02  0.1171533E+00
         21   -1    0    0  501  502  0.00000000000E+00  0.00000000000E+00  0.31469804014E+02  0.31469804014E+02  0.00000000000E+00 0.  1.
         21   -1    0    0  502  503 -0.00000000000E+00 -0.00000000000E+00 -0.98852094322E+03  0.98852094322E+03  0.00000000000E+00 0.  1.
         -6    2    1    2    0  503  0.38938323788E+02  0.70447611986E+01 -0.44057699503E+03  0.47464065790E+03  0.17207511110E+03 0.  0.
        -24    2    3    3    0    0  0.48486025702E+02  0.54416734462E+02 -0.39339640232E+03  0.40694013507E+03  0.74346946785E+02 0.  0.
          6    2    1    2  501    0 -0.38938323788E+02 -0.70447611986E+01 -0.51647414417E+03  0.54535008933E+03  0.17057361055E+03 0.  0.
         24    2    5    5    0    0 -0.74192119989E+02  0.34493430333E+02 -0.38569666389E+03  0.40359998932E+03  0.86236694305E+02 0.  0.
          5    1    5    5  501    0  0.35253796201E+02 -0.41538191532E+02 -0.13077748029E+03  0.14175010001E+03  0.47000000000E+01 0. -1.
        -13    1    6    6    0    0 -0.64148531226E+01 -0.25166845534E+02 -0.55434443847E+02  0.61216811575E+02  0.00000000000E+00 0.  1.
         14    1    6    6    0    0 -0.67777266866E+02  0.59660275867E+02 -0.33026222004E+03  0.34238317775E+03  0.00000000000E+00 0. -1.
         -5    1    3    3    0  503 -0.95477019143E+01 -0.47371973263E+02 -0.47180592715E+02  0.67700522831E+02  0.47000000000E+01 0.  1.
         13    1    4    4    0    0  0.40794377552E+02 -0.76981623833E+01 -0.15957013836E+03  0.16488199416E+03  0.00000000000E+00 0. -1.
        -14    1    4    4    0    0  0.76916481498E+01  0.62114896845E+02 -0.23382626396E+03  0.24205814091E+03  0.00000000000E+00 0.  1.
</event>
<event>
12    1  0.1039610E+000  0.1946658E+03  0.7818608E-02  0.1154947E+00
         21   -1    0    0  503  502  0.00000000000E+00  0.00000000000E+00  0.20946326401E+03  0.20946326401E+03  0.00000000000E+00 0.  1.
         21   -1    0    0  501  503 -0.00000000000E+00 -0.00000000000E+00 -0.24949543273E+03  0.24949543273E+03  0.00000000000E+00 0. -1.
          6    2    1    2  501    0  0.10552946964E+02  0.83429727330E+02  0.10248427419E+03  0.21999504267E+03  0.17556454156E+03 0.  0.
         24    2    3    3    0    0 -0.59455424039E+02  0.64594156437E+02  0.44941773188E+02  0.12731721273E+03  0.80514329078E+02 0.  0.
         -6    2    1    2    0  502 -0.10552946964E+02 -0.83429727330E+02 -0.14251644291E+03  0.23896365407E+03  0.17239723715E+03 0.  0.
        -24    2    5    5    0    0  0.28513816428E+00 -0.42604411054E+02 -0.16647720885E+03  0.19017452780E+03  0.81464549414E+02 0.  0.
          5    1    3    3  501    0  0.70008371003E+02  0.18835570893E+02  0.57542500998E+02  0.92677829941E+02  0.47000000000E+01 0. -1.
        -11    1    4    4    0    0 -0.21539357608E+02  0.41164313737E+02  0.63797879050E+02  0.78921568807E+02  0.00000000000E+00 0.  1.
         12    1    4    4    0    0 -0.37916066431E+02  0.23429842700E+02 -0.18856105863E+02  0.48395643924E+02  0.00000000000E+00 0. -1.
         -5    1    5    5    0  502 -0.10838085128E+02 -0.40825316276E+02  0.23960765942E+02  0.48789126277E+02  0.47000000000E+01 0.  1.
         11    1    6    6    0    0 -0.25141874471E+02 -0.16110732451E+02 -0.14412383664E+03  0.14718474730E+03  0.00000000000E+00 0. -1.
        -12    1    6    6    0    0  0.25427012636E+02 -0.26493678603E+02 -0.22353372212E+02  0.42989780491E+02  0.00000000000E+00 0.  1.
</event>
<event>
12    1  0.1039610E+000  0.2148838E+03  0.7818608E-02  0.1138063E+00
         21   -1    0    0  501  502  0.00000000000E+00  0.00000000000E+00  0.78356667582E+03  0.78356667582E+03  0.00000000000E+00 0. -1.
         21   -1    0    0  502  503 -0.00000000000E+00 -0.00000000000E+00 -0.59296387370E+02  0.59296387370E+02  0.00000000000E+00 0. -1.
         -6    2    1    2    0  503  0.62904701031E+02 -0.10875251183E+03  0.31177058721E+03  0.37774904771E+03  0.17236395723E+03 0.  0.
        -24    2    3    3    0    0  0.54710427305E+02  0.77018739396E+01  0.12924390541E+03  0.16103068287E+03  0.78576994231E+02 0.  0.
          6    2    1    2  501    0 -0.62904701031E+02  0.10875251183E+03  0.41249970124E+03  0.46511401548E+03  0.17432995623E+03 0.  0.
         24    2    5    5    0    0 -0.59357203482E+02  0.78841453106E+02  0.13470290683E+03  0.18564951836E+03  0.81127173157E+02 0.  0.
          5    1    5    5  501    0 -0.35474975492E+01  0.29911058723E+02  0.27779679440E+03  0.27946449712E+03  0.47000000000E+01 0. -1.
        -13    1    6    6    0    0 -0.32623163917E+02 -0.60440215174E+00  0.77774238228E+01  0.33542874761E+02  0.00000000000E+00 0.  1.
         14    1    6    6    0    0 -0.26734039565E+02  0.79445855257E+02  0.12692548301E+03  0.15210664360E+03  0.00000000000E+00 0. -1.
         -5    1    3    3    0  503  0.81942737266E+01 -0.11645438577E+03  0.18252668181E+03  0.21671836484E+03  0.47000000000E+01 0.  1.
         11    1    4    4    0    0  0.73834322342E+02 -0.22191975950E+01  0.91775109707E+02  0.11780960383E+03  0.00000000000E+00 0. -1.
        -12    1    4    4    0    0 -0.19123895037E+02  0.99210715346E+01  0.37468795698E+02  0.43221079034E+02  0.00000000000E+00 0.  1.
</event>
<event>
12    1  0.1039610E+000  0.4166115E+03  0.7818608E-02  0.1038188E+00
         21   -1    0    0  503  502  0.00000000000E+00  0.00000000000E+00  0.29960749051E+03  0.29960749051E+03  0.00000000000E+00 0.  1.
         21   -1    0    0  501  503 -0.00000000000E+00 -0.00000000000E+00 -0.64687033067E+03  0.64687033067E+03  0.00000000000E+00 0.  1.
          6    2    1    2  501    0 -0.37237770659E+03 -0.73732889952E+02 -0.20408906316E+02  0.41695103411E+03  0.17125987844E+03 0.  0.
         24    2    3    3    0    0 -0.17938721985E+03 -0.92652211790E+02  0.20913753133E+02  0.21862574350E+03  0.81213445047E+02 0.  0.
         -6    2    1    2    0  502  0.37237770659E+03  0.73732889952E+02 -0.32685393384E+03  0.52952678706E+03  0.17164914425E+03 0.  0.
        -24    2    5    5    0    0  0.12598243774E+03  0.21486875659E+02 -0.59874379446E+02  0.16245670249E+03  0.80461036694E+02 0.  0.
          5    1    3    3  501    0 -0.19299048674E+03  0.18919321838E+02 -0.41322659449E+02  0.19832529061E+03  0.47000000000E+01 0. -1.
        -11    1    4    4    0    0 -0.15253298964E+02 -0.61197918685E+01 -0.22696592433E+02  0.28022317711E+02  0.00000000000E+00 0.  1.
         12    1    4    4    0    0 -0.16413392088E+03 -0.86532419921E+02  0.43610345566E+02  0.19060342579E+03  0.00000000000E+00 0. -1.
         -5    1    5    5    0  502  0.24639526885E+03  0.52246014293E+02 -0.26697955440E+03  0.36707008457E+03  0.47000000000E+01 0.  1.
         11    1    6    6    0    0  0.54622212005E+02  0.36517887568E+02 -0.60807252015E+02  0.89524656125E+02  0.00000000000E+00 0. -1.
        -12    1    6    6    0    0  0.71360225733E+02 -0.15031011909E+02  0.93287256948E+00  0.72932046364E+02  0.00000000000E+00 0.  1.
</event>
<event>
12    1  0.1039610E+000  0.5291569E+03  0.7818608E-02  0.1006474E+00
         21   -1    0    0  503  502  0.00000000000E+00  0.00000000000E+00  0.69702798228E+03  0.69702798228E+03  0.00000000000E+00 0. -1.
         21   -1    0    0  501  503 -0.00000000000E+00 -0.00000000000E+00 -0.11102783458E+04  0.11102783458E+04  0.00000000000E+00 0. -1.
          6    2    1    2  501    0  0.15371995171E+02 -0.49948790960E+03  0.51554988420E+03  0.73834564095E+03  0.17215728950E+03 0.  0.
         24    2    3    3    0    0  0.74717037230E+02 -0.37025398731E+03  0.35838874639E+03  0.52634339113E+03  0.76968961788E+02 0.  0.
         -6    2    1    2    0  502 -0.15371995171E+02  0.49948790960E+03 -0.92880024774E+03  0.10689606872E+04  0.17401890820E+03 0.  0.
        -24    2    5    5    0    0 -0.44825400000E+02  0.33463341703E+03 -0.73600768561E+03  0.81354814089E+03  0.78513845865E+02 0.  0.
          5    1    3    3  501    0 -0.59345042058E+02 -0.12923392230E+03  0.15716113781E+03  0.21200224981E+03  0.47000000000E+01 0. -1.
        -13    1    4    4    0    0  0.86513380564E+02 -0.26265253160E+03  0.27154641419E+03  0.38756724892E+03  0.00000000000E+00 0.  1.
         14    1    4    4    0    0 -0.11796343334E+02 -0.10760145570E+03  0.86842332205E+02  0.13877614222E+03  0.00000000000E+00 0. -1.
         -5    1    5    5    0  502  0.29453404829E+02  0.16485449258E+03 -0.19279256213E+03  0.25541254627E+03  0.47000000000E+01 0.  1.
         11    1    6    6    0    0  0.82062020924E+01  0.29626170081E+02 -0.31471644469E+02  0.43994500930E+02  0.00000000000E+00 0. -1.
        -12    1    6    6    0    0 -0.53031602093E+02  0.30500724695E+03 -0.70453604114E+03  0.76955363996E+03  0.00000000000E+00 0.  1.
</event>
<event>
12    1  0.1039610E+000  0.2971800E+03  0.7818608E-02  0.1086784E+00
         21   -1    0    0  503  502  0.00000000000E+00  0.00000000000E+00  0.42493658324E+03  0.42493658324E+03  0.00000000000E+00 0. -1.
         21   -1    0    0  501  503 -0.00000000000E+00 -0.00000000000E+00 -0.25843588643E+03  0.25843588643E+03  0.00000000000E+00 0. -1.
          6    2    1    2  501    0  0.21530920433E+03  0.11049845986E+03 -0.68863775789E+02  0.30505434574E+03  0.17247600162E+03 0.  0.
         24    2    3    3    0    0  0.23500178065E+03  0.84624793034E+02 -0.70331825912E+02  0.27216834008E+03  0.82108751660E+02 0.  0.
         -6    2    1    2    0  502 -0.21530920433E+03 -0.11049845986E+03  0.23536447260E+03  0.37831812394E+03  0.17076359342E+03 0.  0.
        -24    2    5    5    0    0 -0.18764515859E+03 -0.12243074164E+03  0.24937675745E+03  0.34476051821E+03  0.80442872389E+02 0.  0.
          5    1    3    3  501    0 -0.19692576319E+02  0.25873666825E+02  0.14680501229E+01  0.32886005659E+02  0.47000000000E+01 0. -1.
        -13    1    4    4    0    0  0.11884155639E+03  0.47131302952E+02  0.63757844695E+01  0.12800517908E+03  0.00000000000E+00 0.  1.
         14    1    4    4    0    0  0.11616022426E+03  0.37493490082E+02 -0.76707610382E+02  0.14416316100E+03  0.00000000000E+00 0. -1.
         -5    1    5    5    0  502 -0.27664045743E+02  0.11932281780E+02 -0.14012284854E+02  0.33557605728E+02  0.47000000000E+01 0.  1.
         13    1    6    6    0    0 -0.96072992478E+01 -0.30606161430E+02  0.12234999582E+02  0.34332674395E+02  0.00000000000E+00 0. -1.
        -14    1    6    6    0    0 -0.17803785934E+03 -0.91824580208E+02  0.23714175787E+03  0.31042784382E+03  0.00000000000E+00 0.  1.
</event>
<event>
12    1  0.1039610E+000  0.1834370E+03  0.7818608E-02  0.1164736E+00
         21   -1    0    0  503  502  0.00000000000E+00  0.00000000000E+00  0.86399057931E+03  0.86399057931E+03  0.00000000000E+00 0. -1.
         21   -1    0    0  501  503 -0.00000000000E+00 -0.00000000000E+00 -0.39904503508E+02  0.39904503508E+02  0.00000000000E+00 0. -1.
          6    2    1    2  501    0 -0.23807309751E+02  0.51263759253E+02  0.48990819232E+03  0.52312442803E+03  0.17451180274E+03 0.  0.
         24    2    3    3    0    0 -0.42121953233E+02  0.37844624591E+02  0.13320660233E+03  0.16567007620E+03  0.80598391364E+02 0.  0.
         -6    2    1    2    0  502  0.23807309751E+02 -0.51263759253E+02  0.33417788348E+03  0.38077065478E+03  0.17354155907E+03 0.  0.
        -24    2    5    5    0    0  0.15866630422E+02 -0.64585217871E+02  0.94575845209E+02  0.14062123798E+03  0.80042124814E+02 0.  0.
          5    1    3    3  501    0  0.18314643482E+02  0.13419134662E+02  0.35670158999E+03  0.35745435183E+03  0.47000000000E+01 0. -1.
        -13    1    4    4    0    0  0.10107628470E+02 -0.15820688335E+02  0.94448882279E+01  0.21015809438E+02  0.00000000000E+00 0.  1.
         14    1    4    4    0    0 -0.52229581703E+02  0.53665312926E+02  0.12376171410E+03  0.14465426676E+03  0.00000000000E+00 0. -1.
         -5    1    5    5    0  502  0.79406793288E+01  0.13321458618E+02  0.23960203827E+03  0.24014941680E+03  0.47000000000E+01 0.  1.
         13    1    6    6    0    0  0.30967934881E+02  0.23866984509E+01  0.12156230990E+02  0.33353909399E+02  0.00000000000E+00 0. -1.
        -14    1    6    6    0    0 -0.15101304459E+02 -0.66971916322E+02  0.82419614219E+02  0.10726732858E+03  0.00000000000E+00 0.  1.
</event>
<event>
12    1  0.1039610E+000  0.2054138E+03  0.7818608E-02  0.1145484E+00
         21   -1    0    0  501  502  0.00000000000E+00  0.00000000000E+00  0.28391278585E+03  0.28391278585E+03  0.00000000000E+00 0.  1.
         21   -1    0    0  502  503 -0.00000000000E+00 -0.00000000000E+00 -0.21413721538E+03  0.21413721538E+03  0.00000000000E+00 0.  1.
         -6    2    1    2    0  503 -0.26131623880E+02 -0.10600629180E+03  0.17356744600E+03  0.26892472366E+03  0.17399612931E+03 0.  0.
        -24    2    3    3    0    0  0.13775050536E+02 -0.97183523977E+02  0.48263355108E+02  0.13703996681E+03  0.82560351908E+02 0.  0.
          6    2    1    2  501    0  0.26131623880E+02  0.10600629180E+03 -0.10379187552E+03  0.22912527758E+03  0.17264253165E+03 0.  0.
         24    2    5    5    0    0 -0.48792915654E+02  0.66049731207E+02 -0.86887979085E+02  0.14241861651E+03  0.77396549076E+02 0.  0.
          5    1    5    5  501    0  0.74924539534E+02  0.39956560590E+02 -0.16903896437E+02  0.86706661066E+02  0.47000000000E+01 0. -1.
        -11    1    6    6    0    0 -0.88092764563E+01  0.39668667610E+01 -0.64550974033E+02  0.65269959646E+02  0.00000000000E+00 0.  1.
         12    1    6    6    0    0 -0.39983639197E+02  0.62082864446E+02 -0.22337005052E+02  0.77148656865E+02  0.00000000000E+00 0. -1.
         -5    1    3    3    0  503 -0.39906674416E+02 -0.88227678210E+01  0.12530409089E+03  0.13188475685E+03  0.47000000000E+01 0.  1.
         11    1    4    4    0    0 -0.16707692191E+02 -0.43977807411E+01 -0.13113996057E+02  0.21690190096E+02  0.00000000000E+00 0. -1.
        -12    1    4    4    0    0  0.30482742727E+02 -0.92785743236E+02  0.61377351165E+02  0.11534977671E+03  0.00000000000E+00 0.  1.
</event>
<event>
12    1  0.1039610E+000  0.2609742E+03  0.7818608E-02  0.1106997E+00
         21   -1    0    0  503  502  0.00000000000E+00  0.00000000000E+00  0.10115584699E+04  0.10115584699E+04  0.00000000000E+00 0.  1.
         21   -1    0    0  501  503 -0.00000000000E+00 -0.00000000000E+00 -0.86314081156E+02  0.86314081156E+02  0.00000000000E+00 0. -1.
          6    2    1    2  501    0 -0.18950400486E+03  0.35278996048E+02  0.72709659755E+03  0.77251341719E+03  0.17592936695E+03 0.  0.
         24    2    3    3    0    0 -0.10992276748E+03 -0.34526277146E+02  0.28023437322E+03  0.31325979767E+03  0.79531869591E+02 0.  0.
         -6    2    1    2    0  502  0.18950400486E+03 -0.35278996048E+02  0.19814779119E+03  0.32535913386E+03  0.17157984559E+03 0.  0.
        -24    2    5    5    0    0  0.45769181490E+02 -0.49573664819E+02  0.52808316883E+02  0.12039647922E+03  0.84582667607E+02 0.  0.
          5    1    3    3  501    0 -0.79581237378E+02  0.69805273193E+02  0.44686222433E+03  0.45925361952E+03  0.47000000000E+01 0. -1.
        -11    1    4    4    0    0  0.51747665416E+01 -0.16719831496E+02  0.77509159971E+02  0.79460687471E+02  0.00000000000E+00 0.  1.
         12    1    4    4    0    0 -0.11509753402E+03 -0.17806445650E+02  0.20272521325E+03  0.23379911020E+03  0.00000000000E+00 0. -1.
         -5    1    5    5    0  502  0.14373482337E+03  0.14294668771E+02  0.14533947431E+03  0.20496265464E+03  0.47000000000E+01 0.  1.
         13    1    6    6    0    0  0.61638894230E+02 -0.41426086938E+02  0.11175009752E+02  0.75102295596E+02  0.00000000000E+00 0. -1.
        -14    1    6    6    0    0 -0.15869712740E+02 -0.81475778807E+01  0.41633307130E+02  0.45294183626E+02  0.00000000000E+00 0.  1.
</event>
<event>
12    1  0.1039610E+000  0.2046094E+03  0.7818608E-02  0.1145951E+00
         21   -1    0    0  503  502  0.00000000000E+00  0.00000000000E+00  0.26770605369E+03  0.26770605369E+03  0.00000000000E+00 0.  1.
         21   -1    0    0  501  503 -0.00000000000E+00 -0.00000000000E+00 -0.16324324359E+03  0.16324324359E+03  0.00000000000E+00 0.  1.
          6    2    1    2  501    0  0.19029139976E+02  0.11038879988E+03  0.96951882280E+02  0.22641699848E+03  0.17122264574E+03 0.  0.
         24    2    3    3    0    0 -0.12686327495E+02 -0.95620284573E+01  0.48192598992E+02  0.93024233299E+02  0.77965415985E+02 0.  0.
         -6    2    1    2    0  502 -0.19029139976E+02 -0.11038879988E+03  0.75109278251E+01  0.20453229880E+03  0.17096564541E+03 0.  0.
        -24    2    5    5    0    0 -0.11631632551E+01 -0.68560168720E+02  0.70448176341E+02  0.12673760259E+03  0.79985152850E+02 0.  0.
          5    1    3    3  501    0  0.31715467471E+02  0.11995082833E+03  0.48759283288E+02  0.13339276518E+03  0.47000000000E+01 0. -1.
        -11    1    4    4    0    0 -0.43189414071E+01  0.11059592008E+01 -0.21534536421E+02  0.21991195045E+02  0.00000000000E+00 0.  1.
         12    1    4    4    0    0 -0.83673860880E+01 -0.10667987658E+02  0.69727135414E+02  0.71033038254E+02  0.00000000000E+00 0. -1.
         -5    1    5    5    0  502 -0.17865976721E+02 -0.41828631156E+02 -0.62937248516E+02  0.77794696216E+02  0.47000000000E+01 0.  1.
         13    1    6    6    0    0 -0.80549492201E+01 -0.78026318857E+02  0.28939651701E+02  0.83609162667E+02  0.00000000000E+00 0. -1.
        -14    1    6    6    0    0  0.68917859650E+01  0.94661501377E+01  0.41508524640E+02  0.43128439921E+02  0.00000000000E+00 0.  1.
</event>
<event>
12    1  0.1039610E+000  0.1724887E+03  0.7818608E-02  0.1175358E+00
         21   -1    0    0  503  502  0.00000000000E+00  0.00000000000E+00  0.20652821772E+02  0.20652821772E+02  0.00000000000E+00 0. -1.
         21   -1    0    0  501  503 -0.00000000000E+00 -0.00000000000E+00 -0.19351651150E+04  0.19351651150E+04  0.00000000000E+00 0. -1.
          6    2    1    2  501    0 -0.58032184349E+01  0.46779748046E+01 -0.14535957261E+04  0.14637940062E+04  0.17232758534E+03 0.  0.
         24    2    3    3    0    0  0.17700104238E+02  0.35239307507E+02 -0.43444922453E+03  0.44390769733E+03  0.82175498583E+02 0.  0.
         -6    2    1    2    0  502  0.58032184349E+01 -0.46779748046E+01 -0.46091656708E+03  0.49202393059E+03  0.17201135332E+03 0.  0.
        -24    2    5    5    0    0 -0.53097481812E+02 -0.39988725699E+02 -0.21708218007E+03  0.23865968704E+03  0.73588943182E+02 0.  0.
          5    1    3    3  501    0 -0.23503322673E+02 -0.30561332702E+02 -0.10191465016E+04  0.10198863088E+04  0.47000000000E+01 0. -1.
        -11    1    4    4    0    0 -0.11976150931E+02  0.47946886482E+02 -0.35047143216E+03  0.35393863434E+03  0.00000000000E+00 0.  1.
         12    1    4    4    0    0  0.29676255169E+02 -0.12707578975E+02 -0.83977792367E+02  0.89969062989E+02  0.00000000000E+00 0. -1.
         -5    1    5    5    0  502  0.58900700247E+02  0.35310750894E+02 -0.24383438701E+03  0.25336424355E+03  0.47000000000E+01 0.  1.
         13    1    6    6    0    0 -0.61069222865E+02 -0.13153145699E+02 -0.97133659379E+02  0.11548767470E+03  0.00000000000E+00 0. -1.
        -14    1    6    6    0    0  0.79717410528E+01 -0.26835579999E+02 -0.11994852069E+03  0.12317201234E+03  0.00000000000E+00 0.  1.
</event>
<event>
12    1  0.1039610E+000  0.2043410E+03  0.7818608E-02  0.1146311E+00
         21   -1    0    0  501  502  0.00000000000E+00  0.00000000000E+00  0.45710750663E+02  0.45710750663E+02  0.00000000000E+00 0. -1.
         21   -1    0    0  502  503 -0.00000000000E+00 -0.00000000000E+00 -0.94824408886E+03  0.94824408886E+03  0.00000000000E+00 0. -1.
         -6    2    1    2    0  503  0.28184257921E+02  0.10655442944E+03 -0.55268653677E+03  0.58925177046E+03  0.17206697021E+03 0.  0.
        -24    2    3    3    0    0  0.70591524429E+02  0.11508012620E+03 -0.47549925344E+03  0.50064572966E+03  0.79498476976E+02 0.  0.
          6    2    1    2  501    0 -0.28184257921E+02 -0.10655442944E+03 -0.34984680142E+03  0.40470306906E+03  0.17100757530E+03 0.  0.
         24    2    5    5    0    0  0.24419043167E+02 -0.19203356341E+02 -0.23962940887E+03  0.25447896687E+03  0.79826263972E+02 0.  0.
          5    1    5    5  501    0 -0.52603301088E+02 -0.87351073098E+02 -0.11021739255E+03  0.15022410218E+03  0.47000000000E+01 0. -1.
        -11    1    6    6    0    0  0.10464035890E+01  0.92549613074E+01  0.24369203641E+01  0.96274529411E+01  0.00000000000E+00 0.  1.
         12    1    6    6    0    0  0.23372639578E+02 -0.28458317648E+02 -0.24206632924E+03  0.24485151393E+03  0.00000000000E+00 0. -1.
         -5    1    3    3    0  503 -0.42407266508E+02 -0.85256967623E+01 -0.77187283333E+02  0.88606040801E+02  0.47000000000E+01 0.  1.
         13    1    4    4    0    0  0.49640739046E+02  0.11422111234E+03 -0.31409404679E+03  0.33788420458E+03  0.00000000000E+00 0. -1.
        -14    1    4    4    0    0  0.20950785383E+02  0.85901385799E+00 -0.16140520665E+03  0.16276152508E+03  0.00000000000E+00 0.  1.
</event>
<event>
12    1  0.1039610E+000  0.2049678E+03  0.7818608E-02  0.1145811E+00
         21   -1    0    0  501  502  0.00000000000E+00  0.00000000000E+00  0.69904093527E+03  0.69904093527E+03  0.00000000000E+00 0.  1.
         21   -1    0    0  502  503 -0.00000000000E+00 -0.00000000000E+00 -0.75174688800E+02  0.75174688800E+02  0.00000000000E+00 0.  1.
         -6    2    1    2    0  503  0.10369497227E+03  0.36252534305E+02  0.48748301955E+03  0.52882084324E+03  0.17304593716E+03 0.  0.
        -24    2    3    3    0    0  0.11392243551E+03 -0.23324095633E+02  0.29484360979E+03  0.32686538272E+03  0.79911760306E+02 0.  0.
          6    2    1    2  501    0 -0.10369497227E+03 -0.36252534305E+02  0.13638322691E+03  0.24539478083E+03  0.17190497479E+03 0.  0.
         24    2    5    5    0    0  0.68806564913E+01 -0.69127671863E+01  0.10452639722E+03  0.12654723475E+03  0.70663322332E+02 0.  0.
          5    1    5    5  501    0 -0.11057562876E+03 -0.29339767119E+02  0.31856829689E+02  0.11884754608E+03  0.47000000000E+01 0. -1.
        -13    1    6    6    0    0 -0.20048993154E+02 -0.29758253293E+02  0.56592968379E+02  0.67009550330E+02  0.00000000000E+00 0.  1.
         14    1    6    6    0    0  0.26929649645E+02  0.22845486107E+02  0.47933428843E+02  0.59537684420E+02  0.00000000000E+00 0. -1.
         -5    1    3    3    0  503 -0.10227463234E+02  0.59576629938E+02  0.19263940976E+03  0.20195546052E+03  0.47000000000E+01 0.  1.
         13    1    4    4    0    0  0.41356490347E+02  0.24152117455E+02  0.15581750228E+03  0.16301158882E+03  0.00000000000E+00 0. -1.
        -14    1    4    4    0    0  0.72565945161E+02 -0.47476213088E+02  0.13902610751E+03  0.16385379390E+03  0.00000000000E+00 0.  1.
</event>
<event>
12    1  0.1039610E+000  0.3176158E+03  0.7818608E-02  0.1076771E+00
         21   -1    0    0  503  502  0.00000000000E+00  0.00000000000E+00  0.17239299435E+03  0.17239299435E+03  0.00000000000E+00 0. -1.
         21   -1    0    0  501  503 -0.00000000000E+00 -0.00000000000E+00 -0.58544360575E+03  0.58544360575E+03  0.00000000000E+00 0.  1.
          6    2    1    2  501    0 -0.11595629226E+03  0.24027526264E+03 -0.19459144915E+03  0.37234442885E+03  0.17203626962E+03 0.  0.
         24    2    3    3    0    0 -0.19024401104E+02  0.18040127418E+03 -0.15037996807E+03  0.25004385209E+03  0.83673446250E+02 0.  0.
         -6    2    1    2    0  502  0.11595629226E+03 -0.24027526264E+03 -0.21845916225E+03  0.38549217126E+03  0.17234194201E+03 0.  0.
        -24    2    5    5    0    0  0.82842926600E+02 -0.24666449915E+03 -0.22207700243E+03  0.35125044092E+03  0.79701641227E+02 0.  0.
          5    1    3    3  501    0 -0.96931891158E+02  0.59873988458E+02 -0.44211481080E+02  0.12230057676E+03  0.47000000000E+01 0. -1.
        -13    1    4    4    0    0  0.80656132749E+01  0.20145380842E+01  0.68080745746E+01  0.10745341344E+02  0.00000000000E+00 0.  1.
         14    1    4    4    0    0 -0.27090014379E+02  0.17838673610E+03 -0.15718804264E+03  0.23929851074E+03  0.00000000000E+00 0. -1.
         -5    1    5    5    0  502  0.33113365662E+02  0.63892365081E+01  0.36178401751E+01  0.34241730332E+02  0.47000000000E+01 0.  1.
         11    1    6    6    0    0  0.54045296551E+02 -0.89737674820E+02 -0.48345561805E+02  0.11537347055E+03  0.00000000000E+00 0. -1.
        -12    1    6    6    0    0  0.28797630049E+02 -0.15692682433E+03 -0.17373144062E+03  0.23587697037E+03  0.00000000000E+00 0.  1.
</event>
<event>
12    1  0.1039610E+000  0.2487693E+03  0.7818608E-02  0.1114530E+00
         21   -1    0    0  501  502  0.00000000000E+00  0.00000000000E+00  0.32036126467E+03  0.32036126467E+03  0.00000000000E+00 0.  1.
         21   -1    0    0  502  503 -0.00000000000E+00 -0.00000000000E+00 -0.22907756890E+03  0.22907756890E+03  0.00000000000E+00 0.  1.
         -6    2    1    2    0  503  0.88097743812E+02  0.15178696597E+03 -0.66540697075E+02  0.25482945809E+03  0.17236557905E+03 0.  0.
        -24    2    3    3    0    0  0.10238480964E+03  0.13280427238E+03 -0.18415784177E+01  0.18574596614E+03  0.79865815696E+02 0.  0.
          6    2    1    2  501    0 -0.88097743812E+02 -0.15178696597E+03  0.15782439284E+03  0.29460937548E+03  0.17631122948E+03 0.  0.
         24    2    5    5    0    0  0.13462866633E+02 -0.28259594552E+02  0.22232410639E+00  0.70034062605E+02  0.62648759244E+02 0.  0.
          5    1    5    5  501    0 -0.10156061045E+03 -0.12352737141E+03  0.15760206873E+03  0.22457531287E+03  0.47000000000E+01 0. -1.
        -13    1    6    6    0    0  0.35856834298E+02 -0.30509237510E+02  0.38489394857E+01  0.47237066743E+02  0.00000000000E+00 0.  1.
         14    1    6    6    0    0 -0.22393967665E+02  0.22496429583E+01 -0.36266153793E+01  0.22796995862E+02  0.00000000000E+00 0. -1.
         -5    1    3    3    0  503 -0.14287065833E+02  0.18982693589E+02 -0.64699118657E+02  0.69083491957E+02  0.47000000000E+01 0.  1.
         11    1    4    4    0    0  0.55817430856E+02  0.27115571300E+02 -0.26786857643E+02  0.67589759112E+02  0.00000000000E+00 0. -1.
        -12    1    4    4    0    0  0.46567378788E+02  0.10568870108E+03  0.24945279226E+02  0.11815620702E+03  0.00000000000E+00 0.  1.
</event>
<event>
12    1  0.1039610E+000  0.2494496E+03  0.7818608E-02  0.1113656E+00
         21   -1    0    0  501  502  0.00000000000E+00  0.00000000000E+00  0.49107472741E+03  0.49107472741E+03  0.00000000000E+00 0.  1.
         21   -1    0    0  502  503 -0.00000000000E+00 -0.00000000000E+00 -0.18372465265E+03  0.18372465265E+03  0.00000000000E+00 0.  1.
         -6    2    1    2    0  503  0.41498992817E+01 -0.17962282473E+03 -0.34293414487E+02  0.25178000688E+03  0.17301893757E+03 0.  0.
        -24    2    3    3    0    0 -0.30356254175E+02 -0.18888400035E+03 -0.48728188357E+02  0.21296123955E+03  0.79871055159E+02 0.  0.
          6    2    1    2  501    0 -0.41498992817E+01  0.17962282473E+03  0.34164348924E+03  0.42301937319E+03  0.17304200508E+03 0.  0.
         24    2    5    5    0    0 -0.39676800454E+02  0.61153721194E+02  0.23658489431E+03  0.26067256056E+03  0.81631767739E+02 0.  0.
          5    1    5    5  501    0  0.35526901172E+02  0.11846910354E+03  0.10505859493E+03  0.16234681262E+03  0.47000000000E+01 0. -1.
        -13    1    6    6    0    0 -0.88163381988E+00  0.68953293684E+02  0.13361126208E+03  0.15035725238E+03  0.00000000000E+00 0.  1.
         14    1    6    6    0    0 -0.38795166634E+02 -0.77995724898E+01  0.10297363222E+03  0.11031530818E+03  0.00000000000E+00 0. -1.
         -5    1    3    3    0  503  0.34506153457E+02  0.92611756211E+01  0.14434773870E+02  0.38818767329E+02  0.47000000000E+01 0.  1.
         11    1    4    4    0    0 -0.12244354625E+02 -0.90466124455E+02  0.17509241807E+02  0.92954921562E+02  0.00000000000E+00 0. -1.
        -12    1    4    4    0    0 -0.18111899550E+02 -0.98417875899E+02 -0.66237430164E+02  0.12000631799E+03  0.00000000000E+00 0.  1.
</event>
<event>
12    1  0.1039610E+000  0.1909903E+03  0.7818608E-02  0.1158085E+00
         21   -1    0    0  503  502  0.00000000000E+00  0.00000000000E+00  0.34152753264E+03  0.34152753264E+03  0.00000000000E+00 0.  1.
         21   -1    0    0  501  503 -0.00000000000E+00 -0.00000000000E+00 -0.12052282683E+03  0.12052282683E+03  0.00000000000E+00 0.  1.
          6    2    1    2  501    0  0.74361768322E+02 -0.15991085397E+02  0.19138915900E+03  0.26877757600E+03  0.17270259922E+03 0.  0.
         24    2    3    3    0    0  0.79626186491E+02  0.16007917842E+02  0.20404889856E+03  0.23364910730E+03  0.79745654000E+02 0.  0.
         -6    2    1    2    0  502 -0.74361768322E+02  0.15991085397E+02  0.29615546805E+02  0.19327278347E+03  0.17519104092E+03 0.  0.
        -24    2    5    5    0    0  0.17660514878E+02 -0.30252497748E+02  0.29012640006E+01  0.86772490078E+02  0.79334357600E+02 0.  0.
          5    1    3    3  501    0 -0.52644181688E+01 -0.31999003239E+02 -0.12659739563E+02  0.35128468694E+02  0.47000000000E+01 0. -1.
        -11    1    4    4    0    0 -0.15664796450E+02 -0.28225522873E+01  0.20196230890E+02  0.25714594911E+02  0.00000000000E+00 0.  1.
         12    1    4    4    0    0  0.95290982941E+02  0.18830470129E+02  0.18385266767E+03  0.20793451239E+03  0.00000000000E+00 0. -1.
         -5    1    5    5    0  502 -0.92022283201E+02  0.46243583145E+02  0.26714282804E+02  0.10650029340E+03  0.47000000000E+01 0.  1.
         11    1    6    6    0    0 -0.12405407548E+02 -0.49486491441E+02  0.92772305460E+00  0.51026146647E+02  0.00000000000E+00 0. -1.
        -12    1    6    6    0    0  0.30065922427E+02  0.19233993694E+02  0.19735409460E+01  0.35746343431E+02  0.00000000000E+00 0.  1.
</event>
<event>
12    1  0.1039610E+000  0.2895079E+03  0.7818608E-02  0.1090709E+00
         21   -1    0    0  501  502  0.00000000000E+00  0.00000000000E+00  0.45100637192E+03  0.45100637192E+03  0.00000000000E+00 0. -1.
         21   -1    0    0  502  503 -0.00000000000E+00 -0.00000000000E+00 -0.23875763299E+03  0.23875763299E+03  0.00000000000E+00 0. -1.
         -6    2    1    2    0  503 -0.41618036479E+02 -0.22842880634E+03 -0.56900249379E+02  0.29504656029E+03  0.17292499483E+03 0.  0.
        -24    2    3    3    0    0 -0.79628313792E+02 -0.16491716754E+03 -0.82841903281E+02  0.21647449877E+03  0.80374667482E+02 0.  0.
          6    2    1    2  501    0  0.41618036479E+02  0.22842880634E+03  0.26914898830E+03  0.39471744462E+03  0.17160682579E+03 0.  0.
         24    2    5    5    0    0  0.25833862493E+02  0.11371711013E+03  0.57305584653E+02  0.15324771346E+03  0.81252458805E+02 0.  0.
          5    1    5    5  501    0  0.15784173986E+02  0.11471169621E+03  0.21184340365E+03  0.24146973116E+03  0.47000000000E+01 0. -1.
        -11    1    6    6    0    0 -0.28127000109E+02  0.58507326364E+02  0.25165032240E+02  0.69624092245E+02  0.00000000000E+00 0.  1.
         12    1    6    6    0    0  0.53960862602E+02  0.55209783762E+02  0.32140552413E+02  0.83623621216E+02  0.00000000000E+00 0. -1.
         -5    1    3    3    0  503  0.38010277313E+02 -0.63511638804E+02  0.25941653902E+02  0.78572061524E+02  0.47000000000E+01 0.  1.
         13    1    4    4    0    0 -0.73659581252E+00 -0.38451253486E+02 -0.51305526262E+02  0.64119408084E+02  0.00000000000E+00 0. -1.
        -14    1    4    4    0    0 -0.78891717980E+02 -0.12646591405E+03 -0.31536377018E+02  0.15235509069E+03  0.00000000000E+00 0.  1.
</event>
<event>
12    1  0.1039610E+000  0.5734974E+03  0.7818608E-02  0.9962148E-01
         21   -1    0    0  503  502  0.00000000000E+00  0.00000000000E+00  0.12739707779E+04  0.12739707779E+04  0.00000000000E+00 0.  1.
         21   -1    0    0  501  503 -0.00000000000E+00 -0.00000000000E+00 -0.28818558106E+03  0.28818558106E+03  0.00000000000E+00 0. -1.
          6    2    1    2  501    0 -0.50337739160E+03  0.21325145709E+03  0.74571645662E+03  0.94074032214E+03  0.17330417679E+03 0.  0.
         24    2    3    3    0    0 -0.10316962104E+03  0.67409446911E+02  0.20789634563E+03  0.25465817448E+03  0.80261392113E+02 0.  0.
         -6    2    1    2    0  502  0.50337739160E+03 -0.21325145709E+03  0.24006874025E+03  0.62141603686E+03  0.17222052287E+03 0.  0.
        -24    2    5    5    0    0  0.10391783250E+03 -0.52266269580E+02  0.26132879359E+02  0.14050563717E+03  0.74352053411E+02 0.  0.
          5    1    3    3  501    0 -0.40020777056E+03  0.14584201018E+03  0.53782011099E+03  0.68608214766E+03  0.47000000000E+01 0. -1.
        -11    1    4    4    0    0 -0.10963156695E+03  0.37510471362E+02  0.17341738885E+03  0.20856583299E+03  0.00000000000E+00 0.  1.
         12    1    4    4    0    0  0.64619459063E+01  0.29898975548E+02  0.34478956785E+02  0.46092341497E+02  0.00000000000E+00 0. -1.
         -5    1    5    5    0  502  0.39945955910E+03 -0.16098518751E+03  0.21393586089E+03  0.48091039969E+03  0.47000000000E+01 0.  1.
         13    1    6    6    0    0  0.10522366498E+02  0.14716524103E+02 -0.91581162668E+01  0.20277262437E+02  0.00000000000E+00 0. -1.
        -14    1    6    6    0    0  0.93395466002E+02 -0.66982793683E+02  0.35290995626E+02  0.12022837474E+03  0.00000000000E+00 0.  1.
</event>
<event>
12    1  0.1039610E+000  0.1869998E+03  0.7818608E-02  0.1162958E+00
         21   -1    0    0  501  502  0.00000000000E+00  0.00000000000E+00  0.13987368535E+04  0.13987368535E+04  0.00000000000E+00 0. -1.
         21   -1    0    0  502  503 -0.00000000000E+00 -0.00000000000E+00 -0.36225123983E+02  0.36225123983E+02  0.00000000000E+00 0. -1.
         -6    2    1    2    0  503 -0.12614980904E+02  0.67121784171E+02  0.11070766319E+04  0.11227589177E+04  0.17408172428E+03 0.  0.
        -24    2    3    3    0    0 -0.53751290678E+02  0.58412095081E+02  0.45476774980E+03  0.46907931550E+03  0.83189686099E+02 0.  0.
          6    2    1    2  501    0  0.12614980904E+02 -0.67121784171E+02  0.25543509763E+03  0.31220305980E+03  0.16600960752E+03 0.  0.
         24    2    5    5    0    0 -0.50183185118E+02 -0.19960553654E+02  0.16819381922E+03  0.19472573441E+03  0.81927864915E+02 0.  0.
          5    1    5    5  501    0  0.62798166022E+02 -0.47161230517E+02  0.87241278417E+02  0.11747732538E+03  0.47000000000E+01 0. -1.
        -13    1    6    6    0    0  0.71504953999E+01  0.86676600659E+01  0.10191449991E+03  0.10253205941E+03  0.00000000000E+00 0.  1.
         14    1    6    6    0    0 -0.57333680517E+02 -0.28628213719E+02  0.66279319308E+02  0.92193675002E+02  0.00000000000E+00 0. -1.
         -5    1    3    3    0  503  0.41136309774E+02  0.87096890896E+01  0.65230888213E+03  0.65367960223E+03  0.47000000000E+01 0.  1.
         13    1    4    4    0    0  0.21712641513E+02  0.44151115714E+01  0.83115741390E+02  0.86018361286E+02  0.00000000000E+00 0. -1.
        -14    1    4    4    0    0 -0.75463932191E+02  0.53996983510E+02  0.37165200841E+03  0.38306095422E+03  0.00000000000E+00 0.  1.
</event>
<event>
12    1  0.1039610E+000  0.2150225E+03  0.7818608E-02  0.1137779E+00
         21   -1    0    0  503  502  0.00000000000E+00  0.00000000000E+00  0.55830320271E+02  0.55830320271E+02  0.00000000000E+00 0.  1.
         21   -1    0    0  501  503 -0.00000000000E+00 -0.00000000000E+00 -0.92740736371E+03  0.92740736371E+03  0.00000000000E+00 0.  1.
          6    2    1    2  501    0 -0.12013969507E+02 -0.12738025729E+03 -0.27224316915E+03  0.34649929247E+03  0.17197485607E+03 0.  0.
         24    2    3    3    0    0  0.33773405521E+02 -0.12552266445E+03 -0.13728778245E+03  0.20389851841E+03  0.76355015465E+02 0.  0.
         -6    2    1    2    0  502  0.12013969507E+02  0.12738025729E+03 -0.59933387429E+03  0.63673839151E+03  0.17281383320E+03 0.  0.
        -24    2    5    5    0    0 -0.14733529287E+02  0.14616460063E+03 -0.38197990688E+03  0.41689044998E+03  0.79421852560E+02 0.  0.
          5    1    3    3  501    0 -0.45787375028E+02 -0.18575928345E+01 -0.13495538670E+03  0.14260077406E+03  0.47000000000E+01 0. -1.
        -11    1    4    4    0    0  0.55280581351E+02 -0.65436090050E+02 -0.65424437494E+02  0.10778766895E+03  0.00000000000E+00 0.  1.
         12    1    4    4    0    0 -0.21507175830E+02 -0.60086574404E+02 -0.71863344956E+02  0.96110849461E+02  0.00000000000E+00 0. -1.
         -5    1    5    5    0  502  0.26747498794E+02 -0.18784343344E+02 -0.21735396741E+03  0.21984794153E+03  0.47000000000E+01 0.  1.
         11    1    6    6    0    0  0.55331562635E+01  0.14344785754E+03 -0.35582040525E+03  0.38368745672E+03  0.00000000000E+00 0. -1.
        -12    1    6    6    0    0 -0.20266685550E+02  0.27167430948E+01 -0.26159501629E+02  0.33202993264E+02  0.00000000000E+00 0.  1.
</event>
<event>
12    1  0.1039610E+000  0.2543935E+03  0.7818608E-02  0.1111221E+00
         21   -1    0    0  501  502  0.00000000000E+00  0.00000000000E+00  0.28450941828E+03  0.28450941828E+03  0.00000000000E+00 0.  1.
         21   -1    0    0  502  503 -0.00000000000E+00 -0.00000000000E+00 -0.27365427740E+03  0.27365427740E+03  0.00000000000E+00 0.  1.
         -6    2    1    2    0  503 -0.16011574068E+03  0.96945693972E+02  0.12471643061E+03  0.28332003359E+03  0.17228039754E+03 0.  0.
        -24    2    3    3    0    0 -0.15969700301E+03  0.11091253248E+03  0.61223143147E+02  0.21813770875E+03  0.77659925889E+02 0.  0.
          6    2    1    2  501    0  0.16011574068E+03 -0.96945693972E+02 -0.11386128973E+03  0.27484366209E+03  0.16594917084E+03 0.  0.
         24    2    5    5    0    0  0.12514287000E+03 -0.46770888813E+02 -0.19685356212E+02  0.16245234032E+03  0.90305014669E+02 0.  0.
          5    1    5    5  501    0  0.34972870680E+02 -0.50174805159E+02 -0.94175933514E+02  0.11239132177E+03  0.47000000000E+01 0. -1.
        -13    1    6    6    0    0  0.34535796000E+02  0.27426554024E+02 -0.70628616719E+01  0.44663419999E+02  0.00000000000E+00 0.  1.
         14    1    6    6    0    0  0.90607073997E+02 -0.74197442837E+02 -0.12622494540E+02  0.11778892032E+03  0.00000000000E+00 0. -1.
         -5    1    3    3    0  503 -0.41873766578E+00 -0.13966838506E+02  0.63493287464E+02  0.65182324844E+02  0.47000000000E+01 0.  1.
         11    1    4    4    0    0 -0.72706437663E+02  0.78447932743E+02  0.73233577137E-01  0.10695938291E+03  0.00000000000E+00 0. -1.
        -12    1    4    4    0    0 -0.86990565350E+02  0.32464599736E+02  0.61149909570E+02  0.11117832584E+03  0.00000000000E+00 0.  1.
</event>
<event>
12    1  0.1039610E+000  0.2778274E+03  0.7818608E-02  0.1097091E+00
         21   -1    0    0  503  502  0.00000000000E+00  0.00000000000E+00  0.17865640414E+03  0.17865640414E+03  0.00000000000E+00 0. -1.
         21   -1    0    0  501  503 -0.00000000000E+00 -0.00000000000E+00 -0.48896376382E+03  0.48896376382E+03  0.00000000000E+00 0. -1.
          6    2    1    2  501    0  0.18801133623E+03 -0.10879027740E+03 -0.38563124342E+02  0.27899056341E+03  0.17077772954E+03 0.  0.
         24    2    3    3    0    0  0.17893039742E+03 -0.88709268652E+02  0.20129402052E+02  0.21612075336E+03  0.80109710636E+02 0.  0.
         -6    2    1    2    0  502 -0.18801133623E+03  0.10879027740E+03 -0.27174423533E+03  0.38862960455E+03  0.17321793522E+03 0.  0.
        -24    2    5    5    0    0 -0.10327472097E+03  0.67356992009E+02 -0.25281045632E+03  0.29230936216E+03  0.79555037666E+02 0.  0.
          5    1    3    3  501    0  0.90809388111E+01 -0.20081008748E+02 -0.58692526394E+02  0.62869810057E+02  0.47000000000E+01 0. -1.
        -11    1    4    4    0    0  0.44539198427E+02 -0.63538785436E+02 -0.19630749903E+01  0.77619399087E+02  0.00000000000E+00 0.  1.
         12    1    4    4    0    0  0.13439119900E+03 -0.25170483216E+02  0.22092477043E+02  0.13850135427E+03  0.00000000000E+00 0. -1.
         -5    1    5    5    0  502 -0.84736615265E+02  0.41433285392E+02 -0.18933779009E+02  0.96320242382E+02  0.47000000000E+01 0.  1.
         11    1    6    6    0    0 -0.23809789133E+01  0.40950349989E+02 -0.90761564520E+02  0.99600511137E+02  0.00000000000E+00 0. -1.
        -12    1    6    6    0    0 -0.10089374206E+03  0.26406642020E+02 -0.16204889181E+03  0.19270885103E+03  0.00000000000E+00 0.  1.
</event>
<event>
12    1  0.1039610E+000  0.2487410E+03  0.7818608E-02  0.1115200E+00
         21   -1    0    0  503  502  0.00000000000E+00  0.00000000000E+00  0.21771860891E+03  0.21771860891E+03  0.00000000000E+00 0.  1.
         21   -1    0    0  501  503 -0.00000000000E+00 -0.00000000000E+00 -0.18065763421E+04  0.18065763421E+04  0.00000000000E+00 0.  1.
          6    2    1    2  501    0 -0.13487661197E+03 -0.10199559228E+03  0.13872682617E+03  0.27889514600E+03  0.17303921192E+03 0.  0.
         24    2    3    3    0    0 -0.50350275275E+02 -0.13185715952E+02  0.12045160307E+03  0.15484689125E+03  0.82218962056E+02 0.  0.
         -6    2    1    2    0  502  0.13487661197E+03  0.10199559228E+03 -0.17275845594E+04  0.17453998050E+04  0.18242058083E+03 0.  0.
        -24    2    5    5    0    0  0.37624365664E+01  0.42005173822E+01 -0.45346689458E+03  0.46081710337E+03  0.81782504256E+02 0.  0.
          5    1    3    3  501    0 -0.84526336693E+02 -0.88809876323E+02  0.18275223097E+02  0.12404825475E+03  0.47000000000E+01 0. -1.
        -13    1    4    4    0    0 -0.12970627584E+02 -0.45850330539E+02  0.60487317169E+02  0.77001334591E+02  0.00000000000E+00 0.  1.
         14    1    4    4    0    0 -0.37379647691E+02  0.32664614587E+02  0.59964285902E+02  0.77845556658E+02  0.00000000000E+00 0. -1.
         -5    1    5    5    0  502  0.13111417540E+03  0.97795074893E+02 -0.12741176648E+04  0.12845827016E+04  0.47000000000E+01 0.  1.
         13    1    6    6    0    0  0.39748008824E+02 -0.22195688174E+01 -0.31884830119E+03  0.32132393291E+03  0.00000000000E+00 0. -1.
        -14    1    6    6    0    0 -0.35985572258E+02  0.64200861996E+01 -0.13461859339E+03  0.13949317046E+03  0.00000000000E+00 0.  1.
</event>
<event>
12    1  0.1039610E+000  0.2350438E+03  0.7818608E-02  0.1123552E+00
         21   -1    0    0  501  502  0.00000000000E+00  0.00000000000E+00  0.18092285601E+03  0.18092285601E+03  0.00000000000E+00 0.  1.
         21   -1    0    0  502  503 -0.00000000000E+00 -0.00000000000E+00 -0.30292230049E+03  0.30292230049E+03  0.00000000000E+00 0.  1.
         -6    2    1    2    0  503 -0.13851401288E+03 -0.72925218149E+02 -0.49271632022E+02  0.23780671857E+03  0.17210497514E+03 0.  0.
        -24    2    3    3    0    0 -0.10913085020E+03 -0.99231656209E+02 -0.80775008320E+02  0.18711202801E+03  0.82035632496E+02 0.  0.
          6    2    1    2  501    0  0.13851401288E+03  0.72925218149E+02 -0.72727812458E+02  0.24603843792E+03  0.17533213916E+03 0.  0.
         24    2    5    5    0    0  0.51645030308E+02  0.87534822437E+02 -0.81578823033E+02  0.15738128333E+03  0.88228168297E+02 0.  0.
          5    1    5    5  501    0  0.86868982576E+02 -0.14609604288E+02  0.88510105755E+01  0.88657154586E+02  0.47000000000E+01 0. -1.
        -13    1    6    6    0    0 -0.12002714245E+02  0.59226888186E+01  0.11906680334E+02  0.17914028823E+02  0.00000000000E+00 0.  1.
         14    1    6    6    0    0  0.63647744553E+02  0.81612133618E+02 -0.93485503368E+02  0.13946725451E+03  0.00000000000E+00 0. -1.
         -5    1    3    3    0  503 -0.29383162683E+02  0.26306438060E+02  0.31503376298E+02  0.50694690558E+02  0.47000000000E+01 0.  1.
         13    1    4    4    0    0 -0.67439577766E+02 -0.31019086177E+02 -0.10935682362E+01  0.74239317400E+02  0.00000000000E+00 0. -1.
        -14    1    4    4    0    0 -0.41691272434E+02 -0.68212570032E+02 -0.79681440083E+02  0.11287271061E+03  0.00000000000E+00 0.  1.
</event>
<event>
12    1  0.1039610E+000  0.2856911E+03  0.7818608E-02  0.1092692E+00
         21   -1    0    0  503  502  0.00000000000E+00  0.00000000000E+00  0.30024617153E+03  0.30024617153E+03  0.00000000000E+00 0.  1.
         21   -1    0    0  501  503 -0.00000000000E+00 -0.00000000000E+00 -0.27154626722E+03  0.27154626722E+03  0.00000000000E+00 0.  1.
          6    2    1    2  501    0  0.20299190928E+03 -0.10288025909E+03  0.63162346351E+01  0.28522575940E+03  0.17182484123E+03 0.  0.
         24    2    3    3    0    0  0.11170524297E+03  0.91252751242E+01 -0.21911327310E+02  0.13792545257E+03  0.77343340039E+02 0.  0.
         -6    2    1    2    0  502 -0.20299190928E+03  0.10288025909E+03  0.22383669680E+02  0.28656667934E+03  0.17271181227E+03 0.  0.
        -24    2    5    5    0    0 -0.69368766238E+02  0.10950050084E+03  0.17596778690E+02  0.15261155148E+03  0.78601867727E+02 0.  0.
          5    1    3    3  501    0  0.91286666310E+02 -0.11200553422E+03  0.28227561945E+02  0.14730030684E+03  0.47000000000E+01 0. -1.
        -11    1    4    4    0    0  0.65316343770E+02  0.19062940176E+02 -0.48484692024E+02  0.83548703235E+02  0.00000000000E+00 0.  1.
         12    1    4    4    0    0  0.46388899197E+02 -0.99376650519E+01  0.26573364715E+02  0.54376749330E+02  0.00000000000E+00 0. -1.
         -5    1    5    5    0  502 -0.13362314304E+03 -0.66202417446E+01  0.47868909898E+01  0.13395512787E+03  0.47000000000E+01 0.  1.
         13    1    6    6    0    0  0.16374351343E+02  0.19466033189E+02 -0.58214911379E+01  0.26094742557E+02  0.00000000000E+00 0. -1.
        -14    1    6    6    0    0 -0.85743117581E+02  0.90034467650E+02  0.23418269828E+02  0.12651680892E+03  0.00000000000E+00 0.  1.
</event>
<event>
12    1  0.1039610E+000  0.1828882E+03  0.7818608E-02  0.1165393E+00
         21   -1    0    0  501  502  0.00000000000E+00  0.00000000000E+00  0.29830517845E+03  0.29830517845E+03  0.00000000000E+00 0.  1.
         21   -1    0    0  502  503 -0.00000000000E+00 -0.00000000000E+00 -0.11471458306E+03  0.11471458306E+03  0.00000000000E+00 0.  1.
         -6    2    1    2    0  503 -0.33835000459E+02 -0.53095719328E+02  0.12824452092E+03  0.22337133260E+03  0.17170944184E+03 0.  0.
        -24    2    3    3    0    0 -0.14391729569E+02  0.17070549769E+02  0.93927817288E+01  0.83911044313E+02  0.80338741959E+02 0.  0.
          6    2    1    2  501    0  0.33835000459E+02  0.53095719328E+02  0.55346074480E+02  0.18964842891E+03  0.17011577223E+03 0.  0.
         24    2    5    5    0    0  0.56092520194E+01  0.82581346656E+02 -0.73961630783E+01  0.11464993914E+03  0.78985839190E+02 0.  0.
          5    1    5    5  501    0  0.28225748440E+02 -0.29485627328E+02  0.62742237558E+02  0.74998489769E+02  0.47000000000E+01 0. -1.
        -13    1    6    6    0    0 -0.31006265188E+02  0.44948011060E+02  0.16382695729E+02  0.57009691268E+02  0.00000000000E+00 0.  1.
         14    1    6    6    0    0  0.36615517207E+02  0.37633335596E+02 -0.23778858807E+02  0.57640247871E+02  0.00000000000E+00 0. -1.
         -5    1    3    3    0  503 -0.19443270891E+02 -0.70166269097E+02  0.11885173919E+03  0.13946028829E+03  0.47000000000E+01 0.  1.
         13    1    4    4    0    0 -0.64042621473E+00 -0.32209830559E+02  0.40524929510E+01  0.32470078989E+02  0.00000000000E+00 0. -1.
        -14    1    4    4    0    0 -0.13751303354E+02  0.49280380328E+02  0.53402887779E+01  0.51440965324E+02  0.00000000000E+00 0.  1.
</event>
<event>
12    1  0.1039610E+000  0.2581127E+03  0.7818608E-02  0.1108569E+00
         21   -1    0    0  503  502  0.00000000000E+00  0.00000000000E+00  0.37961575194E+03  0.37961575194E+03  0.00000000000E+00 0.  1.
         21   -1    0    0  501  503 -0.00000000000E+00 -0.00000000000E+00 -0.17460451187E+03  0.17460451187E+03  0.00000000000E+00 0.  1.
          6    2    1    2  501    0  0.16475960956E+03  0.74745443200E+02  0.89158116113E+02  0.27129958360E+03  0.18144333598E+03 0.  0.
         24    2    3    3    0    0  0.23348037164E+02 -0.21656067631E+00  0.12966184016E+02  0.93975486676E+02  0.90100457436E+02 0.  0.
         -6    2    1    2    0  502 -0.16475960956E+03 -0.74745443200E+02  0.11585312396E+03  0.28292068021E+03  0.18409115877E+03 0.  0.
        -24    2    5    5    0    0 -0.16991248755E+03 -0.91196606852E+02  0.51203186198E+02  0.21584685976E+03  0.82346985756E+02 0.  0.
          5    1    3    3  501    0  0.14141157239E+03  0.74962003877E+02  0.76191932097E+02  0.17732409692E+03  0.47000000000E+01 0. -1.
        -11    1    4    4    0    0  0.20310836011E+02  0.42571482996E+02  0.18616353682E+02  0.50709267874E+02  0.00000000000E+00 0.  1.
         12    1    4    4    0    0  0.30372011537E+01 -0.42788043672E+02 -0.56501696666E+01  0.43266218802E+02  0.00000000000E+00 0. -1.
         -5    1    5    5    0  502  0.51528779936E+01  0.16451163652E+02  0.64649937764E+02  0.67073820451E+02  0.47000000000E+01 0.  1.
         11    1    6    6    0    0 -0.10476392311E+03 -0.93160762814E+02  0.54908530127E+02  0.15056345504E+03  0.00000000000E+00 0. -1.
        -12    1    6    6    0    0 -0.65148564448E+02  0.19641559614E+01 -0.37053439291E+01  0.65283404720E+02  0.00000000000E+00 0.  1.
</event>
<event>
12    1  0.1039610E+000  0.2218391E+03  0.7818608E-02  0.1133327E+00
         21   -1    0    0  501  502  0.00000000000E+00  0.00000000000E+00  0.60408410811E+03  0.60408410811E+03  0.00000000000E+00 0.  1.
         21   -1    0    0  502  503 -0.00000000000E+00 -0.00000000000E+00 -0.10880615520E+03  0.10880615520E+03  0.00000000000E+00 0.  1.
         -6    2    1    2    0  503 -0.40016205950E+02 -0.13418927451E+03  0.43320486054E+03  0.48670219983E+03  0.17205964663E+03 0.  0.
        -24    2    3    3    0    0 -0.67930588204E+02 -0.11211311037E+03  0.42264403070E+03  0.44928307522E+03  0.77739247903E+02 0.  0.
          6    2    1    2  501    0  0.40016205950E+02  0.13418927451E+03  0.62073092370E+02  0.22618806348E+03  0.16643290880E+03 0.  0.
         24    2    5    5    0    0 -0.21773250999E+02  0.60130132202E+02  0.75075580220E+02  0.12875168300E+03  0.82770440816E+02 0.  0.
          5    1    5    5  501    0  0.61789456949E+02  0.74059142308E+02 -0.13002487850E+02  0.97436380474E+02  0.47000000000E+01 0. -1.
        -11    1    6    6    0    0 -0.31101952610E+02  0.75969998406E+02  0.45302531947E+02  0.93760820788E+02  0.00000000000E+00 0.  1.
         12    1    6    6    0    0  0.93287016108E+01 -0.15839866203E+02  0.29773048272E+02  0.34990862214E+02  0.00000000000E+00 0. -1.
         -5    1    3    3    0  503  0.27914382254E+02 -0.22076164139E+02  0.10560829836E+02  0.37419124609E+02  0.47000000000E+01 0.  1.
         13    1    4    4    0    0 -0.36599833715E+02 -0.11468578817E+03  0.35014424924E+03  0.37026122280E+03  0.00000000000E+00 0. -1.
        -14    1    4    4    0    0 -0.31330754489E+02  0.25726778012E+01  0.72499781464E+02  0.79021852422E+02  0.00000000000E+00 0.  1.
</event>
<event>
12    1  0.1039610E+000  0.1944244E+03  0.7818608E-02  0.1154537E+00
         21   -1    0    0  501  502  0.00000000000E+00  0.00000000000E+00  0.39093968801E+02  0.39093968801E+02  0.00000000000E+00 0. -1.
         21   -1    0    0  502  503 -0.00000000000E+00 -0.00000000000E+00 -0.10639280899E+04  0.10639280899E+04  0.00000000000E+00 0. -1.
         -6    2    1    2    0  503 -0.40553504841E+02  0.82824176486E+02 -0.34578530242E+03  0.39669676465E+03  0.17116196058E+03 0.  0.
        -24    2    3    3    0    0 -0.70870091023E+02  0.10813335884E+03 -0.23624162261E+03  0.28015682345E+03  0.77216244251E+02 0.  0.
          6    2    1    2  501    0  0.40553504841E+02 -0.82824176486E+02 -0.67904881870E+03  0.70632529407E+03  0.17112478460E+03 0.  0.
         24    2    5    5    0    0  0.12441783160E+02 -0.57536694205E+02 -0.65210374503E+03  0.65965782520E+03  0.80273799685E+02 0.  0.
          5    1    5    5  501    0  0.28111721680E+02 -0.25287482282E+02 -0.26945073670E+02  0.46667468874E+02  0.47000000000E+01 0. -1.
        -11    1    6    6    0    0  0.34835442179E+02 -0.21299155281E+02 -0.14130569111E+03  0.14708657446E+03  0.00000000000E+00 0.  1.
         12    1    6    6    0    0 -0.22393659018E+02 -0.36237538923E+02 -0.51079805393E+03  0.51257125074E+03  0.00000000000E+00 0. -1.
         -5    1    3    3    0  503  0.30316586182E+02 -0.25309182350E+02 -0.10954367981E+03  0.11653994121E+03  0.47000000000E+01 0.  1.
         11    1    4    4    0    0 -0.17350942857E+02 -0.56219470339E+01 -0.66338667329E+02  0.68800292801E+02  0.00000000000E+00 0. -1.
        -12    1    4    4    0    0 -0.53519148166E+02  0.11375530587E+03 -0.16990295528E+03  0.21135653065E+03  0.00000000000E+00 0.  1.
</event>
<event>
12    1  0.1039610E+000  0.2207053E+03  0.7818608E-02  0.1134275E+00
         21   -1    0    0  503  502  0.00000000000E+00  0.00000000000E+00  0.22916920988E+03  0.22916920988E+03  0.00000000000E+00 0.  1.
         21   -1    0    0  501  503 -0.00000000000E+00 -0.00000000000E+00 -0.21214586975E+03  0.21214586975E+03  0.00000000000E+00 0.  1.
          6    2    1    2  501    0 -0.46998984810E+02  0.12536231312E+03  0.39695835463E+02  0.21944834095E+03  0.16928437869E+03 0.  0.
         24    2    3    3    0    0 -0.37850525462E+02  0.15607980857E+03  0.16604341737E+02  0.17966686389E+03  0.78809319847E+02 0.  0.
         -6    2    1    2    0  502  0.46998984810E+02 -0.12536231312E+03 -0.22672495341E+02  0.22186673868E+03  0.17545994860E+03 0.  0.
        -24    2    5    5    0    0  0.84871777191E+02 -0.90227765315E+02  0.29533469234E+02  0.14827096713E+03  0.75945939275E+02 0.  0.
          5    1    3    3  501    0 -0.91484593479E+01 -0.30717495445E+02  0.23091493726E+02  0.39781477064E+02  0.47000000000E+01 0. -1.
        -11    1    4    4    0    0 -0.55729257058E+02  0.13324069036E+03  0.30333478795E+02  0.14757693449E+03  0.00000000000E+00 0.  1.
         12    1    4    4    0    0  0.17878731596E+02  0.22839118211E+02 -0.13729137059E+02  0.32089929394E+02  0.00000000000E+00 0. -1.
         -5    1    5    5    0  502 -0.37872792381E+02 -0.35134547806E+02 -0.52205964574E+02  0.73595771546E+02  0.47000000000E+01 0.  1.
         13    1    6    6    0    0  0.64875367738E+02 -0.18587929607E+02  0.30091549943E+02  0.73890634347E+02  0.00000000000E+00 0. -1.
        -14    1    6    6    0    0  0.19996409453E+02 -0.71639835708E+02 -0.55808070969E+00  0.74380332786E+02  0.00000000000E+00 0.  1.
</event>
<event>
12    1  0.1039610E+000  0.1995913E+03  0.7818608E-02  0.1150581E+00
         21   -1    0    0  501  502  0.00000000000E+00  0.00000000000E+00  0.64829568953E+02  0.64829568953E+02  0.00000000000E+00 0. -1.
         21   -1    0    0  502  503 -0.00000000000E+00 -0.00000000000E+00 -0.62048081776E+03  0.62048081776E+03  0.00000000000E+00 0. -1.
         -6    2    1    2    0  503  0.10016538210E+03 -0.34728593820E+02 -0.22633034510E+03  0.30022733454E+03  0.16634857467E+03 0.  0.
        -24    2    3    3    0    0  0.37743586533E+01 -0.37166890262E+02 -0.16254807286E+03  0.18452321645E+03  0.78938697136E+02 0.  0.
          6    2    1    2  501    0 -0.10016538210E+03  0.34728593820E+02 -0.32932090371E+03  0.38508305218E+03  0.16910801416E+03 0.  0.
         24    2    5    5    0    0 -0.90998637298E+02  0.47429208724E+02 -0.12551990848E+03  0.18062701660E+03  0.79627820945E+02 0.  0.
          5    1    5    5  501    0 -0.91667447994E+01 -0.12700614905E+02 -0.20380099523E+03  0.20445603558E+03  0.47000000000E+01 0. -1.
        -11    1    6    6    0    0 -0.42008436195E+02  0.58082095770E+02 -0.41617890890E+02  0.82887196856E+02  0.00000000000E+00 0.  1.
         12    1    6    6    0    0 -0.48990201103E+02 -0.10652887045E+02 -0.83902017595E+02  0.97739819741E+02  0.00000000000E+00 0. -1.
         -5    1    3    3    0  503  0.96391023444E+02  0.24382964423E+01 -0.63782272242E+02  0.11570411809E+03  0.47000000000E+01 0.  1.
         11    1    4    4    0    0 -0.16034419329E+02  0.16968362571E+02 -0.19930671665E+02  0.30696247402E+02  0.00000000000E+00 0. -1.
        -12    1    4    4    0    0  0.19808777982E+02 -0.54135252833E+02 -0.14261740119E+03  0.15382696905E+03  0.00000000000E+00 0.  1.
</event>
<event>
12    1  0.1039610E+000  0.2817286E+03  0.7818608E-02  0.1094792E+00
         21   -1    0    0  501  502  0.00000000000E+00  0.00000000000E+00  0.32049309758E+03  0.32049309758E+03  0.00000000000E+00 0.  1.
         21   -1    0    0  502  503 -0.00000000000E+00 -0.00000000000E+00 -0.27704510373E+03  0.27704510373E+03  0.00000000000E+00 0.  1.
         -6    2    1    2    0  503  0.84546208627E+02  0.20656575508E+03  0.11951942236E+03  0.30603252851E+03  0.17191144122E+03 0.  0.
        -24    2    3    3    0    0 -0.56439916380E+01  0.91939255720E+02  0.10219547065E+03  0.15907771953E+03  0.79856904809E+02 0.  0.
          6    2    1    2  501    0 -0.84546208627E+02 -0.20656575508E+03 -0.76071428511E+02  0.29150567279E+03  0.17138034446E+03 0.  0.
         24    2    5    5    0    0 -0.17515300846E+02 -0.89226477258E+02 -0.96463872130E+02  0.15475922686E+03  0.79856055899E+02 0.  0.
          5    1    5    5  501    0 -0.67030907781E+02 -0.11733927782E+03  0.20392443620E+02  0.13674644593E+03  0.47000000000E+01 0. -1.
        -13    1    6    6    0    0 -0.39463282713E+02 -0.89233592247E+02 -0.87476417145E+02  0.13104239094E+03  0.00000000000E+00 0.  1.
         14    1    6    6    0    0  0.21947981867E+02  0.71149888722E-02 -0.89874549853E+01  0.23716835914E+02  0.00000000000E+00 0. -1.
         -5    1    3    3    0  503  0.90190200265E+02  0.11462649936E+03  0.17323951706E+02  0.14695480898E+03  0.47000000000E+01 0.  1.
         11    1    4    4    0    0  0.71970591651E+01  0.44392862022E+02 -0.72737205726E+00  0.44978360677E+02  0.00000000000E+00 0. -1.
        -12    1    4    4    0    0 -0.12841050803E+02  0.47546393698E+02  0.10292284271E+03  0.11409935886E+03  0.00000000000E+00 0.  1.
</event>
<event>
12    1  0.1039610E+000  0.2223394E+03  0.7818608E-02  0.1132241E+00
         21   -1    0    0  501  502  0.00000000000E+00  0.00000000000E+00  0.10563770248E+04  0.10563770248E+04  0.00000000000E+00 0. -1.
         21   -1    0    0  502  503 -0.00000000000E+00 -0.00000000000E+00 -0.47694947917E+02  0.47694947917E+02  0.00000000000E+00 0.  1.
         -6    2    1    2    0  503  0.46975642472E+02  0.13186860394E+03  0.42490099704E+03  0.47955776223E+03  0.17273896589E+03 0.  0.
        -24    2    3    3    0    0  0.95937033854E+02  0.12157838469E+03  0.29550218559E+03  0.34074404222E+03  0.69280174157E+02 0.  0.
          6    2    1    2  501    0 -0.46975642472E+02 -0.13186860394E+03  0.58378107982E+03  0.62451421046E+03  0.17210929733E+03 0.  0.
         24    2    5    5    0    0  0.26267571923E+02 -0.10735504112E+03  0.28475491673E+03  0.31563847585E+03  0.79543665064E+02 0.  0.
          5    1    5    5  501    0 -0.73243214395E+02 -0.24513562817E+02  0.29902616309E+03  0.30887573461E+03  0.47000000000E+01 0. -1.
        -11    1    6    6    0    0  0.27655102671E+02 -0.53288149062E+02  0.23360851214E+03  0.24119985174E+03  0.00000000000E+00 0.  1.
         12    1    6    6    0    0 -0.13875307487E+01 -0.54066892057E+02  0.51146404585E+02  0.74438624115E+02  0.00000000000E+00 0. -1.
         -5    1    3    3    0  503 -0.48961391382E+02  0.10290219249E+02  0.12939881145E+03  0.13881372001E+03  0.47000000000E+01 0.  1.
         13    1    4    4    0    0  0.30138327524E+02  0.75692030874E+02  0.97183717989E+02  0.12681591921E+03  0.00000000000E+00 0. -1.
        -14    1    4    4    0    0  0.65798706330E+02  0.45886353812E+02  0.19831846760E+03  0.21392812300E+03  0.00000000000E+00 0.  1.
</event>
<event>
12    1  0.1039610E+000  0.3663818E+03  0.7818608E-02  0.1056089E+00
         21   -1    0    0  503  502  0.00000000000E+00  0.00000000000E+00  0.10505169914E+04  0.10505169914E+04  0.00000000000E+00 0.  1.
         21   -1    0    0  501  503 -0.00000000000E+00 -0.00000000000E+00 -0.18089529337E+03  0.18089529337E+03  0.00000000000E+00 0.  1.
          6    2    1    2  501    0 -0.12732395702E+03 -0.29736379818E+03  0.76851088230E+03  0.85137804838E+03  0.17204356000E+03 0.  0.
         24    2    3    3    0    0 -0.44525593107E+02 -0.93046032711E+02  0.40710200628E+03  0.42801085075E+03  0.82590266988E+02 0.  0.
         -6    2    1    2    0  502  0.12732395702E+03  0.29736379818E+03  0.10111081570E+03  0.38003423636E+03  0.17194768173E+03 0.  0.
        -24    2    5    5    0    0  0.97395338977E+02  0.23203192204E+03  0.10904397881E+02  0.26460779210E+03  0.81078436386E+02 0.  0.
          5    1    3    3  501    0 -0.82798363917E+02 -0.20431776547E+03  0.36140887602E+03  0.42336719762E+03  0.47000000000E+01 0. -1.
        -11    1    4    4    0    0  0.20477327003E+02 -0.49842794941E+02  0.17810183237E+03  0.18607495216E+03  0.00000000000E+00 0.  1.
         12    1    4    4    0    0 -0.65002920109E+02 -0.43203237770E+02  0.22900017392E+03  0.24193589860E+03  0.00000000000E+00 0. -1.
         -5    1    5    5    0  502  0.29928618047E+02  0.65331876146E+02  0.90206417821E+02  0.11542644426E+03  0.47000000000E+01 0.  1.
         13    1    6    6    0    0  0.78725174816E+02  0.91036839630E+02  0.20372363613E+02  0.12206716397E+03  0.00000000000E+00 0. -1.
        -14    1    6    6    0    0  0.18670164161E+02  0.14099508241E+03 -0.94679657320E+01  0.14254062813E+03  0.00000000000E+00 0.  1.
</event>
<event>
12    1  0.1039610E+000  0.1838360E+03  0.7818608E-02  0.1164966E+00
         21   -1    0    0  503  502  0.00000000000E+00  0.00000000000E+00  0.82631391875E+03  0.82631391875E+03  0.00000000000E+00 0. -1.
         21   -1    0    0  501  503 -0.00000000000E+00 -0.00000000000E+00 -0.41736524391E+02  0.41736524391E+02  0.00000000000E+00 0. -1.
          6    2    1    2  501    0  0.10693711846E+02 -0.74948460710E+02  0.31075974759E+03  0.36106413650E+03  0.16752331990E+03 0.  0.
         24    2    3    3    0    0  0.13267946599E+02 -0.80426417485E+02  0.10393583273E+03  0.15409830248E+03  0.79367389185E+02 0.  0.
         -6    2    1    2    0  502 -0.10693711846E+02  0.74948460710E+02  0.47381764677E+03  0.50698630664E+03  0.16370804956E+03 0.  0.
        -24    2    5    5    0    0  0.25899316120E+02 -0.10770496050E+02  0.26253883156E+03  0.27601527599E+03  0.80442627631E+02 0.  0.
          5    1    3    3  501    0 -0.25742347529E+01  0.54779567742E+01  0.20682391486E+03  0.20696583402E+03  0.47000000000E+01 0. -1.
        -11    1    4    4    0    0  0.10576122043E+02  0.12461844116E+02  0.25062350025E+01  0.16535813561E+02  0.00000000000E+00 0.  1.
         12    1    4    4    0    0  0.26918245560E+01 -0.92888261601E+02  0.10142959773E+03  0.13756248892E+03  0.00000000000E+00 0. -1.
         -5    1    5    5    0  502 -0.36593027967E+02  0.85718956761E+02  0.21127881521E+03  0.23097103065E+03  0.47000000000E+01 0.  1.
         13    1    6    6    0    0 -0.74668815902E+01 -0.19093699649E+02  0.22161454379E+03  0.22256084495E+03  0.00000000000E+00 0. -1.
        -14    1    6    6    0    0  0.33366197710E+02  0.83232035984E+01  0.40924287779E+02  0.53454431042E+02  0.00000000000E+00 0.  1.
</event>
<event>
12    1  0.1039610E+000  0.2325127E+03  0.7818608E-02  0.1125268E+00
         21   -1    0    0  503  502  0.00000000000E+00  0.00000000000E+00  0.10071891242E+04  0.10071891242E+04  0.00000000000E+00 0.  1.
         21   -1    0    0  501  503 -0.00000000000E+00 -0.00000000000E+00 -0.64292920764E+02  0.64292920764E+02  0.00000000000E+00 0.  1.
          6    2    1    2  501    0 -0.13534579713E+03 -0.75148587996E+02  0.25045888048E+03  0.34174814574E+03  0.17348299406E+03 0.  0.
         24    2    3    3    0    0 -0.35404580769E+02 -0.61030914984E+01  0.34411926296E+02  0.93849166867E+02  0.79578598787E+02 0.  0.
         -6    2    1    2    0  502  0.13534579713E+03  0.75148587996E+02  0.69243732299E+03  0.72973389926E+03  0.17051780663E+03 0.  0.
        -24    2    5    5    0    0  0.14315169382E+03  0.63670169456E+02  0.44310560104E+03  0.47997184513E+03  0.97386346667E+02 0.  0.
          5    1    3    3  501    0 -0.99941216361E+02 -0.69045496498E+02  0.21604695418E+03  0.24789897887E+03  0.47000000000E+01 0. -1.
        -11    1    4    4    0    0  0.24786137612E+02 -0.10591414083E+02  0.10475165005E+02  0.28918156094E+02  0.00000000000E+00 0.  1.
         12    1    4    4    0    0 -0.60190718381E+02  0.44883225845E+01  0.23936761291E+02  0.64931010773E+02  0.00000000000E+00 0. -1.
         -5    1    5    5    0  502 -0.78058966854E+01  0.11478418540E+02  0.24933172195E+03  0.24976205414E+03  0.47000000000E+01 0.  1.
         13    1    6    6    0    0  0.18466579068E+02  0.13487140965E+02  0.74434123436E+01  0.24048324291E+02  0.00000000000E+00 0. -1.
        -14    1    6    6    0    0  0.12468511475E+03  0.50183028491E+02  0.43566218870E+03  0.45592352084E+03  0.00000000000E+00 0.  1.
</event>
<event>
12    1  0.1039610E+000  0.3134079E+03  0.7818608E-02  0.1078798E+00
         21   -1    0    0  501  502  0.00000000000E+00  0.00000000000E+00  0.83624215506E+03  0.83624215506E+03  0.00000000000E+00 0.  1.
         21   -1    0    0  502  503 -0.00000000000E+00 -0.00000000000E+00 -0.17201109295E+03  0.17201109295E+03  0.00000000000E+00 0.  1.
         -6    2    1    2    0  503  0.24720371678E+03  0.84353347179E+02  0.61685609317E+03  0.69190749082E+03  0.17320326615E+03 0.  0.
        -24    2    3    3    0    0  0.25716574179E+03  0.94005014629E+02  0.61435081075E+03  0.67704939314E+03  0.77445468238E+02 0.  0.
          6    2    1    2  501    0 -0.24720371678E+03 -0.84353347179E+02  0.47374968934E+02  0.31634575718E+03  0.17206128454E+03 0.  0.
         24    2    5    5    0    0 -0.11487574840E+03 -0.17715459123E+02 -0.23729004337E+02  0.15194026958E+03  0.94934213064E+02 0.  0.
          5    1    5    5  501    0 -0.13232796838E+03 -0.66637888056E+02  0.71103973271E+02  0.16440548760E+03  0.47000000000E+01 0. -1.
        -11    1    6    6    0    0 -0.36793654251E+02 -0.36752396115E+02  0.25262315406E+02  0.57816054803E+02  0.00000000000E+00 0.  1.
         12    1    6    6    0    0 -0.78082094153E+02  0.19036936992E+02 -0.48991319742E+02  0.94124214778E+02  0.00000000000E+00 0. -1.
         -5    1    3    3    0  503 -0.99620250105E+01 -0.96516674505E+01  0.25052824211E+01  0.14858097688E+02  0.47000000000E+01 0.  1.
         13    1    4    4    0    0  0.22565480451E+02  0.95449232934E+01  0.12997733786E+03  0.13226645390E+03  0.00000000000E+00 0. -1.
        -14    1    4    4    0    0  0.23460026134E+03  0.84460091336E+02  0.48437347289E+03  0.54478293924E+03  0.00000000000E+00 0.  1.
</event>
<event>
12    1  0.1039610E+000  0.2069666E+03  0.7818608E-02  0.1146798E+00
         21   -1    0    0  503  502  0.00000000000E+00  0.00000000000E+00  0.10919937300E+04  0.10919937300E+04  0.00000000000E+00 0.  1.
         21   -1    0    0  501  503 -0.00000000000E+00 -0.00000000000E+00 -0.50726440482E+02  0.50726440482E+02  0.00000000000E+00 0.  1.
          6    2    1    2  501    0 -0.71089563371E+02 -0.57909247412E+02  0.23319472582E+03  0.31179313136E+03  0.18554775572E+03 0.  0.
         24    2    3    3    0    0 -0.10843351926E+03 -0.22862334554E+01  0.18634199650E+03  0.22990443270E+03  0.79810109322E+02 0.  0.
         -6    2    1    2    0  502  0.71089563371E+02  0.57909247412E+02  0.80807256374E+03  0.83092703917E+03  0.17044432874E+03 0.  0.
        -24    2    5    5    0    0  0.12688062559E+02  0.82224716582E+02  0.35358131556E+03  0.37203014224E+03  0.80403912066E+02 0.  0.
          5    1    3    3  501    0  0.37343955891E+02 -0.55623013957E+02  0.46852729321E+02  0.81888698659E+02  0.47000000000E+01 0. -1.
        -13    1    4    4    0    0 -0.36282177509E+01  0.18438820229E+02  0.50233049864E+01  0.19452188783E+02  0.00000000000E+00 0.  1.
         14    1    4    4    0    0 -0.10480530151E+03 -0.20725053684E+02  0.18131869152E+03  0.21045224391E+03  0.00000000000E+00 0. -1.
         -5    1    5    5    0  502  0.58401500812E+02 -0.24315469170E+02  0.45449124818E+03  0.45889689693E+03  0.47000000000E+01 0.  1.
         13    1    6    6    0    0 -0.17637724553E+02  0.68016283309E+02  0.30523123669E+03  0.31321464202E+03  0.00000000000E+00 0. -1.
        -14    1    6    6    0    0  0.30325787112E+02  0.14208433272E+02  0.48350078867E+02  0.58815500223E+02  0.00000000000E+00 0.  1.
</event>
<event>
12    1  0.1039610E+000  0.2154729E+03  0.7818608E-02  0.1137660E+00
         21   -1    0    0  501  502  0.00000000000E+00  0.00000000000E+00  0.40249159975E+03  0.40249159975E+03  0.00000000000E+00 0.  1.
         21   -1    0    0  502  503 -0.00000000000E+00 -0.00000000000E+00 -0.11444186792E+03  0.11444186792E+03  0.00000000000E+00 0.  1.
         -6    2    1    2    0  503  0.10475719008E+03 -0.73036841364E+02  0.13665865007E+03  0.25359371027E+03  0.17124758153E+03 0.  0.
        -24    2    3    3    0    0  0.13883469392E+03 -0.43746709887E+02  0.12632632609E+03  0.20724681190E+03  0.76184339049E+02 0.  0.
          6    2    1    2  501    0 -0.10475719008E+03  0.73036841364E+02  0.15139108176E+03  0.26333975740E+03  0.17355148838E+03 0.  0.
         24    2    5    5    0    0  0.12171197181E+02  0.20034362532E+02  0.86385024380E+02  0.11936271754E+03  0.78965639221E+02 0.  0.
          5    1    5    5  501    0 -0.11692838727E+03  0.53002478832E+02  0.65006057381E+02  0.14397703986E+03  0.47000000000E+01 0. -1.
        -13    1    6    6    0    0  0.40927225176E+02  0.13492883498E+02  0.21649935284E+02  0.48226707990E+02  0.00000000000E+00 0.  1.
         14    1    6    6    0    0 -0.28756027995E+02  0.65414790340E+01  0.64735089095E+02  0.71136009546E+02  0.00000000000E+00 0. -1.
         -5    1    3    3    0  503 -0.34077503838E+02 -0.29290131477E+02  0.10332323974E+02  0.46346898370E+02  0.47000000000E+01 0.  1.
         13    1    4    4    0    0  0.90747263350E+02 -0.45219812912E+02  0.12245470035E+03  0.15898129111E+03  0.00000000000E+00 0. -1.
        -14    1    4    4    0    0  0.48087430573E+02  0.14731030251E+01  0.38716257484E+01  0.48265520794E+02  0.00000000000E+00 0.  1.
</event>
<event>
12    1  0.1039610E+000  0.3284147E+03  0.7818608E-02  0.1071937E+00
         21   -1    0    0  503  502  0.00000000000E+00  0.00000000000E+00  0.77307219444E+03  0.77307219444E+03  0.00000000000E+00 0. -1.
         21   -1    0    0  501  503 -0.00000000000E+00 -0.00000000000E+00 -0.18620847921E+03  0.18620847921E+03  0.00000000000E+00 0. -1.
          6    2    1    2  501    0  0.17302931592E+03  0.21874487382E+03  0.53484411752E+03  0.62762606365E+03  0.17340063940E+03 0.  0.
         24    2    3    3    0    0  0.19997455347E+03  0.18937579339E+03  0.48276039317E+03  0.56187354999E+03  0.82409197342E+02 0.  0.
         -6    2    1    2    0  502 -0.17302931592E+03 -0.21874487382E+03  0.52019597718E+02  0.33165461000E+03  0.17175644906E+03 0.  0.
        -24    2    5    5    0    0 -0.16072546447E+03 -0.24082096286E+03  0.39927840672E+02  0.30324617715E+03  0.80849244994E+02 0.  0.
          5    1    3    3  501    0 -0.26945237543E+02  0.29369080432E+02  0.52083724344E+02  0.65752513664E+02  0.47000000000E+01 0. -1.
        -11    1    4    4    0    0  0.15527177157E+03  0.94299707091E+02  0.28592667492E+03  0.33875628589E+03  0.00000000000E+00 0.  1.
         12    1    4    4    0    0  0.44702781895E+02  0.95076086297E+02  0.19683371826E+03  0.22311726410E+03  0.00000000000E+00 0. -1.
         -5    1    5    5    0  502 -0.12303851459E+02  0.22076089043E+02  0.12091757046E+02  0.28408432844E+02  0.47000000000E+01 0.  1.
         13    1    6    6    0    0 -0.13393665513E+03 -0.16449059641E+03  0.58915818986E+02  0.22015280517E+03  0.00000000000E+00 0. -1.
        -14    1    6    6    0    0 -0.26788809337E+02 -0.76330366451E+02 -0.18987978314E+02  0.83093371990E+02  0.00000000000E+00 0.  1.
</event>
<event>
12    1  0.1039610E+000  0.5293575E+03  0.7818608E-02  0.1006390E+00
         21   -1    0    0  501  502  0.00000000000E+00  0.00000000000E+00  0.80610938125E+03  0.80610938125E+03  0.00000000000E+00 0.  1.
         21   -1    0    0  502  503 -0.00000000000E+00 -0.00000000000E+00 -0.34778600330E+03  0.34778600330E+03  0.00000000000E+00 0.  1.
         -6    2    1    2    0  503 -0.45874133722E+02  0.49737189085E+03  0.24257797204E+03  0.58226134104E+03  0.17521690217E+03 0.  0.
        -24    2    3    3    0    0 -0.83948496272E+02  0.46222001190E+03  0.22799615439E+03  0.52822402909E+03  0.79647279078E+02 0.  0.
          6    2    1    2  501    0  0.45874133722E+02 -0.49737189085E+03  0.21574540591E+03  0.57163404350E+03  0.17531732822E+03 0.  0.
         24    2    5    5    0    0 -0.43938788806E+02 -0.26079127573E+03  0.11635197048E+03  0.29971881129E+03  0.79692397066E+02 0.  0.
          5    1    5    5  501    0  0.89812922528E+02 -0.23658061512E+03  0.99393435424E+02  0.27191523221E+03  0.47000000000E+01 0. -1.
        -11    1    6    6    0    0 -0.14050756063E+02 -0.19021651129E+03  0.47194512505E+02  0.19648681107E+03  0.00000000000E+00 0.  1.
         12    1    6    6    0    0 -0.29888032743E+02 -0.70574764443E+02  0.69157457976E+02  0.10323200023E+03  0.00000000000E+00 0. -1.
         -5    1    3    3    0  503  0.38074362550E+02  0.35151878944E+02  0.14581817645E+02  0.54037311950E+02  0.47000000000E+01 0.  1.
         11    1    4    4    0    0 -0.21344852981E+00  0.19443658386E+03  0.73005748611E+02  0.20769080392E+03  0.00000000000E+00 0. -1.
        -12    1    4    4    0    0 -0.83735047742E+02  0.26778342804E+03  0.15499040578E+03  0.32053322517E+03  0.00000000000E+00 0.  1.
</event>
<event>
12    1  0.1039610E+000  0.1982400E+03  0.7818608E-02  0.1151241E+00
         21   -1    0    0  501  502  0.00000000000E+00  0.00000000000E+00  0.70906502111E+02  0.70906502111E+02  0.00000000000E+00 0.  1.
         21   -1    0    0  502  503 -0.00000000000E+00 -0.00000000000E+00 -0.55533442010E+03  0.55533442010E+03  0.00000000000E+00 0.  1.
         -6    2    1    2    0  503 -0.30601401547E+02 -0.92249128650E+02 -0.22758892682E+03  0.30179467107E+03  0.17273377309E+03 0.  0.
        -24    2    3    3    0    0  0.88085173527E+01 -0.65963932930E+02 -0.23170058919E+03  0.25401340917E+03  0.80055097174E+02 0.  0.
          6    2    1    2  501    0  0.30601401547E+02  0.92249128650E+02 -0.25683899117E+03  0.32444625114E+03  0.17277949814E+03 0.  0.
         24    2    5    5    0    0  0.48366487272E+02  0.74705608960E+02 -0.77926064964E+02  0.14373848008E+03  0.81658030561E+02 0.  0.
          5    1    5    5  501    0 -0.17765085725E+02  0.17543519690E+02 -0.17891292621E+03  0.18070777105E+03  0.47000000000E+01 0. -1.
        -13    1    6    6    0    0 -0.22543075380E+02  0.10443480316E+02 -0.12477749122E+02  0.27801991868E+02  0.00000000000E+00 0.  1.
         14    1    6    6    0    0  0.70909562652E+02  0.64262128645E+02 -0.65448315842E+02  0.11593648822E+03  0.00000000000E+00 0. -1.
         -5    1    3    3    0  503 -0.39409918900E+02 -0.26285195720E+02  0.41116623690E+01  0.47781261905E+02  0.47000000000E+01 0.  1.
         13    1    4    4    0    0 -0.10144105248E+02 -0.11974348011E+02 -0.35593538239E+00  0.15697597637E+02  0.00000000000E+00 0. -1.
        -14    1    4    4    0    0  0.18952622601E+02 -0.53989584919E+02 -0.23134465380E+03  0.23831581153E+03  0.00000000000E+00 0.  1.
</event>
<event>
12    1  0.1039610E+000  0.2551587E+03  0.7818608E-02  0.1110277E+00
         21   -1    0    0  501  502  0.00000000000E+00  0.00000000000E+00  0.62184671358E+03  0.62184671358E+03  0.00000000000E+00 0. -1.
         21   -1    0    0  502  503 -0.00000000000E+00 -0.00000000000E+00 -0.17120517328E+03  0.17120517328E+03  0.00000000000E+00 0. -1.
         -6    2    1    2    0  503 -0.18614622368E+03 -0.19505615194E+02 -0.22424622051E+02  0.25614221135E+03  0.17342169168E+03 0.  0.
        -24    2    3    3    0    0 -0.14900001944E+03  0.95731392701E+01 -0.72042973871E+02  0.18751652164E+03  0.87633355612E+02 0.  0.
          6    2    1    2  501    0  0.18614622368E+03  0.19505615194E+02  0.47306616235E+03  0.53690967551E+03  0.17160862472E+03 0.  0.
         24    2    5    5    0    0  0.19044563984E+03  0.36847774089E+02  0.31585926038E+03  0.37862090306E+03  0.77197251764E+02 0.  0.
          5    1    5    5  501    0 -0.42994161601E+01 -0.17342158895E+02  0.15720690198E+03  0.15828877245E+03  0.47000000000E+01 0. -1.
        -11    1    6    6    0    0  0.10543043599E+03  0.19697903630E+02  0.10270751150E+03  0.14850056282E+03  0.00000000000E+00 0.  1.
         12    1    6    6    0    0  0.85015203854E+02  0.17149870460E+02  0.21315174887E+03  0.23012034024E+03  0.00000000000E+00 0. -1.
         -5    1    3    3    0  503 -0.37146204245E+02 -0.29078754464E+02  0.49618351820E+02  0.68625689711E+02  0.47000000000E+01 0.  1.
         11    1    4    4    0    0  0.10310723472E+02 -0.60659307504E+01  0.30821638666E-01  0.11962754045E+02  0.00000000000E+00 0. -1.
        -12    1    4    4    0    0 -0.15931074291E+03  0.15639070021E+02 -0.72073795510E+02  0.17555376759E+03  0.00000000000E+00 0.  1.
</event>
<event>
12    1  0.1039610E+000  0.3176903E+03  0.7818608E-02  0.1076771E+00
         21   -1    0    0  503  502  0.00000000000E+00  0.00000000000E+00  0.31234922420E+03  0.31234922420E+03  0.00000000000E+00 0.  1.
         21   -1    0    0  501  503 -0.00000000000E+00 -0.00000000000E+00 -0.32313558978E+03  0.32313558978E+03  0.00000000000E+00 0.  1.
          6    2    1    2  501    0  0.26107800197E+03 -0.53640423073E+02  0.68874801083E+01  0.31776498362E+03  0.17288183631E+03 0.  0.
         24    2    3    3    0    0  0.94288913255E+02  0.59942587760E+01 -0.45555776498E+02  0.13297515554E+03  0.81735750554E+02 0.  0.
         -6    2    1    2    0  502 -0.26107800197E+03  0.53640423073E+02 -0.17673845696E+02  0.31771983036E+03  0.17203054288E+03 0.  0.
        -24    2    5    5    0    0 -0.19206551556E+03  0.54638802337E+02  0.49531130806E+02  0.22127130052E+03  0.81443812088E+02 0.  0.
          5    1    3    3  501    0  0.16678908872E+03 -0.59634681849E+02  0.52443256606E+02  0.18478982807E+03  0.47000000000E+01 0. -1.
        -13    1    4    4    0    0  0.39291428056E+02  0.27399508618E+02  0.13211013270E+02  0.49689840640E+02  0.00000000000E+00 0.  1.
         14    1    4    4    0    0  0.54997485199E+02 -0.21405249842E+02 -0.58766789768E+02  0.83285314904E+02  0.00000000000E+00 0. -1.
         -5    1    5    5    0  502 -0.69012486419E+02 -0.99837926453E+00 -0.67204976502E+02  0.96448529847E+02  0.47000000000E+01 0.  1.
         13    1    6    6    0    0 -0.14771868456E+03  0.20439441271E+02  0.41393450104E+01  0.14918349340E+03  0.00000000000E+00 0. -1.
        -14    1    6    6    0    0 -0.44346830999E+02  0.34199361067E+02  0.45391785795E+02  0.72087807115E+02  0.00000000000E+00 0.  1.
</event>
<event>
12    1  0.1039610E+000  0.2526122E+03  0.7818608E-02  0.1111840E+00
         21   -1    0    0  501  502  0.00000000000E+00  0.00000000000E+00  0.37046728959E+02  0.37046728959E+02  0.00000000000E+00 0.  1.
         21   -1    0    0  502  503 -0.00000000000E+00 -0.00000000000E+00 -0.20753517953E+04  0.20753517953E+04  0.00000000000E+00 0.  1.
         -6    2    1    2    0  503 -0.12747160012E+03  0.13130698450E+03 -0.14612180800E+04  0.14828928489E+04  0.17413325705E+03 0.  0.
        -24    2    3    3    0    0  0.15725364825E+01  0.27289748526E+02 -0.59370045659E+03  0.59967096774E+03  0.79861343259E+02 0.  0.
          6    2    1    2  501    0  0.12747160012E+03 -0.13130698450E+03 -0.57708698634E+03  0.62950567528E+03  0.17250354312E+03 0.  0.
         24    2    5    5    0    0  0.13012734088E+03 -0.11517127207E+03 -0.58125625281E+03  0.61198748595E+03  0.80450635620E+02 0.  0.
          5    1    5    5  501    0 -0.26557407618E+01 -0.16135712432E+02  0.41692664667E+01  0.17518189334E+02  0.47000000000E+01 0. -1.
        -11    1    6    6    0    0  0.11031685186E+03 -0.46123732883E+02 -0.37210643325E+03  0.39084575500E+03  0.00000000000E+00 0.  1.
         12    1    6    6    0    0  0.19810489026E+02 -0.69047539187E+02 -0.20914981956E+03  0.22114173095E+03  0.00000000000E+00 0. -1.
         -5    1    3    3    0  503 -0.12904413660E+03  0.10401723598E+03 -0.86751762336E+03  0.88322188119E+03  0.47000000000E+01 0.  1.
         13    1    4    4    0    0 -0.17792373499E+02  0.50674956186E+02 -0.35278663649E+03  0.35685141253E+03  0.00000000000E+00 0. -1.
        -14    1    4    4    0    0  0.19364909982E+02 -0.23385207660E+02 -0.24091382011E+03  0.24281955522E+03  0.00000000000E+00 0.  1.
</event>
<event>
12    1  0.1039610E+000  0.4053415E+03  0.7818608E-02  0.1041994E+00
         21   -1    0    0  503  502  0.00000000000E+00  0.00000000000E+00  0.16151453004E+03  0.16151453004E+03  0.00000000000E+00 0. -1.
         21   -1    0    0  501  503 -0.00000000000E+00 -0.00000000000E+00 -0.10200727859E+04  0.10200727859E+04  0.00000000000E+00 0. -1.
          6    2    1    2  501    0  0.36517045857E+03  0.30605105613E+02 -0.46773015989E+03  0.61892908808E+03  0.17325004272E+03 0.  0.
         24    2    3    3    0    0  0.30636673037E+03  0.33638907373E+01 -0.28865644551E+03  0.42843119461E+03  0.79742433725E+02 0.  0.
         -6    2    1    2    0  502 -0.36517045857E+03 -0.30605105613E+02 -0.39082809593E+03  0.56265822782E+03  0.17190562661E+03 0.  0.
        -24    2    5    5    0    0 -0.10621173040E+03  0.36401751277E+02 -0.14815834374E+03  0.20146542557E+03  0.77662112449E+02 0.  0.
          5    1    3    3  501    0  0.58803728194E+02  0.27241214875E+02 -0.17907371437E+03  0.19049789347E+03  0.47000000000E+01 0. -1.
        -13    1    4    4    0    0  0.19067535948E+03 -0.36644230440E+02 -0.17899695022E+03  0.26408294251E+03  0.00000000000E+00 0.  1.
         14    1    4    4    0    0  0.11569137089E+03  0.40008121177E+02 -0.10965949529E+03  0.16434825210E+03  0.00000000000E+00 0. -1.
         -5    1    5    5    0  502 -0.25895872817E+03 -0.67006856890E+02 -0.24266975219E+03  0.36119280224E+03  0.47000000000E+01 0.  1.
         13    1    6    6    0    0 -0.99292184850E+02  0.56315221745E+02 -0.11400958578E+03  0.16133359174E+03  0.00000000000E+00 0. -1.
        -14    1    6    6    0    0 -0.69195455462E+01 -0.19913470468E+02 -0.34148757961E+02  0.40131833834E+02  0.00000000000E+00 0.  1.
</event>
<event>
12    1  0.1039610E+000  0.3329393E+03  0.7818608E-02  0.1070227E+00
         21   -1    0    0  503  502  0.00000000000E+00  0.00000000000E+00  0.16437148056E+04  0.16437148056E+04  0.00000000000E+00 0. -1.
         21   -1    0    0  501  503 -0.00000000000E+00 -0.00000000000E+00 -0.67445142856E+02  0.67445142856E+02  0.00000000000E+00 0.  1.
          6    2    1    2  501    0  0.40380242297E+02 -0.28216789863E+03  0.70436237087E+03  0.77908596215E+03  0.17204447078E+03 0.  0.
         24    2    3    3    0    0  0.61924583680E+02 -0.13009381044E+03  0.47588998096E+03  0.50374542772E+03  0.80803022191E+02 0.  0.
         -6    2    1    2    0  502 -0.40380242297E+02  0.28216789863E+03  0.87190729188E+03  0.93207398632E+03  0.16519777044E+03 0.  0.
        -24    2    5    5    0    0 -0.18150744358E+02  0.24441647740E+03  0.83778872612E+03  0.87634709054E+03  0.77623511560E+02 0.  0.
          5    1    3    3  501    0 -0.21544341383E+02 -0.15207408819E+03  0.22847238992E+03  0.27534053442E+03  0.47000000000E+01 0. -1.
        -13    1    4    4    0    0  0.75869247287E+01  0.87078488911E+01  0.78019008047E+02  0.78869218810E+02  0.00000000000E+00 0.  1.
         14    1    4    4    0    0  0.54337658951E+02 -0.13880165933E+03  0.39787097291E+03  0.42487620891E+03  0.00000000000E+00 0. -1.
         -5    1    5    5    0  502 -0.22229497940E+02  0.37751421223E+02  0.34118565758E+02  0.55726895772E+02  0.47000000000E+01 0.  1.
         13    1    6    6    0    0 -0.99101383562E+01  0.20899828117E+03  0.59209541361E+03  0.62797728557E+03  0.00000000000E+00 0. -1.
        -14    1    6    6    0    0 -0.82406060015E+01  0.35418196236E+02  0.24569331250E+03  0.24836980497E+03  0.00000000000E+00 0.  1.
</event>
<event>
12    1  0.1039610E+000  0.3911165E+03  0.7818608E-02  0.1047085E+00
         21   -1    0    0  501  502  0.00000000000E+00  0.00000000000E+00  0.19341207756E+04  0.19341207756E+04  0.00000000000E+00 0. -1.
         21   -1    0    0  502  503 -0.00000000000E+00 -0.00000000000E+00 -0.84666929535E+02  0.84666929535E+02  0.00000000000E+00 0. -1.
         -6    2    1    2    0  503  0.26738606644E+03  0.22456070860E+03  0.65843620263E+03  0.76583962887E+03  0.17620806974E+03 0.  0.
        -24    2    3    3    0    0  0.14055127264E+03  0.53566690513E+02  0.36502302615E+03  0.40329390586E+03  0.82341449537E+02 0.  0.
          6    2    1    2  501    0 -0.26738606644E+03 -0.22456070860E+03  0.11910176434E+04  0.12529480762E+04  0.17156058542E+03 0.  0.
         24    2    5    5    0    0 -0.19056188123E+03 -0.23176109194E+03  0.91061200588E+03  0.96208176243E+03  0.79749971957E+02 0.  0.
          5    1    5    5  501    0 -0.76824185206E+02  0.72003833414E+01  0.28040563753E+03  0.29086631381E+03  0.47000000000E+01 0. -1.
        -11    1    6    6    0    0 -0.80128792525E+02 -0.12621420468E+03  0.56048427165E+03  0.58008039755E+03  0.00000000000E+00 0.  1.
         12    1    6    6    0    0 -0.11043308871E+03 -0.10554688726E+03  0.35012773424E+03  0.38200136488E+03  0.00000000000E+00 0. -1.
         -5    1    3    3    0  503  0.12683479380E+03  0.17099401809E+03  0.29341317648E+03  0.36254572301E+03  0.47000000000E+01 0.  1.
         13    1    4    4    0    0  0.25828888511E+02  0.30777105736E+02  0.35453929240E+02  0.53584912221E+02  0.00000000000E+00 0. -1.
        -14    1    4    4    0    0  0.11472238413E+03  0.22789584777E+02  0.32956909691E+03  0.34970899364E+03  0.00000000000E+00 0.  1.
</event>
<event>
12    1  0.1039610E+000  0.2127413E+03  0.7818608E-02  0.1141585E+00
         21   -1    0    0  501  502  0.00000000000E+00  0.00000000000E+00  0.53229962859E+02  0.53229962859E+02  0.00000000000E+00 0.  1.
         21   -1    0    0  502  503 -0.00000000000E+00 -0.00000000000E+00 -0.92009481984E+03  0.92009481984E+03  0.00000000000E+00 0.  1.
         -6    2    1    2    0  503  0.81784861414E+02  0.68469194082E+02 -0.25324678517E+03  0.32387425292E+03  0.17141704527E+03 0.  0.
        -24    2    3    3    0    0  0.98461680030E+02 -0.43981211257E+01 -0.16506286535E+03  0.20817526580E+03  0.79857033947E+02 0.  0.
          6    2    1    2  501    0 -0.81784861414E+02 -0.68469194082E+02 -0.61361807181E+03  0.64945052978E+03  0.18407079748E+03 0.  0.
         24    2    5    5    0    0 -0.12312297584E+03 -0.59153453409E+02 -0.55385755909E+03  0.57604050588E+03  0.80037931134E+02 0.  0.
          5    1    5    5  501    0  0.41338114428E+02 -0.93157406722E+01 -0.59760512719E+02  0.73410023902E+02  0.47000000000E+01 0. -1.
        -13    1    6    6    0    0 -0.28684729547E+02  0.19041778925E+02 -0.93591884001E+02  0.99723837695E+02  0.00000000000E+00 0.  1.
         14    1    6    6    0    0 -0.94438246295E+02 -0.78195232335E+02 -0.46026567509E+03  0.47631666818E+03  0.00000000000E+00 0. -1.
         -5    1    3    3    0  503 -0.16676818616E+02  0.72867315207E+02 -0.88183919817E+02  0.11569898711E+03  0.47000000000E+01 0.  1.
         13    1    4    4    0    0  0.71500982755E+02 -0.95277265268E+01 -0.16570392836E+03  0.18072343506E+03  0.00000000000E+00 0. -1.
        -14    1    4    4    0    0  0.26960697274E+02  0.51296054011E+01  0.64106301002E+00  0.27451830738E+02  0.00000000000E+00 0.  1.
</event>
<event>
12    1  0.1039610E+000  0.2518622E+03  0.7818608E-02  0.1112332E+00
         21   -1    0    0  503  502  0.00000000000E+00  0.00000000000E+00  0.27600981230E+03  0.27600981230E+03  0.00000000000E+00 0.  1.
         21   -1    0    0  501  503 -0.00000000000E+00 -0.00000000000E+00 -0.29177511081E+03  0.29177511081E+03  0.00000000000E+00 0.  1.
          6    2    1    2  501    0  0.10325863626E+03 -0.15112222309E+03 -0.13988670436E+03  0.28699908987E+03  0.17117218014E+03 0.  0.
         24    2    3    3    0    0  0.10239630293E+03 -0.41108469525E+02 -0.10343800904E+03  0.17100612895E+03  0.79804544382E+02 0.  0.
         -6    2    1    2    0  502 -0.10325863626E+03  0.15112222309E+03  0.12412140585E+03  0.28078583324E+03  0.17301528395E+03 0.  0.
        -24    2    5    5    0    0 -0.35139943962E+02  0.26365232645E+02  0.57260509732E+01  0.95734453984E+02  0.84866700571E+02 0.  0.
          5    1    3    3  501    0  0.86233333881E+00 -0.11001375356E+03 -0.36448695322E+02  0.11599296092E+03  0.47000000000E+01 0. -1.
        -11    1    4    4    0    0  0.44683645831E+00 -0.83294705316E+01 -0.51163655093E+02  0.51839168055E+02  0.00000000000E+00 0.  1.
         12    1    4    4    0    0  0.10194946647E+03 -0.32778998994E+02 -0.52274353948E+02  0.11916696089E+03  0.00000000000E+00 0. -1.
         -5    1    5    5    0  502 -0.68118692302E+02  0.12475699044E+03  0.11839535488E+03  0.18505137925E+03  0.47000000000E+01 0.  1.
         13    1    6    6    0    0 -0.22694959611E+02  0.56996361630E+02  0.10777556762E+02  0.62288057929E+02  0.00000000000E+00 0. -1.
        -14    1    6    6    0    0 -0.12444984351E+02 -0.30631128985E+02 -0.50515057884E+01  0.33446396056E+02  0.00000000000E+00 0.  1.
</event>
<event>
12    1  0.1039610E+000  0.2021057E+03  0.7818608E-02  0.1148891E+00
         21   -1    0    0  501  502  0.00000000000E+00  0.00000000000E+00  0.19417218611E+03  0.19417218611E+03  0.00000000000E+00 0.  1.
         21   -1    0    0  502  503 -0.00000000000E+00 -0.00000000000E+00 -0.20727092071E+03  0.20727092071E+03  0.00000000000E+00 0.  1.
         -6    2    1    2    0  503 -0.79504089248E+02  0.59844712211E+02  0.10100792839E+02  0.19801018949E+03  0.17089095745E+03 0.  0.
        -24    2    3    3    0    0 -0.25282993088E+02  0.13092005794E+02 -0.55898072966E+02  0.10052335390E+03  0.78547563691E+02 0.  0.
          6    2    1    2  501    0  0.79504089248E+02 -0.59844712211E+02 -0.23199527432E+02  0.20343291733E+03  0.17591032942E+03 0.  0.
         24    2    5    5    0    0  0.68001863464E+02 -0.99484260554E+01 -0.75801037009E+02  0.12987376168E+03  0.79988575103E+02 0.  0.
          5    1    5    5  501    0  0.11502225784E+02 -0.49896286156E+02  0.52601509576E+02  0.73559155649E+02  0.47000000000E+01 0. -1.
        -13    1    6    6    0    0  0.44288115654E+02 -0.33552086039E+02 -0.10565031326E+02  0.56557930944E+02  0.00000000000E+00 0.  1.
         14    1    6    6    0    0  0.23713747810E+02  0.23603659983E+02 -0.65236005683E+02  0.73315830741E+02  0.00000000000E+00 0. -1.
         -5    1    3    3    0  503 -0.54221096159E+02  0.46752706418E+02  0.65998865806E+02  0.97486835592E+02  0.47000000000E+01 0.  1.
         11    1    4    4    0    0  0.38107113519E+01 -0.26780798978E+02 -0.40715464435E+02  0.48882325631E+02  0.00000000000E+00 0. -1.
        -12    1    4    4    0    0 -0.29093704440E+02  0.39872804771E+02 -0.15182608531E+02  0.51641028264E+02  0.00000000000E+00 0.  1.
</event>
<event>
12    1  0.1039610E+000  0.1970847E+03  0.7818608E-02  0.1153561E+00
         21   -1    0    0  503  502  0.00000000000E+00  0.00000000000E+00  0.18415272404E+03  0.18415272404E+03  0.00000000000E+00 0.  1.
         21   -1    0    0  501  503 -0.00000000000E+00 -0.00000000000E+00 -0.66239814652E+03  0.66239814652E+03  0.00000000000E+00 0.  1.
          6    2    1    2  501    0  0.88435176175E+00  0.88348735676E+02  0.11165243544E+03  0.22651412609E+03  0.17617066103E+03 0.  0.
         24    2    3    3    0    0  0.69230886492E+02  0.49687848009E+02  0.53545055967E+02  0.12871601469E+03  0.80243015493E+02 0.  0.
         -6    2    1    2    0  502 -0.88435176175E+00 -0.88348735676E+02 -0.58989785792E+03  0.62003674447E+03  0.16929205693E+03 0.  0.
        -24    2    5    5    0    0 -0.12452802253E+01 -0.10016929709E+03 -0.26210943427E+03  0.29200138567E+03  0.80796131711E+02 0.  0.
          5    1    3    3  501    0 -0.68346534730E+02  0.38660887667E+02  0.58107379470E+02  0.97798111401E+02  0.47000000000E+01 0. -1.
        -13    1    4    4    0    0  0.10977262363E+02  0.36452117132E+02 -0.12111927978E+02  0.39949417164E+02  0.00000000000E+00 0.  1.
         14    1    4    4    0    0  0.58253624129E+02  0.13235730877E+02  0.65656983945E+02  0.88766597528E+02  0.00000000000E+00 0. -1.
         -5    1    5    5    0  502  0.36092846351E+00  0.11820561411E+02 -0.32778842365E+03  0.32803535880E+03  0.47000000000E+01 0.  1.
         11    1    6    6    0    0  0.31720246615E+02 -0.26171315543E+02 -0.48735979277E+02  0.63767605245E+02  0.00000000000E+00 0. -1.
        -12    1    6    6    0    0 -0.32965526841E+02 -0.73997981544E+02 -0.21337345499E+03  0.22823378042E+03  0.00000000000E+00 0.  1.
</event>
<event>
12    1  0.1039610E+000  0.2075407E+03  0.7818608E-02  0.1143625E+00
         21   -1    0    0  503  502  0.00000000000E+00  0.00000000000E+00  0.65544027898E+03  0.65544027898E+03  0.00000000000E+00 0. -1.
         21   -1    0    0  501  503 -0.00000000000E+00 -0.00000000000E+00 -0.99927631463E+02  0.99927631463E+02  0.00000000000E+00 0. -1.
          6    2    1    2  501    0  0.10085440548E+03 -0.54828343204E+02  0.49902451315E+03  0.54027715627E+03  0.17232580349E+03 0.  0.
         24    2    3    3    0    0  0.65982571482E+02 -0.10190395805E+03  0.39391881809E+03  0.41985516721E+03  0.79801063747E+02 0.  0.
         -6    2    1    2    0  502 -0.10085440548E+03  0.54828343204E+02  0.56488134374E+02  0.21509075417E+03  0.17290276135E+03 0.  0.
        -24    2    5    5    0    0 -0.76551134392E+02  0.56360497019E+02  0.10338397280E+03  0.16204071984E+03  0.80823061400E+02 0.  0.
          5    1    3    3  501    0  0.34871833996E+02  0.47075614844E+02  0.10510569505E+03  0.12042198907E+03  0.47000000000E+01 0. -1.
        -11    1    4    4    0    0  0.16800631298E+02  0.96018187888E+01  0.96768161352E+02  0.98684006746E+02  0.00000000000E+00 0.  1.
         12    1    4    4    0    0  0.49181940184E+02 -0.11150577684E+03  0.29715065674E+03  0.32117116046E+03  0.00000000000E+00 0. -1.
         -5    1    5    5    0  502 -0.24303271086E+02 -0.15321538148E+01 -0.46895838424E+02  0.53050034329E+02  0.47000000000E+01 0.  1.
         13    1    6    6    0    0  0.64331469803E+01  0.23837704489E+02 -0.10879158776E+01  0.24714471395E+02  0.00000000000E+00 0. -1.
        -14    1    6    6    0    0 -0.82984281372E+02  0.32522792530E+02  0.10447188868E+03  0.13732624845E+03  0.00000000000E+00 0.  1.
</event>
<event>
12    1  0.1039610E+000  0.2103527E+03  0.7818608E-02  0.1141458E+00
         21   -1    0    0  503  502  0.00000000000E+00  0.00000000000E+00  0.13438464131E+03  0.13438464131E+03  0.00000000000E+00 0.  1.
         21   -1    0    0  501  503 -0.00000000000E+00 -0.00000000000E+00 -0.40950035458E+03  0.40950035458E+03  0.00000000000E+00 0.  1.
          6    2    1    2  501    0 -0.11695362243E+03  0.25703284657E+02 -0.25916555004E+03  0.33378893620E+03  0.17294352534E+03 0.  0.
         24    2    3    3    0    0 -0.38140210155E+02  0.25361437540E+02 -0.23332914985E+03  0.25071499089E+03  0.79483560207E+02 0.  0.
         -6    2    1    2    0  502  0.11695362243E+03 -0.25703284657E+02 -0.15950163226E+02  0.21009605970E+03  0.17189280948E+03 0.  0.
        -24    2    5    5    0    0  0.13420690064E+03 -0.66309223597E+01  0.28431476822E+02  0.15858634618E+03  0.79283157166E+02 0.  0.
          5    1    3    3  501    0 -0.78813412273E+02  0.34184711739E+00 -0.25836400191E+02  0.83073945304E+02  0.47000000000E+01 0. -1.
        -11    1    4    4    0    0  0.13344138675E+02 -0.14082021007E+02 -0.10663062613E+03  0.10838108590E+03  0.00000000000E+00 0.  1.
         12    1    4    4    0    0 -0.51484348830E+02  0.39443458547E+02 -0.12669852373E+03  0.14233390499E+03  0.00000000000E+00 0. -1.
         -5    1    5    5    0  502 -0.17253278215E+02 -0.19072362298E+02 -0.44381640048E+02  0.51509713512E+02  0.47000000000E+01 0.  1.
         13    1    6    6    0    0  0.11908854963E+03 -0.28323448767E+02  0.38298426101E+01  0.12247027434E+03  0.00000000000E+00 0. -1.
        -14    1    6    6    0    0  0.15118351010E+02  0.21692526407E+02  0.24601634212E+02  0.36116071839E+02  0.00000000000E+00 0.  1.
</event>
<event>
12    1  0.1039610E+000  0.2217214E+03  0.7818608E-02  0.1132632E+00
         21   -1    0    0  501  502  0.00000000000E+00  0.00000000000E+00  0.35655016564E+03  0.35655016564E+03  0.00000000000E+00 0. -1.
         21   -1    0    0  502  503 -0.00000000000E+00 -0.00000000000E+00 -0.22041430618E+03  0.22041430618E+03  0.00000000000E+00 0. -1.
         -6    2    1    2    0  503  0.63571844759E+02 -0.12491821645E+03  0.24467877400E+03  0.33010028818E+03  0.17161747452E+03 0.  0.
        -24    2    3    3    0    0  0.28566141911E+02 -0.85042932929E+02  0.82577092049E+02  0.15947062264E+03  0.10277927053E+03 0.  0.
          6    2    1    2  501    0 -0.63571844759E+02  0.12491821645E+03 -0.10854291454E+03  0.24686418365E+03  0.17179761530E+03 0.  0.
         24    2    5    5    0    0 -0.55800072648E+01  0.11102335229E+03 -0.12414988493E+03  0.18504357227E+03  0.80440092458E+02 0.  0.
          5    1    5    5  501    0 -0.57991837494E+02  0.13894864162E+02  0.15606970394E+02  0.61820611376E+02  0.47000000000E+01 0. -1.
        -13    1    6    6    0    0 -0.40670038570E+02  0.79720627981E+02 -0.72339121560E+02  0.11507553637E+03  0.00000000000E+00 0.  1.
         14    1    6    6    0    0  0.35090031306E+02  0.31302724308E+02 -0.51810763373E+02  0.69968035898E+02  0.00000000000E+00 0. -1.
         -5    1    3    3    0  503  0.35005702848E+02 -0.39875283522E+02  0.16210168196E+03  0.17062966554E+03  0.47000000000E+01 0.  1.
         11    1    4    4    0    0 -0.29960213437E+02 -0.24285376584E+02  0.61374082369E+02  0.72485666801E+02  0.00000000000E+00 0. -1.
        -12    1    4    4    0    0  0.58526355348E+02 -0.60757556345E+02  0.21203009680E+02  0.86984955842E+02  0.00000000000E+00 0.  1.
</event>
<event>
12    1  0.1039610E+000  0.1920174E+03  0.7818608E-02  0.1158136E+00
         21   -1    0    0  501  502  0.00000000000E+00  0.00000000000E+00  0.34597989673E+02  0.34597989673E+02  0.00000000000E+00 0. -1.
         21   -1    0    0  502  503 -0.00000000000E+00 -0.00000000000E+00 -0.11528276551E+04  0.11528276551E+04  0.00000000000E+00 0. -1.
         -6    2    1    2    0  503  0.59413858778E+02  0.35725814340E+02 -0.35646875875E+03  0.40183646223E+03  0.17203553699E+03 0.  0.
        -24    2    3    3    0    0 -0.33381896162E+01  0.19657043563E+02 -0.74513867016E+02  0.11249812059E+03  0.81889974273E+02 0.  0.
          6    2    1    2  501    0 -0.59413858778E+02 -0.35725814340E+02 -0.76176090670E+03  0.78558918257E+03  0.17906519585E+03 0.  0.
         24    2    5    5    0    0 -0.70752444275E+02  0.23930828300E+01 -0.25974840193E+03  0.28198193601E+03  0.83862653860E+02 0.  0.
          5    1    5    5  501    0  0.11338585497E+02 -0.38118897170E+02 -0.50201250477E+03  0.50360724656E+03  0.47000000000E+01 0. -1.
        -11    1    6    6    0    0 -0.16970673748E+02  0.36372227365E+02 -0.14850190068E+03  0.15383028700E+03  0.00000000000E+00 0.  1.
         12    1    6    6    0    0 -0.53781770527E+02 -0.33979144535E+02 -0.11124650125E+03  0.12815164901E+03  0.00000000000E+00 0. -1.
         -5    1    3    3    0  503  0.62752048395E+02  0.16068770776E+02 -0.28195489173E+03  0.28933834164E+03  0.47000000000E+01 0.  1.
         13    1    4    4    0    0  0.27980420594E+02 -0.13260510107E+02 -0.54857185927E+02  0.62992506799E+02  0.00000000000E+00 0. -1.
        -14    1    4    4    0    0 -0.31318610211E+02  0.32917553670E+02 -0.19656681089E+02  0.49505613789E+02  0.00000000000E+00 0.  1.
</event>
<event>
12    1  0.1039610E+000  0.2750401E+03  0.7818608E-02  0.1098796E+00
         21   -1    0    0  501  502  0.00000000000E+00  0.00000000000E+00  0.63108495021E+03  0.63108495021E+03  0.00000000000E+00 0. -1.
         21   -1    0    0  502  503 -0.00000000000E+00 -0.00000000000E+00 -0.12495668140E+03  0.12495668140E+03  0.00000000000E+00 0.  1.
         -6    2    1    2    0  503 -0.11502240917E+03  0.18186759723E+03  0.16985276040E+03  0.32325996846E+03  0.17129235085E+03 0.  0.
        -24    2    3    3    0    0 -0.90183465677E+01  0.30079829779E+02  0.85839535599E+02  0.11989650178E+03  0.77592644844E+02 0.  0.
          6    2    1    2  501    0  0.11502240917E+03 -0.18186759723E+03  0.33627550842E+03  0.43278166315E+03  0.16707116106E+03 0.  0.
         24    2    5    5    0    0  0.10481976417E+03 -0.18410541314E+03  0.34881316132E+03  0.41579977499E+03  0.79604304303E+02 0.  0.
          5    1    5    5  501    0  0.10202645002E+02  0.22378159071E+01 -0.12537652901E+02  0.16981888156E+02  0.47000000000E+01 0. -1.
        -13    1    6    6    0    0  0.79000827866E+02 -0.63653029055E+02  0.13266003894E+03  0.16700755924E+03  0.00000000000E+00 0.  1.
         14    1    6    6    0    0  0.25818936303E+02 -0.12045238409E+03  0.21615312238E+03  0.24879221575E+03  0.00000000000E+00 0. -1.
         -5    1    3    3    0  503 -0.10600406260E+03  0.15178776746E+03  0.84013224796E+02  0.20336346667E+03  0.47000000000E+01 0.  1.
         13    1    4    4    0    0 -0.27741201636E+02  0.48692511949E+02  0.48175856675E+02  0.73901611312E+02  0.00000000000E+00 0. -1.
        -14    1    4    4    0    0  0.18722855068E+02 -0.18612682170E+02  0.37663678924E+02  0.45994890473E+02  0.00000000000E+00 0.  1.
</event>
<event>
12    1  0.1039610E+000  0.2104569E+03  0.7818608E-02  0.1141318E+00
         21   -1    0    0  501  502  0.00000000000E+00  0.00000000000E+00  0.40971450172E+02  0.40971450172E+02  0.00000000000E+00 0.  1.
         21   -1    0    0  502  503 -0.00000000000E+00 -0.00000000000E+00 -0.10911414454E+04  0.10911414454E+04  0.00000000000E+00 0.  1.
         -6    2    1    2    0  503 -0.26892910176E+02 -0.11551883644E+03 -0.46252056121E+03  0.50791423534E+03  0.17315822456E+03 0.  0.
        -24    2    3    3    0    0 -0.52586283363E+02 -0.12729944725E+03 -0.44608360413E+03  0.47488098278E+03  0.86895911668E+02 0.  0.
          6    2    1    2  501    0  0.26892910176E+02  0.11551883644E+03 -0.58764943404E+03  0.62419866025E+03  0.17385131560E+03 0.  0.
         24    2    5    5    0    0 -0.50820720460E+02  0.44969910695E+02 -0.26101181476E+03  0.28107946283E+03  0.79205167016E+02 0.  0.
          5    1    5    5  501    0  0.77713630636E+02  0.70548925748E+02 -0.32663761928E+03  0.34311919742E+03  0.47000000000E+01 0. -1.
        -11    1    6    6    0    0 -0.36261456683E+02  0.69508974461E+01 -0.22076941516E+03  0.22383552642E+03  0.00000000000E+00 0.  1.
         12    1    6    6    0    0 -0.14559263777E+02  0.38019013249E+02 -0.40242399604E+02  0.57243936413E+02  0.00000000000E+00 0. -1.
         -5    1    3    3    0  503  0.25693373187E+02  0.11780610810E+02 -0.16436957074E+02  0.33033252559E+02  0.47000000000E+01 0.  1.
         11    1    4    4    0    0 -0.26425901734E+02 -0.26327685571E+02 -0.25012497675E+03  0.25289124007E+03  0.00000000000E+00 0. -1.
        -12    1    4    4    0    0 -0.26160381629E+02 -0.10097176168E+03 -0.19595862738E+03  0.22198974271E+03  0.00000000000E+00 0.  1.
</event>
<event>
12    1  0.1039610E+000  0.3120899E+03  0.7818608E-02  0.1079457E+00
         21   -1    0    0  503  502  0.00000000000E+00  0.00000000000E+00  0.33286777911E+03  0.33286777911E+03  0.00000000000E+00 0. -1.
         21   -1    0    0  501  503 -0.00000000000E+00 -0.00000000000E+00 -0.29660599535E+03  0.29660599535E+03  0.00000000000E+00 0. -1.
          6    2    1    2  501    0  0.17276536096E+03 -0.19360128873E+03  0.58357252641E+02  0.31660272196E+03  0.17176258518E+03 0.  0.
         24    2    3    3    0    0  0.17229476137E+03 -0.19590352190E+03  0.16074066672E+02  0.27399427729E+03  0.82163335362E+02 0.  0.
         -6    2    1    2    0  502 -0.17276536096E+03  0.19360128873E+03 -0.22095468888E+02  0.31287105251E+03  0.17340921777E+03 0.  0.
        -24    2    5    5    0    0 -0.10038941793E+03  0.13802969798E+03 -0.79835558534E+02  0.20478549945E+03  0.80206930002E+02 0.  0.
          5    1    3    3  501    0  0.47059959597E+00  0.23022331766E+01  0.42283185968E+02  0.42608444670E+02  0.47000000000E+01 0. -1.
        -13    1    4    4    0    0  0.11805153105E+03 -0.15663201626E+03  0.44698936511E+02  0.20116596985E+03  0.00000000000E+00 0.  1.
         14    1    4    4    0    0  0.54243230313E+02 -0.39271505642E+02 -0.28624869838E+02  0.72828307432E+02  0.00000000000E+00 0. -1.
         -5    1    5    5    0  502 -0.72375943032E+02  0.55571590747E+02  0.57740089646E+02  0.10808555306E+03  0.47000000000E+01 0.  1.
         11    1    6    6    0    0 -0.38809528789E+02  0.25049986699E+02 -0.58206905188E+02  0.74308311581E+02  0.00000000000E+00 0. -1.
        -12    1    6    6    0    0 -0.61579889140E+02  0.11297971128E+03 -0.21628653346E+02  0.13047718786E+03  0.00000000000E+00 0.  1.
</event>
<event>
12    1  0.1039610E+000  0.1962309E+03  0.7818608E-02  0.1153293E+00
         21   -1    0    0  503  502  0.00000000000E+00  0.00000000000E+00  0.95725875437E+03  0.95725875437E+03  0.00000000000E+00 0.  1.
         21   -1    0    0  501  503 -0.00000000000E+00 -0.00000000000E+00 -0.67376683102E+02  0.67376683102E+02  0.00000000000E+00 0.  1.
          6    2    1    2  501    0  0.37000472697E+01  0.94610598019E+02  0.77100254237E+03  0.79520371283E+03  0.17011516379E+03 0.  0.
         24    2    3    3    0    0  0.27565158798E+02  0.84055214998E+02  0.28991209684E+03  0.31338313789E+03  0.79591771370E+02 0.  0.
         -6    2    1    2    0  502 -0.37000472697E+01 -0.94610598019E+02  0.11887952890E+03  0.22943172464E+03  0.17187704406E+03 0.  0.
        -24    2    5    5    0    0 -0.26923015465E+02 -0.60307666671E+02  0.14654876145E+03  0.17939500032E+03  0.79650255712E+02 0.  0.
          5    1    3    3  501    0 -0.23865111529E+02  0.10555383021E+02  0.48109044553E+03  0.48182057494E+03  0.47000000000E+01 0. -1.
        -13    1    4    4    0    0  0.54722536415E+02  0.43968503070E+02  0.15913657605E+03  0.17393169663E+03  0.00000000000E+00 0.  1.
         14    1    4    4    0    0 -0.27157377616E+02  0.40086711928E+02  0.13077552079E+03  0.13945144126E+03  0.00000000000E+00 0. -1.
         -5    1    5    5    0  502  0.23222968195E+02 -0.34302931348E+02 -0.27669232554E+02  0.50036724324E+02  0.47000000000E+01 0.  1.
         11    1    6    6    0    0 -0.20442522048E+02 -0.37118973434E+02  0.13927617694E+02  0.44605979768E+02  0.00000000000E+00 0. -1.
        -12    1    6    6    0    0 -0.64804934167E+01 -0.23188693238E+02  0.13262114376E+03  0.13478902055E+03  0.00000000000E+00 0.  1.
</event>
<event>
12    1  0.1039610E+000  0.1742412E+03  0.7818608E-02  0.1174081E+00
         21   -1    0    0  503  502  0.00000000000E+00  0.00000000000E+00  0.47115652251E+03  0.47115652251E+03  0.00000000000E+00 0.  1.
         21   -1    0    0  501  503 -0.00000000000E+00 -0.00000000000E+00 -0.63606881062E+02  0.63606881062E+02  0.00000000000E+00 0.  1.
          6    2    1    2  501    0  0.23203170130E+02 -0.85375183316E+01  0.20054169544E+03  0.26566328655E+03  0.17247821278E+03 0.  0.
         24    2    3    3    0    0 -0.95964956708E+01  0.26533741732E+01  0.21346509044E+03  0.22837846001E+03  0.80562044644E+02 0.  0.
         -6    2    1    2    0  502 -0.23203170130E+02  0.85375183316E+01  0.20700794601E+03  0.26910011703E+03  0.17015083588E+03 0.  0.
        -24    2    5    5    0    0  0.28323914320E+02  0.48595965707E+02  0.13916727897E+03  0.17484426447E+03  0.89661436945E+02 0.  0.
          5    1    3    3  501    0  0.32799665800E+02 -0.11190892505E+02 -0.12923394996E+02  0.37284826537E+02  0.47000000000E+01 0. -1.
        -13    1    4    4    0    0  0.19852722356E+01 -0.22884797217E+01 -0.69616752790E+01  0.75923229631E+01  0.00000000000E+00 0.  1.
         14    1    4    4    0    0 -0.11581767906E+02  0.49418538949E+01  0.22042676572E+03  0.22078613705E+03  0.00000000000E+00 0. -1.
         -5    1    5    5    0  502 -0.51527084449E+02 -0.40058447375E+02  0.67840667039E+02  0.94255852562E+02  0.47000000000E+01 0.  1.
         11    1    6    6    0    0  0.16951263677E+01  0.23904798006E+02 -0.64089361481E+01  0.24807000698E+02  0.00000000000E+00 0. -1.
        -12    1    6    6    0    0  0.26628787952E+02  0.24691167701E+02  0.14557621512E+03  0.15003726377E+03  0.00000000000E+00 0.  1.
</event>
<event>
12    1  0.1039610E+000  0.1815303E+03  0.7818608E-02  0.1166707E+00
         21   -1    0    0  501  502  0.00000000000E+00  0.00000000000E+00  0.96334383190E+02  0.96334383190E+02  0.00000000000E+00 0.  1.
         21   -1    0    0  502  503 -0.00000000000E+00 -0.00000000000E+00 -0.36317213815E+03  0.36317213815E+03  0.00000000000E+00 0.  1.
         -6    2    1    2    0  503  0.44942224421E+02  0.23071532956E+02 -0.73762346470E+02  0.19449453055E+03  0.17272851382E+03 0.  0.
        -24    2    3    3    0    0  0.67936584856E+02  0.59120890849E+02 -0.89538164656E+02  0.14867681284E+03  0.77311399225E+02 0.  0.
          6    2    1    2  501    0 -0.44942224421E+02 -0.23071532956E+02 -0.19307540849E+03  0.26501199079E+03  0.17435923472E+03 0.  0.
         24    2    5    5    0    0 -0.91281503013E+02 -0.42609997653E+02 -0.11744227872E+03  0.17406398003E+03  0.79734908416E+02 0.  0.
          5    1    5    5  501    0  0.46339278592E+02  0.19538464697E+02 -0.75633129763E+02  0.90948010758E+02  0.47000000000E+01 0. -1.
        -13    1    6    6    0    0 -0.32322326921E+02  0.11498071689E+02 -0.30261068844E+01  0.34439741477E+02  0.00000000000E+00 0.  1.
         14    1    6    6    0    0 -0.58959176092E+02 -0.54108069342E+02 -0.11441617184E+03  0.13962423855E+03  0.00000000000E+00 0. -1.
         -5    1    3    3    0  503 -0.22994360434E+02 -0.36049357893E+02  0.15775818186E+02  0.45817717705E+02  0.47000000000E+01 0.  1.
         11    1    4    4    0    0  0.67136579818E+02  0.89691963027E+01 -0.42829099137E+02  0.80137997010E+02  0.00000000000E+00 0. -1.
        -12    1    4    4    0    0  0.80000503780E+00  0.50151694546E+02 -0.46709065519E+02  0.68538815831E+02  0.00000000000E+00 0.  1.
</event>
<event>
12    1  0.1039610E+000  0.1742992E+03  0.7818608E-02  0.1173475E+00
         21   -1    0    0  501  502  0.00000000000E+00  0.00000000000E+00  0.17002188245E+03  0.17002188245E+03  0.00000000000E+00 0. -1.
         21   -1    0    0  502  503 -0.00000000000E+00 -0.00000000000E+00 -0.18060168124E+03  0.18060168124E+03  0.00000000000E+00 0. -1.
         -6    2    1    2    0  503  0.26819400973E+02  0.11347600067E+02 -0.24057183458E+02  0.17595156898E+03  0.17184923117E+03 0.  0.
        -24    2    3    3    0    0 -0.15012288872E+01  0.47354829413E+00 -0.79818022806E+02  0.11229888418E+03  0.78978760984E+02 0.  0.
          6    2    1    2  501    0 -0.26819400973E+02 -0.11347600067E+02  0.13477384671E+02  0.17467199470E+03  0.17169920658E+03 0.  0.
         24    2    5    5    0    0 -0.42257555140E+02 -0.68358391379E+02 -0.39860424228E+01  0.11290122317E+03  0.79197392766E+02 0.  0.
          5    1    5    5  501    0  0.15438154167E+02  0.57010791312E+02  0.17463427094E+02  0.61770771534E+02  0.47000000000E+01 0. -1.
        -11    1    6    6    0    0 -0.60322955321E+02 -0.65500671447E+02  0.10372903496E+02  0.89648167999E+02  0.00000000000E+00 0.  1.
         12    1    6    6    0    0  0.18065400181E+02 -0.28577199313E+01 -0.14358945919E+02  0.23253055171E+02  0.00000000000E+00 0. -1.
         -5    1    3    3    0  503  0.28320629860E+02  0.10874051773E+02  0.55760839348E+02  0.63652684802E+02  0.47000000000E+01 0.  1.
         13    1    4    4    0    0  0.70370871400E+00 -0.19807705826E+02  0.85652065261E+01  0.21591738672E+02  0.00000000000E+00 0. -1.
        -14    1    4    4    0    0 -0.22049376012E+01  0.20281254120E+02 -0.88383229333E+02  0.90707145506E+02  0.00000000000E+00 0.  1.
</event>
<event>
12    1  0.1039610E+000  0.1900768E+03  0.7818608E-02  0.1159174E+00
         21   -1    0    0  503  502  0.00000000000E+00  0.00000000000E+00  0.71714822080E+03  0.71714822080E+03  0.00000000000E+00 0.  1.
         21   -1    0    0  501  503 -0.00000000000E+00 -0.00000000000E+00 -0.49503419370E+02  0.49503419370E+02  0.00000000000E+00 0.  1.
          6    2    1    2  501    0 -0.36526446167E+02 -0.73136275976E+02  0.32719918384E+03  0.37840255107E+03  0.17159862649E+03 0.  0.
         24    2    3    3    0    0 -0.35978918974E+01 -0.11726871047E+03  0.19980411852E+03  0.23953731377E+03  0.60758074600E+02 0.  0.
         -6    2    1    2    0  502  0.36526446167E+02  0.73136275976E+02  0.34044561759E+03  0.38824908910E+03  0.16778271819E+03 0.  0.
        -24    2    5    5    0    0  0.73807079958E+02  0.90064100394E+02  0.22218066625E+03  0.26300897727E+03  0.79059764994E+02 0.  0.
          5    1    3    3  501    0 -0.32928554269E+02  0.44132434496E+02  0.12739506533E+03  0.13886523730E+03  0.47000000000E+01 0. -1.
        -11    1    4    4    0    0 -0.53635804449E+01 -0.11218002287E+03  0.20389101940E+03  0.23277601535E+03  0.00000000000E+00 0.  1.
         12    1    4    4    0    0  0.17656885475E+01 -0.50886875995E+01 -0.40869008850E+01  0.67612984238E+01  0.00000000000E+00 0. -1.
         -5    1    5    5    0  502 -0.37280633792E+02 -0.16927824418E+02  0.11826495134E+03  0.12524011183E+03  0.47000000000E+01 0.  1.
         11    1    6    6    0    0  0.20815325069E+02  0.84919164312E+02  0.13398071599E+03  0.15998554460E+03  0.00000000000E+00 0. -1.
        -12    1    6    6    0    0  0.52991754890E+02  0.51449360812E+01  0.88199950261E+02  0.10302343267E+03  0.00000000000E+00 0.  1.
</event>
<event>
12    1  0.1039610E+000  0.5668967E+03  0.7818608E-02  0.9976881E-01
         21   -1    0    0  501  502  0.00000000000E+00  0.00000000000E+00  0.27370986067E+03  0.27370986067E+03  0.00000000000E+00 0. -1.
         21   -1    0    0  502  503 -0.00000000000E+00 -0.00000000000E+00 -0.11953071685E+04  0.11953071685E+04  0.00000000000E+00 0. -1.
         -6    2    1    2    0  503  0.34978017441E+03  0.41182800649E+03 -0.56097148665E+03  0.79713696109E+03  0.16967571586E+03 0.  0.
        -24    2    3    3    0    0  0.26728718862E+03  0.39021123539E+03 -0.49478095780E+03  0.68908302267E+03  0.79498216993E+02 0.  0.
          6    2    1    2  501    0 -0.34978017441E+03 -0.41182800649E+03 -0.36062582121E+03  0.67188006812E+03  0.17153240413E+03 0.  0.
         24    2    5    5    0    0 -0.18120261623E+03 -0.21283365445E+03 -0.26413852474E+03  0.39376312572E+03  0.84543990517E+02 0.  0.
          5    1    5    5  501    0 -0.16857755818E+03 -0.19899435204E+03 -0.96487296472E+02  0.27811694239E+03  0.47000000000E+01 0. -1.
        -13    1    6    6    0    0 -0.12217215289E+03 -0.19453833853E+03 -0.21736966682E+03  0.31626060797E+03  0.00000000000E+00 0.  1.
         14    1    6    6    0    0 -0.59030463342E+02 -0.18295315917E+02 -0.46768857917E+02  0.77502517751E+02  0.00000000000E+00 0. -1.
         -5    1    3    3    0  503  0.82492985796E+02  0.21616771104E+02 -0.66190528852E+02  0.10805393842E+03  0.47000000000E+01 0.  1.
         13    1    4    4    0    0  0.13638112862E+03  0.26237688304E+03 -0.28450916571E+03  0.41034973665E+03  0.00000000000E+00 0. -1.
        -14    1    4    4    0    0  0.13090606000E+03  0.12783435235E+03 -0.21027179209E+03  0.27873328602E+03  0.00000000000E+00 0.  1.
</event>
<event>
12    1  0.1039610E+000  0.4774624E+03  0.7818608E-02  0.1019936E+00
         21   -1    0    0  503  502  0.00000000000E+00  0.00000000000E+00  0.36584215328E+03  0.36584215328E+03  0.00000000000E+00 0. -1.
         21   -1    0    0  501  503 -0.00000000000E+00 -0.00000000000E+00 -0.10046630433E+04  0.10046630433E+04  0.00000000000E+00 0. -1.
          6    2    1    2  501    0 -0.16320189367E+03 -0.41266988229E+03  0.10422501515E+03  0.48727951952E+03  0.17218358375E+03 0.  0.
         24    2    3    3    0    0 -0.89774317718E+02 -0.10384270724E+03  0.36095309786E+02  0.16258030530E+03  0.79289017618E+02 0.  0.
         -6    2    1    2    0  502  0.16320189367E+03  0.41266988229E+03 -0.74304590517E+03  0.88322567707E+03  0.17617914063E+03 0.  0.
        -24    2    5    5    0    0  0.18170388282E+03  0.33085033135E+03 -0.54101704728E+03  0.66442322749E+03  0.79249839126E+02 0.  0.
          5    1    3    3  501    0 -0.73427575951E+02 -0.30882717505E+03  0.68129705368E+02  0.32469921422E+03  0.47000000000E+01 0. -1.
        -11    1    4    4    0    0 -0.67026547098E+02 -0.11492178700E+03  0.27452643270E+02  0.13584263972E+03  0.00000000000E+00 0.  1.
         12    1    4    4    0    0 -0.22747770620E+02  0.11079079758E+02  0.86426665153E+01  0.26737665585E+02  0.00000000000E+00 0. -1.
         -5    1    5    5    0  502 -0.18501989147E+02  0.81819550942E+02 -0.20202885789E+03  0.21880244958E+03  0.47000000000E+01 0.  1.
         13    1    6    6    0    0  0.17554932309E+02  0.18859238785E+02 -0.11336192415E+02  0.28148815151E+02  0.00000000000E+00 0. -1.
        -14    1    6    6    0    0  0.16414895051E+03  0.31199109256E+03 -0.52968085486E+03  0.63627441234E+03  0.00000000000E+00 0.  1.
</event>
<event>
12    1  0.1039610E+000  0.2596218E+03  0.7818608E-02  0.1107471E+00
         21   -1    0    0  503  502  0.00000000000E+00  0.00000000000E+00  0.12963061731E+03  0.12963061731E+03  0.00000000000E+00 0.  1.
         21   -1    0    0  501  503 -0.00000000000E+00 -0.00000000000E+00 -0.56248400536E+03  0.56248400536E+03  0.00000000000E+00 0.  1.
          6    2    1    2  501    0  0.16081562016E+03  0.10778367636E+03 -0.31279642845E+03  0.40607766675E+03  0.17198395626E+03 0.  0.
         24    2    3    3    0    0  0.23690533072E+02  0.86621155418E+02 -0.13963319103E+03  0.18413456910E+03  0.79647006088E+02 0.  0.
         -6    2    1    2    0  502 -0.16081562016E+03 -0.10778367636E+03 -0.12005695959E+03  0.28603695592E+03  0.17298694178E+03 0.  0.
        -24    2    5    5    0    0 -0.16847485902E+03 -0.87088079413E+02 -0.14557776050E+03  0.25197270851E+03  0.79556582264E+02 0.  0.
          5    1    3    3  501    0  0.13712508709E+03  0.21162520938E+02 -0.17316323742E+03  0.22194309765E+03  0.47000000000E+01 0. -1.
        -11    1    4    4    0    0 -0.45122044074E+01  0.24833878601E+02  0.37126733773E+01  0.25512064962E+02  0.00000000000E+00 0.  1.
         12    1    4    4    0    0  0.28202737480E+02  0.61787276817E+02 -0.14334586441E+03  0.15862250414E+03  0.00000000000E+00 0. -1.
         -5    1    5    5    0  502  0.76592388632E+01 -0.20695596942E+02  0.25520800907E+02  0.34064247411E+02  0.47000000000E+01 0.  1.
         11    1    6    6    0    0 -0.65328364808E+02  0.49521862763E+01 -0.31280186865E+02  0.72600065342E+02  0.00000000000E+00 0. -1.
        -12    1    6    6    0    0 -0.10314649422E+03 -0.92040265690E+02 -0.11429757364E+03  0.17937264317E+03  0.00000000000E+00 0.  1.
</event>
<event>
12    1  0.1039610E+000  0.2662633E+03  0.7818608E-02  0.1104012E+00
         21   -1    0    0  503  502  0.00000000000E+00  0.00000000000E+00  0.14697221178E+04  0.14697221178E+04  0.00000000000E+00 0.  1.
         21   -1    0    0  501  503 -0.00000000000E+00 -0.00000000000E+00 -0.61943946239E+02  0.61943946239E+02  0.00000000000E+00 0.  1.
          6    2    1    2  501    0  0.19779027410E+03  0.38449012970E+01  0.10692913816E+04  0.11010044382E+04  0.17231058685E+03 0.  0.
         24    2    3    3    0    0  0.15183770789E+03  0.67009080949E+02  0.73026449408E+03  0.75306382200E+03  0.79208473130E+02 0.  0.
         -6    2    1    2    0  502 -0.19779027410E+03 -0.38449012970E+01  0.33848678994E+03  0.43066162583E+03  0.17821434625E+03 0.  0.
        -24    2    5    5    0    0 -0.21981252529E+03 -0.22027442903E+02  0.31969896787E+03  0.39615573322E+03  0.77001171387E+02 0.  0.
          5    1    3    3  501    0  0.45952566203E+02 -0.63164179652E+02  0.33902688756E+03  0.34794061623E+03  0.47000000000E+01 0. -1.
        -11    1    4    4    0    0  0.19764442537E+01  0.14520284177E+02  0.17494829038E+02  0.22821350256E+02  0.00000000000E+00 0.  1.
         12    1    4    4    0    0  0.14986126364E+03  0.52488796772E+02  0.71276966504E+03  0.73024247174E+03  0.00000000000E+00 0. -1.
         -5    1    5    5    0  502  0.22022251190E+02  0.18182541606E+02  0.18787822066E+02  0.34505892609E+02  0.47000000000E+01 0.  1.
         11    1    6    6    0    0 -0.18978870405E+03 -0.15823080877E+02  0.31031156615E+03  0.36409255713E+03  0.00000000000E+00 0. -1.
        -12    1    6    6    0    0 -0.30023821241E+02 -0.62043620259E+01  0.93874017190E+01  0.32063176091E+02  0.00000000000E+00 0.  1.
</event>
<event>
12    1  0.1039610E+000  0.1894082E+03  0.7818608E-02  0.1160147E+00
         21   -1    0    0  503  502  0.00000000000E+00  0.00000000000E+00  0.10719463951E+03  0.10719463951E+03  0.00000000000E+00 0. -1.
         21   -1    0    0  501  503 -0.00000000000E+00 -0.00000000000E+00 -0.33126732526E+03  0.33126732526E+03  0.00000000000E+00 0. -1.
          6    2    1    2  501    0  0.62350230806E+02  0.26369052919E+02 -0.85563026727E+02  0.20783768510E+03  0.17689712709E+03 0.  0.
         24    2    3    3    0    0 -0.30715140989E+02  0.44733198533E+01 -0.70972700539E+02  0.11101023975E+03  0.79515524472E+02 0.  0.
         -6    2    1    2    0  502 -0.62350230806E+02 -0.26369052919E+02 -0.13850965903E+03  0.23062427967E+03  0.17152187760E+03 0.  0.
        -24    2    5    5    0    0 -0.53704977704E+02 -0.12367646766E+02 -0.16880847451E+03  0.19582646372E+03  0.82550103010E+02 0.  0.
          5    1    3    3  501    0  0.93065371795E+02  0.21895733066E+02 -0.14590326189E+02  0.96827445346E+02  0.47000000000E+01 0. -1.
        -13    1    4    4    0    0  0.18825514240E+02 -0.21669239360E+02 -0.17794682728E+02  0.33772868611E+02  0.00000000000E+00 0.  1.
         14    1    4    4    0    0 -0.49540655229E+02  0.26142559213E+02 -0.53178017811E+02  0.77237371143E+02  0.00000000000E+00 0. -1.
         -5    1    5    5    0  502 -0.86452531024E+01 -0.14001406153E+02  0.30298815484E+02  0.34797815955E+02  0.47000000000E+01 0.  1.
         13    1    6    6    0    0  0.11056931521E+02  0.14457888555E+02 -0.83263362357E+02  0.85229535885E+02  0.00000000000E+00 0. -1.
        -14    1    6    6    0    0 -0.64761909225E+02 -0.26825535321E+02 -0.85545112157E+02  0.11059692783E+03  0.00000000000E+00 0.  1.
</event>
<event>
12    1  0.1039610E+000  0.1747510E+03  0.7818608E-02  0.1173088E+00
         21   -1    0    0  501  502  0.00000000000E+00  0.00000000000E+00  0.59183044399E+02  0.59183044399E+02  0.00000000000E+00 0. -1.
         21   -1    0    0  502  503 -0.00000000000E+00 -0.00000000000E+00 -0.51489530792E+03  0.51489530792E+03  0.00000000000E+00 0. -1.
         -6    2    1    2    0  503  0.18852113150E+02  0.25255413055E+02 -0.23237808456E+03  0.29050109583E+03  0.17145866683E+03 0.  0.
        -24    2    3    3    0    0 -0.40463012192E+02  0.32604743170E+02 -0.20169033593E+03  0.22315033738E+03  0.80104661733E+02 0.  0.
          6    2    1    2  501    0 -0.18852113150E+02 -0.25255413055E+02 -0.22333417896E+03  0.28357725649E+03  0.17188562142E+03 0.  0.
         24    2    5    5    0    0  0.38221872311E+02 -0.60406187093E+02 -0.14116062280E+03  0.17742830424E+03  0.80278656909E+02 0.  0.
          5    1    5    5  501    0 -0.57073985461E+02  0.35150774038E+02 -0.82173556158E+02  0.10614895225E+03  0.47000000000E+01 0. -1.
        -11    1    6    6    0    0 -0.18561507720E+02 -0.13238940283E+02 -0.62458265410E+01  0.23639150955E+02  0.00000000000E+00 0.  1.
         12    1    6    6    0    0  0.56783380031E+02 -0.47167246810E+02 -0.13491479626E+03  0.15378915329E+03  0.00000000000E+00 0. -1.
         -5    1    3    3    0  503  0.59315125342E+02 -0.73493301148E+01 -0.30687748631E+02  0.67350758448E+02  0.47000000000E+01 0.  1.
         11    1    4    4    0    0 -0.50443253474E+02  0.75917087921E+01 -0.59238205521E+02  0.78174937523E+02  0.00000000000E+00 0. -1.
        -12    1    4    4    0    0  0.99802412818E+01  0.25013034377E+02 -0.14245213041E+03  0.14497539985E+03  0.00000000000E+00 0.  1.
</event>
<event>
12    1  0.1039610E+000  0.3125348E+03  0.7818608E-02  0.1079296E+00
         21   -1    0    0  503  502  0.00000000000E+00  0.00000000000E+00  0.45431618690E+03  0.45431618690E+03  0.00000000000E+00 0.  1.
         21   -1    0    0  501  503 -0.00000000000E+00 -0.00000000000E+00 -0.32286253994E+03  0.32286253994E+03  0.00000000000E+00 0.  1.
          6    2    1    2  501    0 -0.22498765516E+03 -0.12989597888E+03 -0.15992466915E+03  0.34988573986E+03  0.17132343930E+03 0.  0.
         24    2    3    3    0    0 -0.10297537019E+03 -0.13730446416E+03 -0.84963101752E+02  0.20641724184E+03  0.77025361571E+02 0.  0.
         -6    2    1    2    0  502  0.22498765516E+03  0.12989597888E+03  0.29137831611E+03  0.42729298698E+03  0.17373993011E+03 0.  0.
        -24    2    5    5    0    0  0.23866345323E+03  0.14582599169E+03  0.26686863804E+03  0.39467999753E+03  0.79548518051E+02 0.  0.
          5    1    3    3  501    0 -0.12201228497E+03  0.74084852866E+01 -0.74961567397E+02  0.14346849802E+03  0.47000000000E+01 0. -1.
        -13    1    4    4    0    0 -0.34204660775E+02 -0.26831342436E+02  0.10865680354E+02  0.44810074372E+02  0.00000000000E+00 0.  1.
         14    1    4    4    0    0 -0.68770709414E+02 -0.11047312173E+03 -0.95828782106E+02  0.16160716747E+03  0.00000000000E+00 0. -1.
         -5    1    5    5    0  502 -0.13675798067E+02 -0.15930012815E+02  0.24509678076E+02  0.32612989443E+02  0.47000000000E+01 0.  1.
         11    1    6    6    0    0  0.72860625996E+02  0.34857578638E+02  0.12888470591E+03  0.15210190343E+03  0.00000000000E+00 0. -1.
        -12    1    6    6    0    0  0.16580282723E+03  0.11096841305E+03  0.13798393213E+03  0.24257809411E+03  0.00000000000E+00 0.  1.
</event>
<event>
12    1  0.1039610E+000  0.1811085E+03  0.7818608E-02  0.1166831E+00
         21   -1    0    0  503  502  0.00000000000E+00  0.00000000000E+00  0.48612354067E+02  0.48612354067E+02  0.00000000000E+00 0. -1.
         21   -1    0    0  501  503 -0.00000000000E+00 -0.00000000000E+00 -0.74644842028E+03  0.74644842028E+03  0.00000000000E+00 0. -1.
          6    2    1    2  501    0 -0.50831428968E+02 -0.24783806427E+02 -0.47375652879E+03  0.50719377664E+03  0.17205291995E+03 0.  0.
         24    2    3    3    0    0 -0.67805182314E+02  0.11652762207E+02 -0.44519264578E+03  0.45765876631E+03  0.80757197220E+02 0.  0.
         -6    2    1    2    0  502  0.50831428968E+02  0.24783806427E+02 -0.22407953742E+03  0.28786699770E+03  0.17163245044E+03 0.  0.
        -24    2    5    5    0    0 -0.34219205202E+02  0.11029074618E+02 -0.73255545421E+02  0.11410633016E+03  0.79757665193E+02 0.  0.
          5    1    3    3  501    0  0.16973753346E+02 -0.36436568634E+02 -0.28563883004E+02  0.49535010333E+02  0.47000000000E+01 0. -1.
        -11    1    4    4    0    0 -0.80039559130E+02 -0.10186725657E+02 -0.32266009704E+03  0.33259530758E+03  0.00000000000E+00 0.  1.
         12    1    4    4    0    0  0.12234376816E+02  0.21839487864E+02 -0.12253254874E+03  0.12506345872E+03  0.00000000000E+00 0. -1.
         -5    1    5    5    0  502  0.85050634170E+02  0.13754731808E+02 -0.15082399200E+03  0.17376066754E+03  0.47000000000E+01 0.  1.
         13    1    6    6    0    0 -0.46239165100E+01  0.27422221304E+02 -0.75241190555E+02  0.80215930969E+02  0.00000000000E+00 0. -1.
        -14    1    6    6    0    0 -0.29595288692E+02 -0.16393146686E+02  0.19856451334E+01  0.33890399195E+02  0.00000000000E+00 0.  1.
</event>
<event>
12    1  0.1039610E+000  0.2007307E+03  0.7818608E-02  0.1149200E+00
         21   -1    0    0  501  502  0.00000000000E+00  0.00000000000E+00  0.59409828242E+03  0.59409828242E+03  0.00000000000E+00 0.  1.
         21   -1    0    0  502  503 -0.00000000000E+00 -0.00000000000E+00 -0.78552260001E+02  0.78552260001E+02  0.00000000000E+00 0.  1.
         -6    2    1    2    0  503  0.80303329177E+02  0.66965273431E+02  0.13296345298E+03  0.24077396416E+03  0.17134716066E+03 0.  0.
        -24    2    3    3    0    0  0.10069250021E+03  0.70466130161E+01  0.57172459326E+02  0.14191887385E+03  0.81753546072E+02 0.  0.
          6    2    1    2  501    0 -0.80303329177E+02 -0.66965273431E+02  0.38258256944E+03  0.43187657826E+03  0.17092391257E+03 0.  0.
         24    2    5    5    0    0 -0.87437455502E+02 -0.84102820766E+02  0.38605571143E+03  0.41241523189E+03  0.79553240533E+02 0.  0.
          5    1    5    5  501    0  0.71341263254E+01  0.17137547335E+02 -0.34731419958E+01  0.19461346367E+02  0.47000000000E+01 0. -1.
        -11    1    6    6    0    0 -0.16277138880E+02 -0.14165124285E+02  0.20118176379E+03  0.20233560753E+03  0.00000000000E+00 0.  1.
         12    1    6    6    0    0 -0.71160316622E+02 -0.69937696481E+02  0.18487394764E+03  0.21007962435E+03  0.00000000000E+00 0. -1.
         -5    1    3    3    0  503 -0.20389171036E+02  0.59918660415E+02  0.75790993657E+02  0.98855090314E+02  0.47000000000E+01 0.  1.
         13    1    4    4    0    0  0.70634625265E+02  0.43259151588E+02  0.36021914710E+02  0.90322659515E+02  0.00000000000E+00 0. -1.
        -14    1    4    4    0    0  0.30057874948E+02 -0.36212538572E+02  0.21150544616E+02  0.51596214335E+02  0.00000000000E+00 0.  1.
</event>
<event>
12    1  0.1039610E+000  0.1804847E+03  0.7818608E-02  0.1167336E+00
         21   -1    0    0  503  502  0.00000000000E+00  0.00000000000E+00  0.19462555066E+03  0.19462555066E+03  0.00000000000E+00 0. -1.
         21   -1    0    0  501  503 -0.00000000000E+00 -0.00000000000E+00 -0.16949522945E+03  0.16949522945E+03  0.00000000000E+00 0. -1.
          6    2    1    2  501    0 -0.19366007028E+02 -0.50218950433E+02  0.32964289934E+02  0.18347038597E+03  0.17227232194E+03 0.  0.
         24    2    3    3    0    0 -0.54436571239E+02 -0.66848711289E+02  0.63940130915E+02  0.13358966680E+03  0.79534698371E+02 0.  0.
         -6    2    1    2    0  502  0.19366007028E+02  0.50218950433E+02 -0.78339687297E+01  0.18065039414E+03  0.17226783979E+03 0.  0.
        -24    2    5    5    0    0  0.73580588684E+02  0.15485923191E+02  0.18011087879E+02  0.11111147701E+03  0.79796266752E+02 0.  0.
          5    1    3    3  501    0  0.35070564211E+02  0.16629760856E+02 -0.30975840981E+02  0.49880719168E+02  0.47000000000E+01 0. -1.
        -13    1    4    4    0    0 -0.14660123995E+02 -0.70805208988E+02  0.21834100468E+02  0.75531614564E+02  0.00000000000E+00 0.  1.
         14    1    4    4    0    0 -0.39776447244E+02  0.39564976990E+01  0.42106030448E+02  0.58058052236E+02  0.00000000000E+00 0. -1.
         -5    1    5    5    0  502 -0.54214581656E+02  0.34733027241E+02 -0.25845056609E+02  0.69538917137E+02  0.47000000000E+01 0.  1.
         11    1    6    6    0    0  0.97726734709E+01 -0.31830470283E+01  0.39833907297E+02  0.41138511224E+02  0.00000000000E+00 0. -1.
        -12    1    6    6    0    0  0.63807915213E+02  0.18668970220E+02 -0.21822819418E+02  0.69972965781E+02  0.00000000000E+00 0.  1.
</event>
<event>
12    1  0.1039610E+000  0.1834331E+03  0.7818608E-02  0.1165473E+00
         21   -1    0    0  503  502  0.00000000000E+00  0.00000000000E+00  0.11607102160E+03  0.11607102160E+03  0.00000000000E+00 0. -1.
         21   -1    0    0  501  503 -0.00000000000E+00 -0.00000000000E+00 -0.52294118578E+03  0.52294118578E+03  0.00000000000E+00 0. -1.
          6    2    1    2  501    0  0.41595040468E+02 -0.27840633081E+02  0.11487029649E+02  0.18379237662E+03  0.17647220068E+03 0.  0.
         24    2    3    3    0    0  0.63578074688E+02 -0.21673452268E+02  0.66657849600E+02  0.12389916092E+03  0.79973889799E+02 0.  0.
         -6    2    1    2    0  502 -0.41595040468E+02  0.27840633081E+02 -0.41835719383E+03  0.45521983076E+03  0.17232847833E+03 0.  0.
        -24    2    5    5    0    0 -0.26297579888E+02  0.71258264886E+02 -0.37798263386E+03  0.39380893478E+03  0.80282641909E+02 0.  0.
          5    1    3    3  501    0 -0.21983034220E+02 -0.61671808127E+01 -0.55170819951E+02  0.59893215699E+02  0.47000000000E+01 0. -1.
        -11    1    4    4    0    0  0.28140506421E+02  0.46365058730E+01 -0.14139563365E+02  0.31832570435E+02  0.00000000000E+00 0.  1.
         12    1    4    4    0    0  0.35437568267E+02 -0.26309958141E+02  0.80797412965E+02  0.92066590487E+02  0.00000000000E+00 0. -1.
         -5    1    5    5    0  502 -0.15297460580E+02 -0.43417631805E+02 -0.40374559975E+02  0.61410895979E+02  0.47000000000E+01 0.  1.
         11    1    6    6    0    0 -0.47590141092E+02  0.46920425202E+02 -0.15933700638E+03  0.17278492247E+03  0.00000000000E+00 0. -1.
        -12    1    6    6    0    0  0.21292561204E+02  0.24337839684E+02 -0.21864562748E+03  0.22102401231E+03  0.00000000000E+00 0.  1.
</event>
<event>
12    1  0.1039610E+000  0.2067886E+03  0.7818608E-02  0.1144447E+00
         21   -1    0    0  503  502  0.00000000000E+00  0.00000000000E+00  0.47977691941E+03  0.47977691941E+03  0.00000000000E+00 0.  1.
         21   -1    0    0  501  503 -0.00000000000E+00 -0.00000000000E+00 -0.88500162235E+02  0.88500162235E+02  0.00000000000E+00 0.  1.
          6    2    1    2  501    0  0.69528759346E+02 -0.88777517636E+02  0.20059397358E+03  0.28699174638E+03  0.17149526010E+03 0.  0.
         24    2    3    3    0    0  0.20943578660E+02  0.26859465700E+02  0.41798735154E+02  0.84580162112E+02  0.65165981752E+02 0.  0.
         -6    2    1    2    0  502 -0.69528759346E+02  0.88777517636E+02  0.19068278359E+03  0.28128533526E+03  0.17333730084E+03 0.  0.
        -24    2    5    5    0    0 -0.10829876860E+03  0.97297451273E+02  0.16352676810E+03  0.23296099291E+03  0.79588962970E+02 0.  0.
          5    1    3    3  501    0  0.48585180686E+02 -0.11563698334E+03  0.15879523843E+03  0.20241158427E+03  0.47000000000E+01 0. -1.
        -11    1    4    4    0    0 -0.77055124229E+01  0.19367600500E+02  0.49731887957E+02  0.53923460113E+02  0.00000000000E+00 0.  1.
         12    1    4    4    0    0  0.28649091083E+02  0.74918652001E+01 -0.79331528024E+01  0.30656701999E+02  0.00000000000E+00 0. -1.
         -5    1    5    5    0  502  0.38770009256E+02 -0.85199336373E+01  0.27156015488E+02  0.48324342355E+02  0.47000000000E+01 0.  1.
         13    1    6    6    0    0 -0.35422931589E+02 -0.91812754839E+01  0.30497392566E+02  0.47635814837E+02  0.00000000000E+00 0. -1.
        -14    1    6    6    0    0 -0.72875837013E+02  0.10647872676E+03  0.13302937553E+03  0.18532517807E+03  0.00000000000E+00 0.  1.
</event>
<event>
12    1  0.1039610E+000  0.1953007E+03  0.7818608E-02  0.1154036E+00
         21   -1    0    0  501  502  0.00000000000E+00  0.00000000000E+00  0.28046304266E+02  0.28046304266E+02  0.00000000000E+00 0. -1.
         21   -1    0    0  502  503 -0.00000000000E+00 -0.00000000000E+00 -0.27889513648E+04  0.27889513648E+04  0.00000000000E+00 0. -1.
         -6    2    1    2    0  503  0.87490277930E+02  0.21011500301E+02 -0.36708274301E+03  0.41522172869E+03  0.17193984963E+03 0.  0.
        -24    2    3    3    0    0  0.36226252108E+02 -0.53817493502E+02 -0.21008240124E+03  0.23384208273E+03  0.79616834867E+02 0.  0.
          6    2    1    2  501    0 -0.87490277930E+02 -0.21011500301E+02 -0.23938223176E+04  0.24017759404E+04  0.17333882419E+03 0.  0.
         24    2    5    5    0    0  0.11616689814E+02 -0.41981218383E+02 -0.89788510689E+03  0.90240535632E+03  0.78996150347E+02 0.  0.
          5    1    5    5  501    0 -0.99106967744E+02  0.20969718082E+02 -0.14959372107E+04  0.14993705841E+04  0.47000000000E+01 0. -1.
        -13    1    6    6    0    0  0.25522743320E+02  0.83861512534E+01 -0.54614589275E+03  0.54680624916E+03  0.00000000000E+00 0.  1.
         14    1    6    6    0    0 -0.13906053506E+02 -0.50367369637E+02 -0.35173921414E+03  0.35559910716E+03  0.00000000000E+00 0. -1.
         -5    1    3    3    0  503  0.51264025822E+02  0.74828993803E+02 -0.15700034176E+03  0.18137964597E+03  0.47000000000E+01 0.  1.
         13    1    4    4    0    0  0.22361197588E+01 -0.29884604778E+02 -0.13422904017E+02  0.32836933270E+02  0.00000000000E+00 0. -1.
        -14    1    4    4    0    0  0.33990132350E+02 -0.23932888724E+02 -0.19665949723E+03  0.20100514946E+03  0.00000000000E+00 0.  1.
</event>
<event>
12    1  0.1039610E+000  0.2902002E+03  0.7818608E-02  0.1090396E+00
         21   -1    0    0  501  502  0.00000000000E+00  0.00000000000E+00  0.16735061184E+03  0.16735061184E+03  0.00000000000E+00 0. -1.
         21   -1    0    0  502  503 -0.00000000000E+00 -0.00000000000E+00 -0.89268471538E+03  0.89268471538E+03  0.00000000000E+00 0. -1.
         -6    2    1    2    0  503 -0.13296095339E+02 -0.23282314452E+03 -0.71324205460E+03  0.76958333065E+03  0.17076554568E+03 0.  0.
        -24    2    3    3    0    0  0.38109012442E+02 -0.11162013130E+03 -0.26687498567E+03  0.30418209973E+03  0.85983377915E+02 0.  0.
          6    2    1    2  501    0  0.13296095339E+02  0.23282314452E+03 -0.12092048934E+02  0.29045199656E+03  0.17272157330E+03 0.  0.
         24    2    5    5    0    0 -0.34146293875E+02  0.13231305950E+03 -0.60386709552E+02  0.16917742491E+03  0.79383444806E+02 0.  0.
          5    1    5    5  501    0  0.47442389214E+02  0.10051008502E+03  0.48294660618E+02  0.12127457165E+03  0.47000000000E+01 0. -1.
        -13    1    6    6    0    0  0.13089906312E+02  0.97148985490E+02 -0.47350960859E+02  0.10886406443E+03  0.00000000000E+00 0.  1.
         14    1    6    6    0    0 -0.47236200187E+02  0.35164074011E+02 -0.13035748693E+02  0.60313360486E+02  0.00000000000E+00 0. -1.
         -5    1    3    3    0  503 -0.51405107782E+02 -0.12120301322E+03 -0.44636706893E+03  0.46540123092E+03  0.47000000000E+01 0.  1.
         11    1    4    4    0    0  0.51989206396E+02 -0.91502058024E+02 -0.25719479770E+03  0.27789326758E+03  0.00000000000E+00 0. -1.
        -12    1    4    4    0    0 -0.13880193954E+02 -0.20118073276E+02 -0.96801879759E+01  0.26288832149E+02  0.00000000000E+00 0.  1.
</event>
<event>
12    1  0.1039610E+000  0.7977690E+03  0.7818608E-02  0.9563442E-01
         21   -1    0    0  503  502  0.00000000000E+00  0.00000000000E+00  0.11753652236E+04  0.11753652236E+04  0.00000000000E+00 0. -1.
         21   -1    0    0  501  503 -0.00000000000E+00 -0.00000000000E+00 -0.57861303866E+03  0.57861303866E+03  0.00000000000E+00 0. -1.
          6    2    1    2  501    0 -0.35111922720E+03  0.69478096395E+03  0.52151366942E+03  0.95266917508E+03  0.17203706047E+03 0.  0.
         24    2    3    3    0    0 -0.30577390520E+03  0.64093743669E+03  0.51829983880E+03  0.88204522474E+03  0.71207982145E+02 0.  0.
         -6    2    1    2    0  502  0.35111922720E+03 -0.69478096395E+03  0.75238515537E+02  0.80130908720E+03  0.17444230979E+03 0.  0.
        -24    2    5    5    0    0  0.13571809605E+03 -0.28912750470E+03  0.92035860524E+02  0.34168248104E+03  0.79134080236E+02 0.  0.
          5    1    3    3  501    0 -0.45345322001E+02  0.53843527251E+02  0.32138306181E+01  0.70623950339E+02  0.47000000000E+01 0. -1.
        -11    1    4    4    0    0 -0.11334307502E+03  0.24185692080E+03  0.23816086103E+03  0.35785753942E+03  0.00000000000E+00 0.  1.
         12    1    4    4    0    0 -0.19243083019E+03  0.39908051589E+03  0.28013897778E+03  0.52418768532E+03  0.00000000000E+00 0. -1.
         -5    1    5    5    0  502  0.21540113115E+03 -0.40565345924E+03 -0.16797344987E+02  0.45962660617E+03  0.47000000000E+01 0.  1.
         11    1    6    6    0    0  0.64583858112E+02 -0.19177384432E+03  0.89019675778E+02  0.22107189955E+03  0.00000000000E+00 0. -1.
        -12    1    6    6    0    0  0.71134237941E+02 -0.97353660386E+02  0.30161847453E+01  0.12061058149E+03  0.00000000000E+00 0.  1.
</event>
<event>
12    1  0.1039610E+000  0.2472637E+03  0.7818608E-02  0.1115450E+00
         21   -1    0    0  501  502  0.00000000000E+00  0.00000000000E+00  0.23555309802E+03  0.23555309802E+03  0.00000000000E+00 0. -1.
         21   -1    0    0  502  503 -0.00000000000E+00 -0.00000000000E+00 -0.25773197566E+03  0.25773197566E+03  0.00000000000E+00 0. -1.
         -6    2    1    2    0  503 -0.61572435395E+02  0.16234626582E+03  0.25594020873E+01  0.24727691667E+03  0.17604501740E+03 0.  0.
        -24    2    3    3    0    0 -0.52544085378E+02  0.12414375688E+02 -0.20058228934E+01  0.96930602903E+02  0.80476834069E+02 0.  0.
          6    2    1    2  501    0  0.61572435395E+02 -0.16234626582E+03 -0.24738279731E+02  0.24600815701E+03  0.17251248073E+03 0.  0.
         24    2    5    5    0    0  0.10238430638E+03 -0.12670018091E+03  0.10553163437E+02  0.18117122198E+03  0.78588551207E+02 0.  0.
          5    1    5    5  501    0 -0.40811870989E+02 -0.35646084912E+02 -0.35291443167E+02  0.64836935030E+02  0.47000000000E+01 0. -1.
        -11    1    6    6    0    0  0.11548452602E+03 -0.11709356242E+03  0.11759790497E+02  0.16488138398E+03  0.00000000000E+00 0.  1.
         12    1    6    6    0    0 -0.13100219638E+02 -0.96066184911E+01 -0.12066270604E+01  0.16289838006E+02  0.00000000000E+00 0. -1.
         -5    1    3    3    0  503 -0.90283500176E+01  0.14993189013E+03  0.45652249807E+01  0.15034631376E+03  0.47000000000E+01 0.  1.
         11    1    4    4    0    0 -0.30442876335E+02  0.44533106233E+02 -0.14729303265E+02  0.55918857686E+02  0.00000000000E+00 0. -1.
        -12    1    4    4    0    0 -0.22101209042E+02 -0.32118730545E+02  0.12723480371E+02  0.41011745217E+02  0.00000000000E+00 0.  1.
</event>
<event>
12    1  0.1039610E+000  0.2406141E+03  0.7818608E-02  0.1119613E+00
         21   -1    0    0  503  502  0.00000000000E+00  0.00000000000E+00  0.44375457412E+03  0.44375457412E+03  0.00000000000E+00 0. -1.
         21   -1    0    0  501  503 -0.00000000000E+00 -0.00000000000E+00 -0.16377111500E+03  0.16377111500E+03  0.00000000000E+00 0. -1.
          6    2    1    2  501    0  0.88617180965E+02 -0.14006204730E+03  0.27817848453E+03  0.36690477046E+03  0.17252669208E+03 0.  0.
         24    2    3    3    0    0  0.11381817802E+03 -0.10251763144E+03  0.27020060111E+03  0.32074840536E+03  0.80042065823E+02 0.  0.
         -6    2    1    2    0  502 -0.88617180965E+02  0.14006204730E+03  0.18049745958E+01  0.24062091866E+03  0.17442702402E+03 0.  0.
        -24    2    5    5    0    0  0.91772583813E+01  0.89051028148E+02  0.29570423007E+02  0.12678381326E+03  0.84766843174E+02 0.  0.
          5    1    3    3  501    0 -0.25200997054E+02 -0.37544415864E+02  0.79778834155E+01  0.46156365096E+02  0.47000000000E+01 0. -1.
        -11    1    4    4    0    0 -0.41653010974E+01 -0.23854911238E+02  0.14130032157E+02  0.28036838841E+02  0.00000000000E+00 0.  1.
         12    1    4    4    0    0  0.11798347912E+03 -0.78662720197E+02  0.25607056895E+03  0.29271156652E+03  0.00000000000E+00 0. -1.
         -5    1    5    5    0  502 -0.97794439346E+02  0.51011019152E+02 -0.27765448411E+02  0.11383710541E+03  0.47000000000E+01 0.  1.
         11    1    6    6    0    0  0.11010583844E+02  0.79575456959E+02 -0.14532261262E+02  0.81637448051E+02  0.00000000000E+00 0. -1.
        -12    1    6    6    0    0 -0.18333254622E+01  0.94755711882E+01  0.44102684269E+02  0.45146365206E+02  0.00000000000E+00 0.  1.
</event>
<event>
12    1  0.1039610E+000  0.1844247E+03  0.7818608E-02  0.1163781E+00
         21   -1    0    0  503  502  0.00000000000E+00  0.00000000000E+00  0.22694929597E+03  0.22694929597E+03  0.00000000000E+00 0.  1.
         21   -1    0    0  501  503 -0.00000000000E+00 -0.00000000000E+00 -0.17754284794E+03  0.17754284794E+03  0.00000000000E+00 0.  1.
          6    2    1    2  501    0  0.67862050808E+02 -0.49258144176E+01  0.10555440302E+03  0.21249516352E+03  0.17141452954E+03 0.  0.
         24    2    3    3    0    0  0.94109951010E+02 -0.13150617795E+02  0.24404046644E+02  0.12668100388E+03  0.80142982370E+02 0.  0.
         -6    2    1    2    0  502 -0.67862050808E+02  0.49258144176E+01 -0.56147954995E+02  0.19199698039E+03  0.17053071876E+03 0.  0.
        -24    2    5    5    0    0 -0.35818352380E+02 -0.62556764551E+02 -0.11586706655E+02  0.10488502985E+03  0.75301491073E+02 0.  0.
          5    1    3    3  501    0 -0.26247900202E+02  0.82248033777E+01  0.81150356377E+02  0.85814159645E+02  0.47000000000E+01 0. -1.
        -13    1    4    4    0    0  0.11875795684E+02  0.29395442398E+02  0.71114886479E+01  0.32491534708E+02  0.00000000000E+00 0.  1.
         14    1    4    4    0    0  0.82234155326E+02 -0.42546060193E+02  0.17292557996E+02  0.94189469169E+02  0.00000000000E+00 0. -1.
         -5    1    5    5    0  502 -0.32043698429E+02  0.67482578968E+02 -0.44561248341E+02  0.87111950540E+02  0.47000000000E+01 0.  1.
         13    1    6    6    0    0 -0.34972074622E+02  0.38597640021E+01 -0.15283057465E+02  0.38360339245E+02  0.00000000000E+00 0. -1.
        -14    1    6    6    0    0 -0.84627775759E+00 -0.66416528553E+02  0.36963508101E+01  0.66524690607E+02  0.00000000000E+00 0.  1.
</event>
<event>
12    1  0.1039610E+000  0.2332541E+03  0.7818608E-02  0.1124418E+00
         21   -1    0    0  501  502  0.00000000000E+00  0.00000000000E+00  0.56928260470E+02  0.56928260470E+02  0.00000000000E+00 0.  1.
         21   -1    0    0  502  503 -0.00000000000E+00 -0.00000000000E+00 -0.95466784951E+03  0.95466784951E+03  0.00000000000E+00 0. -1.
         -6    2    1    2    0  503  0.10598885932E+03  0.11674720862E+03 -0.44392314114E+03  0.50134436258E+03  0.17150762558E+03 0.  0.
        -24    2    3    3    0    0  0.13068912804E+03  0.10945244456E+03 -0.43447476457E+03  0.47351131249E+03  0.79907172384E+02 0.  0.
          6    2    1    2  501    0 -0.10598885932E+03 -0.11674720862E+03 -0.45381644790E+03  0.51025174740E+03  0.17188347308E+03 0.  0.
         24    2    5    5    0    0 -0.40619065126E+02 -0.23226346722E+02 -0.95002426924E+02  0.13370300785E+03  0.81619002408E+02 0.  0.
          5    1    5    5  501    0 -0.65369794193E+02 -0.93520861897E+02 -0.35881402098E+03  0.37654873954E+03  0.47000000000E+01 0. -1.
        -11    1    6    6    0    0 -0.21336885674E+02 -0.44858702347E+02 -0.92019455896E+02  0.10457124906E+03  0.00000000000E+00 0.  1.
         12    1    6    6    0    0 -0.19282179452E+02  0.21632355626E+02 -0.29829710288E+01  0.29131758795E+02  0.00000000000E+00 0. -1.
         -5    1    3    3    0  503 -0.24700268721E+02  0.72947640634E+01 -0.94483765648E+01  0.27833050090E+02  0.47000000000E+01 0.  1.
         11    1    4    4    0    0  0.11139239711E+03  0.58451577992E+02 -0.23302899535E+03  0.26481572041E+03  0.00000000000E+00 0. -1.
        -12    1    4    4    0    0  0.19296730929E+02  0.51000866564E+02 -0.20144576922E+03  0.20869559208E+03  0.00000000000E+00 0.  1.
</event>
<event>
12    1  0.1039610E+000  0.2066004E+03  0.7818608E-02  0.1144345E+00
         21   -1    0    0  503  502  0.00000000000E+00  0.00000000000E+00  0.82220586542E+03  0.82220586542E+03  0.00000000000E+00 0. -1.
         21   -1    0    0  501  503 -0.00000000000E+00 -0.00000000000E+00 -0.52137252888E+02  0.52137252888E+02  0.00000000000E+00 0. -1.
          6    2    1    2  501    0 -0.14312190317E+00 -0.11366117788E+03  0.41768341647E+03  0.46585927705E+03  0.17218172314E+03 0.  0.
         24    2    3    3    0    0  0.64243008540E+00 -0.11488971439E+03  0.17915286285E+03  0.22727796721E+03  0.79746265895E+02 0.  0.
         -6    2    1    2    0  502  0.14312190317E+00  0.11366117788E+03  0.35238519606E+03  0.40848384125E+03  0.17252489189E+03 0.  0.
        -24    2    5    5    0    0  0.40301128821E+02  0.13047169049E+03  0.30701632637E+03  0.34543082237E+03  0.80102343131E+02 0.  0.
          5    1    3    3  501    0 -0.78555198857E+00  0.12285365190E+01  0.23853055362E+03  0.23858130984E+03  0.47000000000E+01 0. -1.
        -11    1    4    4    0    0 -0.29177895319E+02 -0.65931128698E+02  0.55510079399E+02  0.90992484424E+02  0.00000000000E+00 0.  1.
         12    1    4    4    0    0  0.29820325404E+02 -0.48958585697E+02  0.12364278345E+03  0.13628548279E+03  0.00000000000E+00 0. -1.
         -5    1    5    5    0  502 -0.40158006917E+02 -0.16810512618E+02  0.45368869686E+02  0.63053018886E+02  0.47000000000E+01 0.  1.
         13    1    6    6    0    0  0.12113269172E+02  0.63064098866E+02  0.60180757271E+02  0.88008723440E+02  0.00000000000E+00 0. -1.
        -14    1    6    6    0    0  0.28187859649E+02  0.67407591628E+02  0.24683556910E+03  0.25742209893E+03  0.00000000000E+00 0.  1.
</event>
<event>
12    1  0.1039610E+000  0.1721646E+03  0.7818608E-02  0.1175768E+00
         21   -1    0    0  503  502  0.00000000000E+00  0.00000000000E+00  0.42879075877E+02  0.42879075877E+02  0.00000000000E+00 0. -1.
         21   -1    0    0  501  503 -0.00000000000E+00 -0.00000000000E+00 -0.68981830942E+03  0.68981830942E+03  0.00000000000E+00 0. -1.
          6    2    1    2  501    0 -0.27404499408E+01 -0.45823854247E+01 -0.30863845567E+03  0.35310803683E+03  0.17146160220E+03 0.  0.
         24    2    3    3    0    0 -0.11223969978E+02  0.54257809866E+02 -0.25179792224E+03  0.27072433131E+03  0.82580763408E+02 0.  0.
         -6    2    1    2    0  502  0.27404499408E+01  0.45823854247E+01 -0.33830077787E+03  0.37958934847E+03  0.17208180858E+03 0.  0.
        -24    2    5    5    0    0 -0.35520410363E+02  0.55129998099E+02 -0.25148401501E+03  0.27198732762E+03  0.80199004587E+02 0.  0.
          5    1    3    3  501    0  0.84835200373E+01 -0.58840195291E+02 -0.56840533439E+02  0.82383705523E+02  0.47000000000E+01 0. -1.
        -13    1    4    4    0    0 -0.24038245618E+02  0.44854534259E+02 -0.61771146609E+02  0.80033999334E+02  0.00000000000E+00 0.  1.
         14    1    4    4    0    0  0.12814275640E+02  0.94032756072E+01 -0.19002677563E+03  0.19069033197E+03  0.00000000000E+00 0. -1.
         -5    1    5    5    0  502  0.38260860304E+02 -0.50547612674E+02 -0.86816762863E+02  0.10760202086E+03  0.47000000000E+01 0.  1.
         13    1    6    6    0    0 -0.57875076496E+02  0.43362999394E+02 -0.13883987846E+03  0.15654515657E+03  0.00000000000E+00 0. -1.
        -14    1    6    6    0    0  0.22354666133E+02  0.11766998705E+02 -0.11264413655E+03  0.11544217105E+03  0.00000000000E+00 0.  1.
</event>
<event>
12    1  0.1039610E+000  0.2487767E+03  0.7818608E-02  0.1115541E+00
         21   -1    0    0  501  502  0.00000000000E+00  0.00000000000E+00  0.49381892561E+03  0.49381892561E+03  0.00000000000E+00 0.  1.
         21   -1    0    0  502  503 -0.00000000000E+00 -0.00000000000E+00 -0.13859897214E+03  0.13859897214E+03  0.00000000000E+00 0.  1.
         -6    2    1    2    0  503 -0.47688634104E+00  0.16676577826E+03  0.67271755902E+02  0.25771172620E+03  0.18460442156E+03 0.  0.
        -24    2    3    3    0    0 -0.92131144084E+01  0.18397856045E+03  0.95557606571E+02  0.22314612336E+03  0.82036235976E+02 0.  0.
          6    2    1    2  501    0  0.47688634104E+00 -0.16676577826E+03  0.28794819756E+03  0.37470617156E+03  0.17227738768E+03 0.  0.
         24    2    5    5    0    0 -0.33283991788E+02 -0.17095416774E+03  0.27927403967E+03  0.33928484304E+03  0.82383638591E+02 0.  0.
          5    1    5    5  501    0  0.33760878129E+02  0.41883894824E+01  0.86741578903E+01  0.35421328512E+02  0.47000000000E+01 0. -1.
        -11    1    6    6    0    0 -0.27999214636E+02 -0.12993100220E+02  0.74271616751E+02  0.80430403010E+02  0.00000000000E+00 0.  1.
         12    1    6    6    0    0 -0.52847771517E+01 -0.15796106752E+03  0.20500242292E+03  0.25885444003E+03  0.00000000000E+00 0. -1.
         -5    1    3    3    0  503  0.87362280673E+01 -0.17212782193E+02 -0.28285850669E+02  0.34565602840E+02  0.47000000000E+01 0.  1.
         13    1    4    4    0    0  0.30650895897E+02  0.33182673374E+02  0.28162887392E+02  0.53232654056E+02  0.00000000000E+00 0. -1.
        -14    1    4    4    0    0 -0.39864010306E+02  0.15079588707E+03  0.67394719179E+02  0.16991346930E+03  0.00000000000E+00 0.  1.
</event>
<event>
12    1  0.1039610E+000  0.1917613E+03  0.7818608E-02  0.1156970E+00
         21   -1    0    0  501  502  0.00000000000E+00  0.00000000000E+00  0.40238816188E+03  0.40238816188E+03  0.00000000000E+00 0. -1.
         21   -1    0    0  502  503 -0.00000000000E+00 -0.00000000000E+00 -0.99344952881E+02  0.99344952881E+02  0.00000000000E+00 0. -1.
         -6    2    1    2    0  503  0.78800148004E+02  0.32227003603E+02  0.22350565170E+03  0.29449480668E+03  0.17182657458E+03 0.  0.
        -24    2    3    3    0    0  0.85061046601E+02 -0.25677090508E+02  0.98674196818E+02  0.15666496559E+03  0.83142165602E+02 0.  0.
          6    2    1    2  501    0 -0.78800148004E+02 -0.32227003603E+02  0.79537557305E+02  0.20723830809E+03  0.17138684381E+03 0.  0.
         24    2    5    5    0    0 -0.46455758892E+02 -0.51334549988E+02  0.11382548900E+03  0.15615983810E+03  0.81463363131E+02 0.  0.
          5    1    5    5  501    0 -0.32344389111E+02  0.19107546384E+02 -0.34287931698E+02  0.51078469985E+02  0.47000000000E+01 0. -1.
        -13    1    6    6    0    0 -0.12311776020E+02  0.22166546813E+02  0.33903286634E+02  0.42336372908E+02  0.00000000000E+00 0.  1.
         14    1    6    6    0    0 -0.34143982872E+02 -0.73501096801E+02  0.79922202369E+02  0.11382346519E+03  0.00000000000E+00 0. -1.
         -5    1    3    3    0  503 -0.62608985972E+01  0.57904094111E+02  0.12483145488E+03  0.13782984108E+03  0.47000000000E+01 0.  1.
         13    1    4    4    0    0  0.32103468134E+02  0.27425714960E+02  0.56786974899E+02  0.70764136577E+02  0.00000000000E+00 0. -1.
        -14    1    4    4    0    0  0.52957578467E+02 -0.53102805468E+02  0.41887221919E+02  0.85900829016E+02  0.00000000000E+00 0.  1.
</event>
<event>
12    1  0.1039610E+000  0.3679452E+03  0.7818608E-02  0.1055549E+00
         21   -1    0    0  503  502  0.00000000000E+00  0.00000000000E+00  0.50933074673E+03  0.50933074673E+03  0.00000000000E+00 0.  1.
         21   -1    0    0  501  503 -0.00000000000E+00 -0.00000000000E+00 -0.30649440825E+03  0.30649440825E+03  0.00000000000E+00 0.  1.
          6    2    1    2  501    0  0.22032702830E+03  0.23855404573E+03  0.25105205295E+03  0.44543325405E+03  0.17300756744E+03 0.  0.
         24    2    3    3    0    0  0.11690760112E+03  0.65039438308E+02  0.57892878488E+02  0.16590605755E+03  0.79219434583E+02 0.  0.
         -6    2    1    2    0  502 -0.22032702830E+03 -0.23855404573E+03 -0.48215714468E+02  0.37039190093E+03  0.17150327409E+03 0.  0.
        -24    2    5    5    0    0 -0.83746663470E+02 -0.61993029976E+02 -0.65639288139E+02  0.14644177421E+03  0.79246688752E+02 0.  0.
          5    1    3    3  501    0  0.10341942717E+03  0.17351460742E+03  0.19315917446E+03  0.27952719650E+03  0.47000000000E+01 0. -1.
        -13    1    4    4    0    0 -0.11097139690E+02  0.13392158324E+02  0.78686226865E+01  0.19089568798E+02  0.00000000000E+00 0.  1.
         14    1    4    4    0    0  0.12800474081E+03  0.51647279984E+02  0.50024255801E+02  0.14681648875E+03  0.00000000000E+00 0. -1.
         -5    1    5    5    0  502 -0.13658036483E+03 -0.17656101575E+03  0.17423573672E+02  0.22395012672E+03  0.47000000000E+01 0.  1.
         11    1    6    6    0    0 -0.59529167418E+02 -0.50387754389E+02 -0.27285264707E+01  0.78039044218E+02  0.00000000000E+00 0. -1.
        -12    1    6    6    0    0 -0.24217496052E+02 -0.11605275587E+02 -0.62910761669E+02  0.68402729991E+02  0.00000000000E+00 0.  1.
</event>
<event>
12    1  0.1039610E+000  0.3468180E+03  0.7818608E-02  0.1063979E+00
         21   -1    0    0  501  502  0.00000000000E+00  0.00000000000E+00  0.86940704921E+02  0.86940704921E+02  0.00000000000E+00 0.  1.
         21   -1    0    0  502  503 -0.00000000000E+00 -0.00000000000E+00 -0.26512308971E+04  0.26512308971E+04  0.00000000000E+00 0.  1.
         -6    2    1    2    0  503 -0.14606687036E+03  0.26305237058E+03 -0.33517420678E+03  0.48231159302E+03  0.17248374874E+03 0.  0.
        -24    2    3    3    0    0 -0.50019053234E+02  0.20369995195E+03 -0.27539578945E+03  0.35447012106E+03  0.76227618147E+02 0.  0.
          6    2    1    2  501    0  0.14606687036E+03 -0.26305237058E+03 -0.22291159854E+04  0.22558600090E+04  0.17150575379E+03 0.  0.
         24    2    5    5    0    0  0.89735664008E+02 -0.89022559399E+02 -0.68983590024E+03  0.70574231975E+03  0.78874248924E+02 0.  0.
          5    1    5    5  501    0  0.56331206356E+02 -0.17402981118E+03 -0.15392800852E+04  0.15501176893E+04  0.47000000000E+01 0. -1.
        -11    1    6    6    0    0  0.67430888843E+02 -0.80608790345E+02 -0.65592373916E+03  0.66428958553E+03  0.00000000000E+00 0.  1.
         12    1    6    6    0    0  0.22304775165E+02 -0.84137690537E+01 -0.33912161085E+02  0.41452734220E+02  0.00000000000E+00 0. -1.
         -5    1    3    3    0  503 -0.96047817131E+02  0.59352418628E+02 -0.59778417338E+02  0.12784147196E+03  0.47000000000E+01 0.  1.
         13    1    4    4    0    0 -0.28236653557E+02  0.13155667793E+03 -0.23007703042E+03  0.26653312747E+03  0.00000000000E+00 0. -1.
        -14    1    4    4    0    0 -0.21782399677E+02  0.72143274022E+02 -0.45318759029E+02  0.87936993593E+02  0.00000000000E+00 0.  1.
</event>
<event>
12    1  0.1039610E+000  0.2155611E+03  0.7818608E-02  0.1137620E+00
         21   -1    0    0  501  502  0.00000000000E+00  0.00000000000E+00  0.29348189805E+03  0.29348189805E+03  0.00000000000E+00 0.  1.
         21   -1    0    0  502  503 -0.00000000000E+00 -0.00000000000E+00 -0.15704916427E+03  0.15704916427E+03  0.00000000000E+00 0.  1.
         -6    2    1    2    0  503 -0.11314439689E+03  0.61289667231E+02  0.76212703622E+02  0.22863720311E+03  0.17294078928E+03 0.  0.
        -24    2    3    3    0    0 -0.10917120509E+03  0.89690069730E+02  0.18367400327E+02  0.16390283644E+03  0.81019243206E+02 0.  0.
          6    2    1    2  501    0  0.11314439689E+03 -0.61289667231E+02  0.60220030160E+02  0.22189385921E+03  0.17044751352E+03 0.  0.
         24    2    5    5    0    0  0.12665872321E+02 -0.48774326150E+02  0.76388638733E+02  0.11924844253E+03  0.76456573985E+02 0.  0.
          5    1    5    5  501    0  0.10047852456E+03 -0.12515341080E+02 -0.16168608574E+02  0.10264541667E+03  0.47000000000E+01 0. -1.
        -11    1    6    6    0    0 -0.91743613217E+01 -0.22307795179E+02 -0.10139107950E+02  0.26165017512E+02  0.00000000000E+00 0.  1.
         12    1    6    6    0    0  0.21840233643E+02 -0.26466530971E+02  0.86527746683E+02  0.93083425019E+02  0.00000000000E+00 0. -1.
         -5    1    3    3    0  503 -0.39731917964E+01 -0.28400402499E+02  0.57845303295E+02  0.64734366672E+02  0.47000000000E+01 0.  1.
         13    1    4    4    0    0 -0.10655397171E+03  0.10218672729E+03  0.24641824132E+02  0.14967663685E+03  0.00000000000E+00 0. -1.
        -14    1    4    4    0    0 -0.26172333825E+01 -0.12496657562E+02 -0.62744238052E+01  0.14226199594E+02  0.00000000000E+00 0.  1.
</event>
<event>
12    1  0.1039610E+000  0.2492179E+03  0.7818608E-02  0.1114649E+00
         21   -1    0    0  501  502  0.00000000000E+00  0.00000000000E+00  0.10604432077E+03  0.10604432077E+03  0.00000000000E+00 0.  1.
         21   -1    0    0  502  503 -0.00000000000E+00 -0.00000000000E+00 -0.57714440104E+03  0.57714440104E+03  0.00000000000E+00 0.  1.
         -6    2    1    2    0  503  0.12035698312E+03 -0.12601848887E+03 -0.21028916907E+03  0.32608453019E+03  0.17816599922E+03 0.  0.
        -24    2    3    3    0    0  0.11915713297E+03 -0.43359533154E+02 -0.75516764046E+02  0.16790857197E+03  0.80075186154E+02 0.  0.
          6    2    1    2  501    0 -0.12035698312E+03  0.12601848887E+03 -0.26081091119E+03  0.35710419162E+03  0.17068863277E+03 0.  0.
         24    2    5    5    0    0 -0.92448795215E+02  0.15834242506E+03 -0.22391563117E+03  0.30047332115E+03  0.80789253806E+02 0.  0.
          5    1    5    5  501    0 -0.27908187901E+02 -0.32323936189E+02 -0.36895280018E+02  0.56630870471E+02  0.47000000000E+01 0. -1.
        -13    1    6    6    0    0 -0.98359859659E+01  0.39137573223E+01 -0.58895429525E+02  0.59839249120E+02  0.00000000000E+00 0.  1.
         14    1    6    6    0    0 -0.82612809249E+02  0.15442866774E+03 -0.16502020164E+03  0.24063407203E+03  0.00000000000E+00 0. -1.
         -5    1    3    3    0  503  0.11998501457E+01 -0.82658955715E+02 -0.13477240503E+03  0.15817595821E+03  0.47000000000E+01 0.  1.
         11    1    4    4    0    0  0.63746419449E+02 -0.53610306337E+02 -0.13960719003E+02  0.84454559458E+02  0.00000000000E+00 0. -1.
        -12    1    4    4    0    0  0.55410713521E+02  0.10250773183E+02 -0.61556045044E+02  0.83454012517E+02  0.00000000000E+00 0.  1.
</event>
<event>
12    1  0.1039610E+000  0.2529988E+03  0.7818608E-02  0.1111475E+00
         21   -1    0    0  501  502  0.00000000000E+00  0.00000000000E+00  0.40283476073E+03  0.40283476073E+03  0.00000000000E+00 0. -1.
         21   -1    0    0  502  503 -0.00000000000E+00 -0.00000000000E+00 -0.17080403281E+03  0.17080403281E+03  0.00000000000E+00 0. -1.
         -6    2    1    2    0  503  0.99995704828E+02 -0.15582106907E+03  0.19247566840E+03  0.31789195626E+03  0.17242118890E+03 0.  0.
        -24    2    3    3    0    0  0.95061853055E+02 -0.29705348421E+02  0.10126184335E+03  0.16209860028E+03  0.78120622522E+02 0.  0.
          6    2    1    2  501    0 -0.99995704828E+02  0.15582106907E+03  0.39555059522E+02  0.25574683728E+03  0.17193747554E+03 0.  0.
         24    2    5    5    0    0 -0.46918401629E+02  0.91716564960E+02 -0.44210642903E+02  0.13757166872E+03  0.79737810283E+02 0.  0.
          5    1    5    5  501    0 -0.53077303199E+02  0.64104504112E+02  0.83765702424E+02  0.11817516856E+03  0.47000000000E+01 0. -1.
        -11    1    6    6    0    0 -0.60682564428E+02  0.61856768071E+02 -0.55638450304E+01  0.86830811082E+02  0.00000000000E+00 0.  1.
         12    1    6    6    0    0  0.13764162799E+02  0.29859796890E+02 -0.38646797872E+02  0.50740857636E+02  0.00000000000E+00 0. -1.
         -5    1    3    3    0  503  0.49338517735E+01 -0.12611572065E+03  0.91213825050E+02  0.15579335598E+03  0.47000000000E+01 0.  1.
         11    1    4    4    0    0  0.89227782635E+02 -0.32118103941E+02  0.11375600624E+03  0.14809996202E+03  0.00000000000E+00 0. -1.
        -12    1    4    4    0    0  0.58340704200E+01  0.24127555203E+01 -0.12494162889E+02  0.13998638261E+02  0.00000000000E+00 0.  1.
</event>
<event>
12    1  0.1039610E+000  0.1750829E+03  0.7818608E-02  0.1172905E+00
         21   -1    0    0  503  502  0.00000000000E+00  0.00000000000E+00  0.67901759500E+02  0.67901759500E+02  0.00000000000E+00 0.  1.
         21   -1    0    0  501  503 -0.00000000000E+00 -0.00000000000E+00 -0.85235591994E+03  0.85235591994E+03  0.00000000000E+00 0.  1.
          6    2    1    2  501    0  0.29790339694E+02  0.78953425667E+01 -0.75025348259E+02  0.18954347775E+03  0.17131294843E+03 0.  0.
         24    2    3    3    0    0 -0.21532876277E+01  0.69039377603E+02 -0.48010364241E+02  0.11530812425E+03  0.78866318137E+02 0.  0.
         -6    2    1    2    0  502 -0.29790339694E+02 -0.78953425667E+01 -0.70942881218E+03  0.73071420170E+03  0.17234907668E+03 0.  0.
        -24    2    5    5    0    0 -0.79529392873E+02 -0.40998547048E+02 -0.56263136750E+03  0.57215388093E+03  0.52916940305E+02 0.  0.
          5    1    3    3  501    0  0.31943627322E+02 -0.61144035036E+02 -0.27014984018E+02  0.74235353494E+02  0.47000000000E+01 0. -1.
        -13    1    4    4    0    0 -0.27854814168E+02 -0.25346472843E+00 -0.26224850140E+02  0.38258302126E+02  0.00000000000E+00 0.  1.
         14    1    4    4    0    0  0.25701526541E+02  0.69292842331E+02 -0.21785514101E+02  0.77049822125E+02  0.00000000000E+00 0. -1.
         -5    1    5    5    0  502  0.49739053179E+02  0.33103204481E+02 -0.14679744468E+03  0.15856032077E+03  0.47000000000E+01 0.  1.
         13    1    6    6    0    0 -0.36584017687E+02 -0.31186516199E+01 -0.11119718888E+03  0.11710222522E+03  0.00000000000E+00 0. -1.
        -14    1    6    6    0    0 -0.42945375185E+02 -0.37879895428E+02 -0.45143417862E+03  0.45505165570E+03  0.00000000000E+00 0.  1.
</event>
<event>
12    1  0.1039610E+000  0.2097875E+03  0.7818608E-02  0.1141739E+00
         21   -1    0    0  501  502  0.00000000000E+00  0.00000000000E+00  0.97154957639E+03  0.97154957639E+03  0.00000000000E+00 0.  1.
         21   -1    0    0  502  503 -0.00000000000E+00 -0.00000000000E+00 -0.56731353052E+02  0.56731353052E+02  0.00000000000E+00 0.  1.
         -6    2    1    2    0  503  0.12084827615E+03 -0.12037643861E+01  0.68827773178E+03  0.71953945231E+03  0.17147895634E+03 0.  0.
        -24    2    3    3    0    0  0.56868327826E+02  0.47017621160E+02  0.54197260434E+03  0.55266819616E+03  0.79140178089E+02 0.  0.
          6    2    1    2  501    0 -0.12084827615E+03  0.12037643861E+01  0.22654049155E+03  0.30874147713E+03  0.17144955669E+03 0.  0.
         24    2    5    5    0    0 -0.13100659730E+03  0.25556763329E+02  0.23377155584E+03  0.28098110363E+03  0.80531755144E+02 0.  0.
          5    1    5    5  501    0  0.10158321144E+02 -0.24352998943E+02 -0.72310642952E+01  0.27760373499E+02  0.47000000000E+01 0. -1.
        -11    1    6    6    0    0 -0.35332489168E+02  0.46021021166E+02  0.89714717165E+02  0.10684123575E+03  0.00000000000E+00 0.  1.
         12    1    6    6    0    0 -0.95674108128E+02 -0.20464257837E+02  0.14405683868E+03  0.17413986788E+03  0.00000000000E+00 0. -1.
         -5    1    3    3    0  503  0.63979948326E+02 -0.48221385546E+02  0.14630512745E+03  0.16687125615E+03  0.47000000000E+01 0.  1.
         13    1    4    4    0    0  0.60844306692E+02  0.69875260145E+01  0.22623007224E+03  0.23437342163E+03  0.00000000000E+00 0. -1.
        -14    1    4    4    0    0 -0.39759788656E+01  0.40030095145E+02  0.31574253209E+03  0.31829477454E+03  0.00000000000E+00 0.  1.
</event>
<event>
12    1  0.1039610E+000  0.2232927E+03  0.7818608E-02  0.1131646E+00
         21   -1    0    0  501  502  0.00000000000E+00  0.00000000000E+00  0.23540622741E+03  0.23540622741E+03  0.00000000000E+00 0.  1.
         21   -1    0    0  502  503 -0.00000000000E+00 -0.00000000000E+00 -0.22026830798E+03  0.22026830798E+03  0.00000000000E+00 0.  1.
         -6    2    1    2    0  503 -0.93062084213E+02 -0.10617934056E+03 -0.39649050320E+02  0.22678552285E+03  0.17298850339E+03 0.  0.
        -24    2    3    3    0    0 -0.78591830336E+02 -0.98514040708E+02 -0.89606646530E+02  0.17400298324E+03  0.79787186070E+02 0.  0.
          6    2    1    2  501    0  0.93062084213E+02  0.10617934056E+03  0.54786969751E+02  0.22888901254E+03  0.17162157244E+03 0.  0.
         24    2    5    5    0    0  0.76797279216E+02 -0.10300793958E+01  0.43953531470E+02  0.11981171429E+03  0.80771596457E+02 0.  0.
          5    1    5    5  501    0  0.16264804997E+02  0.10720941995E+03  0.10833438281E+02  0.10907729825E+03  0.47000000000E+01 0. -1.
        -13    1    6    6    0    0  0.57173361890E+02 -0.21668359980E+02 -0.68970247646E+01  0.61529505805E+02  0.00000000000E+00 0.  1.
         14    1    6    6    0    0  0.19623917327E+02  0.20638280584E+02  0.50850556234E+02  0.58282208486E+02  0.00000000000E+00 0. -1.
         -5    1    3    3    0  503 -0.14470253877E+02 -0.76652998477E+01  0.49957596210E+02  0.52782539614E+02  0.47000000000E+01 0.  1.
         13    1    4    4    0    0 -0.11965722388E+02 -0.23170530132E+02 -0.65610844938E+02  0.70603363605E+02  0.00000000000E+00 0. -1.
        -14    1    4    4    0    0 -0.66626107948E+02 -0.75343510575E+02 -0.23995801593E+02  0.10339961963E+03  0.00000000000E+00 0.  1.
</event>
<event>
12    1  0.1039610E+000  0.1947456E+03  0.7818608E-02  0.1154635E+00
         21   -1    0    0  501  502  0.00000000000E+00  0.00000000000E+00  0.19806060504E+04  0.19806060504E+04  0.00000000000E+00 0.  1.
         21   -1    0    0  502  503 -0.00000000000E+00 -0.00000000000E+00 -0.62286928432E+02  0.62286928432E+02  0.00000000000E+00 0.  1.
         -6    2    1    2    0  503 -0.61049882207E+02 -0.66458460473E+02  0.18122352798E+04  0.18226690762E+04  0.17257472870E+03 0.  0.
        -24    2    3    3    0    0 -0.79999675973E+02 -0.82692031594E+02  0.17476128335E+04  0.17532372818E+04  0.80327019994E+02 0.  0.
          6    2    1    2  501    0  0.61049882207E+02  0.66458460473E+02  0.10608384213E+03  0.22022390257E+03  0.17059006600E+03 0.  0.
         24    2    5    5    0    0  0.38494393180E+01  0.53207767661E+02  0.12559619515E+03  0.15817316972E+03  0.79990391053E+02 0.  0.
          5    1    5    5  501    0  0.57200442889E+02  0.13250692812E+02 -0.19512353021E+02  0.62050732849E+02  0.47000000000E+01 0. -1.
        -11    1    6    6    0    0 -0.17358438752E+02 -0.10459144759E+02  0.61696084780E+01  0.21184267128E+02  0.00000000000E+00 0.  1.
         12    1    6    6    0    0  0.21207878070E+02  0.63666912420E+02  0.11942658668E+03  0.13698890260E+03  0.00000000000E+00 0. -1.
         -5    1    3    3    0  503  0.18949793766E+02  0.16233571121E+02  0.64622446325E+02  0.69431794476E+02  0.47000000000E+01 0.  1.
         13    1    4    4    0    0 -0.53385693143E+02 -0.55441362783E+01  0.93426177453E+03  0.93580224034E+03  0.00000000000E+00 0. -1.
        -14    1    4    4    0    0 -0.26613982830E+02 -0.77147895315E+02  0.81335105896E+03  0.81743504143E+03  0.00000000000E+00 0.  1.
</event>
<event>
12    1  0.1039610E+000  0.8325801E+03  0.7818608E-02  0.9514103E-01
         21   -1    0    0  501  502  0.00000000000E+00  0.00000000000E+00  0.16666629243E+04  0.16666629243E+04  0.00000000000E+00 0.  1.
         21   -1    0    0  502  503 -0.00000000000E+00 -0.00000000000E+00 -0.41698894251E+03  0.41698894251E+03  0.00000000000E+00 0.  1.
         -6    2    1    2    0  503  0.76506131032E+03 -0.27925160843E+03  0.68067693505E+03  0.10754119139E+04  0.17288558419E+03 0.  0.
        -24    2    3    3    0    0  0.17040949827E+03 -0.50592538537E+02  0.13062293836E+03  0.23370101511E+03  0.77167417866E+02 0.  0.
          6    2    1    2  501    0 -0.76506131032E+03  0.27925160843E+03  0.56899704678E+03  0.10082399530E+04  0.17172621862E+03 0.  0.
         24    2    5    5    0    0 -0.17033127324E+03  0.62477521964E+02  0.15352929128E+03  0.25105413204E+03  0.80874906712E+02 0.  0.
          5    1    5    5  501    0 -0.59473003708E+03  0.21677408647E+03  0.41546775549E+03  0.75718582093E+03  0.47000000000E+01 0. -1.
        -11    1    6    6    0    0 -0.92099343950E+02  0.74902825618E+02  0.10238459179E+03  0.15676519728E+03  0.00000000000E+00 0.  1.
         12    1    6    6    0    0 -0.78231929294E+02 -0.12425303653E+02  0.51144699492E+02  0.94288934760E+02  0.00000000000E+00 0. -1.
         -5    1    3    3    0  503  0.59465181205E+03 -0.22865906990E+03  0.55005399669E+03  0.84171089876E+03  0.47000000000E+01 0.  1.
         11    1    4    4    0    0  0.12044176091E+03 -0.44711300323E+02  0.48362949295E+02  0.13727451698E+03  0.00000000000E+00 0. -1.
        -12    1    4    4    0    0  0.49967737357E+02 -0.58812382144E+01  0.82259989067E+02  0.96426498126E+02  0.00000000000E+00 0.  1.
</event>
<event>
12    1  0.1039610E+000  0.2564806E+03  0.7818608E-02  0.1109336E+00
         21   -1    0    0  501  502  0.00000000000E+00  0.00000000000E+00  0.16457981652E+03  0.16457981652E+03  0.00000000000E+00 0. -1.
         21   -1    0    0  502  503 -0.00000000000E+00 -0.00000000000E+00 -0.82950494751E+03  0.82950494751E+03  0.00000000000E+00 0. -1.
         -6    2    1    2    0  503 -0.14146053518E+03  0.12617813715E+03  0.25695529017E+02  0.25737642365E+03  0.17219279291E+03 0.  0.
        -24    2    3    3    0    0 -0.49667900643E+02 -0.18565249137E+01  0.33517936142E+02  0.99572613500E+02  0.79504127421E+02 0.  0.
          6    2    1    2  501    0  0.14146053518E+03 -0.12617813715E+03 -0.69062066001E+03  0.73670834038E+03  0.17277232835E+03 0.  0.
         24    2    5    5    0    0  0.52698421471E+02 -0.13263057653E+03 -0.37815945972E+03  0.41178613663E+03  0.78709922424E+02 0.  0.
          5    1    5    5  501    0  0.88762113705E+02  0.64524393783E+01 -0.31246120029E+03  0.32492220375E+03  0.47000000000E+01 0. -1.
        -11    1    6    6    0    0  0.63133059220E+02 -0.62796562448E+02 -0.25115566958E+03  0.26647394204E+03  0.00000000000E+00 0.  1.
         12    1    6    6    0    0 -0.10434637749E+02 -0.69834014079E+02 -0.12700379014E+03  0.14531219459E+03  0.00000000000E+00 0. -1.
         -5    1    3    3    0  503 -0.91792634533E+02  0.12803466206E+03 -0.78224071243E+01  0.15780381015E+03  0.47000000000E+01 0.  1.
         11    1    4    4    0    0 -0.55052461091E+02 -0.70256080413E+01  0.54206447871E+02  0.77578809164E+02  0.00000000000E+00 0. -1.
        -12    1    4    4    0    0  0.53845604482E+01  0.51690831277E+01 -0.20688511729E+02  0.21993804336E+02  0.00000000000E+00 0.  1.
</event>
<event>
12    1  0.1039610E+000  0.1861369E+03  0.7818608E-02  0.1162855E+00
         21   -1    0    0  503  502  0.00000000000E+00  0.00000000000E+00  0.36519816980E+02  0.36519816980E+02  0.00000000000E+00 0. -1.
         21   -1    0    0  501  503 -0.00000000000E+00 -0.00000000000E+00 -0.11141717230E+04  0.11141717230E+04  0.00000000000E+00 0. -1.
          6    2    1    2  501    0  0.64581657076E+02 -0.52702468307E+01 -0.30943526022E+03  0.36110541708E+03  0.17449463042E+03 0.  0.
         24    2    3    3    0    0  0.52268848763E+02  0.17536624334E+01 -0.65077484701E+02  0.11629170626E+03  0.80954147803E+02 0.  0.
         -6    2    1    2    0  502 -0.64581657076E+02  0.52702468307E+01 -0.76821664576E+03  0.78958612286E+03  0.17056044283E+03 0.  0.
        -24    2    5    5    0    0  0.36198613495E+02  0.29668446193E+01 -0.39345950396E+03  0.40147921242E+03  0.71105801213E+02 0.  0.
          5    1    3    3  501    0  0.12312808314E+02 -0.70239092642E+01 -0.24435777552E+03  0.24481371082E+03  0.47000000000E+01 0. -1.
        -11    1    4    4    0    0  0.66282086671E+02  0.47386777208E+01 -0.73965067219E+02  0.99431389655E+02  0.00000000000E+00 0.  1.
         12    1    4    4    0    0 -0.14013237908E+02 -0.29850152874E+01  0.88875825185E+01  0.16860316603E+02  0.00000000000E+00 0. -1.
         -5    1    5    5    0  502 -0.10078027057E+03  0.23034022114E+01 -0.37475714180E+03  0.38810691043E+03  0.47000000000E+01 0.  1.
         11    1    6    6    0    0 -0.59531541555E+01  0.29235706218E+02 -0.13010038832E+03  0.13347762960E+03  0.00000000000E+00 0. -1.
        -12    1    6    6    0    0  0.42151767650E+02 -0.26268861599E+02 -0.26335911564E+03  0.26800158283E+03  0.00000000000E+00 0.  1.
</event>
<event>
12    1  0.1039610E+000  0.4479709E+03  0.7818608E-02  0.1028402E+00
         21   -1    0    0  503  502  0.00000000000E+00  0.00000000000E+00  0.79075933454E+03  0.79075933454E+03  0.00000000000E+00 0. -1.
         21   -1    0    0  501  503 -0.00000000000E+00 -0.00000000000E+00 -0.73942039964E+03  0.73942039964E+03  0.00000000000E+00 0. -1.
          6    2    1    2  501    0  0.69587027248E+02  0.40731184226E+03  0.64605673536E+03  0.78562132007E+03  0.17048830471E+03 0.  0.
         24    2    3    3    0    0  0.39302443368E+02  0.27263282689E+03  0.30953455577E+03  0.42185647768E+03  0.79233239204E+02 0.  0.
         -6    2    1    2    0  502 -0.69587027248E+02 -0.40731184226E+03 -0.59471780046E+03  0.74455841411E+03  0.17301063154E+03 0.  0.
        -24    2    5    5    0    0 -0.90207634780E+02 -0.21094810764E+03 -0.26139438869E+03  0.35711743465E+03  0.81051305991E+02 0.  0.
          5    1    3    3  501    0  0.30284583880E+02  0.13467901537E+03  0.33652217959E+03  0.36376484239E+03  0.47000000000E+01 0. -1.
        -11    1    4    4    0    0  0.47682298883E+02  0.26114529589E+03  0.30934883684E+03  0.40763607550E+03  0.00000000000E+00 0.  1.
         12    1    4    4    0    0 -0.83798555147E+01  0.11487530998E+02  0.18571893425E+00  0.14220402188E+02  0.00000000000E+00 0. -1.
         -5    1    5    5    0  502  0.20620607532E+02 -0.19636373462E+03 -0.33332341177E+03  0.38744097946E+03  0.47000000000E+01 0.  1.
         11    1    6    6    0    0 -0.98813884689E+02 -0.17026556815E+03 -0.23981947320E+03  0.31027073215E+03  0.00000000000E+00 0. -1.
        -12    1    6    6    0    0  0.86062499085E+01 -0.40682539482E+02 -0.21574915495E+02  0.46846702497E+02  0.00000000000E+00 0.  1.
</event>
<event>
12    1  0.1039610E+000  0.2516146E+03  0.7818608E-02  0.1113180E+00
         21   -1    0    0  501  502  0.00000000000E+00  0.00000000000E+00  0.69135006666E+02  0.69135006666E+02  0.00000000000E+00 0. -1.
         21   -1    0    0  502  503 -0.00000000000E+00 -0.00000000000E+00 -0.89720502941E+03  0.89720502941E+03  0.00000000000E+00 0. -1.
         -6    2    1    2    0  503  0.71569470840E+02 -0.16436595405E+03 -0.39709852145E+03  0.47010332033E+03  0.17655463754E+03 0.  0.
        -24    2    3    3    0    0  0.69515950242E+02 -0.19147675626E+03 -0.37686258556E+03  0.43588642911E+03  0.80472076913E+02 0.  0.
          6    2    1    2  501    0 -0.71569470840E+02  0.16436595405E+03 -0.43097150129E+03  0.49623671575E+03  0.16845203211E+03 0.  0.
         24    2    5    5    0    0 -0.60765533589E+02  0.19006052094E+03 -0.35434867111E+03  0.41456613395E+03  0.80539723147E+02 0.  0.
          5    1    5    5  501    0 -0.10803937251E+02 -0.25694566883E+02 -0.76622830178E+02  0.81670581802E+02  0.47000000000E+01 0. -1.
        -13    1    6    6    0    0 -0.77293119839E+02  0.11790484365E+03 -0.22435424645E+03  0.26497284093E+03  0.00000000000E+00 0.  1.
         14    1    6    6    0    0  0.16527586250E+02  0.72155677286E+02 -0.12999442466E+03  0.14959329302E+03  0.00000000000E+00 0. -1.
         -5    1    3    3    0  503  0.20535205978E+01  0.27110802205E+02 -0.20235935886E+02  0.34216891212E+02  0.47000000000E+01 0.  1.
         13    1    4    4    0    0  0.15818265105E+02 -0.46882234205E+02 -0.34314259385E+02  0.60213202806E+02  0.00000000000E+00 0. -1.
        -14    1    4    4    0    0  0.53697685136E+02 -0.14459452205E+03 -0.34254832618E+03  0.37567322631E+03  0.00000000000E+00 0.  1.
</event>
<event>
12    1  0.1039610E+000  0.1858513E+03  0.7818608E-02  0.1162510E+00
         21   -1    0    0  503  502  0.00000000000E+00  0.00000000000E+00  0.97335839897E+02  0.97335839897E+02  0.00000000000E+00 0.  1.
         21   -1    0    0  501  503 -0.00000000000E+00 -0.00000000000E+00 -0.43495595801E+03  0.43495595801E+03  0.00000000000E+00 0.  1.
          6    2    1    2  501    0  0.30134065671E+02  0.62893223124E+02 -0.52731906484E+02  0.19214181699E+03  0.17109706147E+03 0.  0.
         24    2    3    3    0    0 -0.43400890257E+01  0.95014527361E+02 -0.25891574087E+01  0.12317348503E+03  0.78220246079E+02 0.  0.
         -6    2    1    2    0  502 -0.30134065671E+02 -0.62893223124E+02 -0.28488821162E+03  0.34014998091E+03  0.17227041814E+03 0.  0.
        -24    2    5    5    0    0  0.40753387647E+02 -0.54541338866E+02 -0.11816252746E+03  0.15872691521E+03  0.81217328612E+02 0.  0.
          5    1    3    3  501    0  0.34474154696E+02 -0.32121304237E+02 -0.50142749076E+02  0.68968331956E+02  0.47000000000E+01 0. -1.
        -11    1    4    4    0    0 -0.23459510682E+02 -0.26452514200E+01  0.46762017170E+00  0.23612807227E+02  0.00000000000E+00 0.  1.
         12    1    4    4    0    0  0.19119421656E+02  0.97659778781E+02 -0.30567775804E+01  0.99560677806E+02  0.00000000000E+00 0. -1.
         -5    1    5    5    0  502 -0.70887453318E+02 -0.83518842580E+01 -0.16672568417E+03  0.18142306570E+03  0.47000000000E+01 0.  1.
         13    1    6    6    0    0  0.12965887539E+02 -0.60256264437E+02 -0.11461538573E+03  0.13013692131E+03  0.00000000000E+00 0. -1.
        -14    1    6    6    0    0  0.27787500108E+02  0.57149255702E+01 -0.35471417291E+01  0.28589993896E+02  0.00000000000E+00 0.  1.
</event>
<event>
12    1  0.1039610E+000  0.2311323E+03  0.7818608E-02  0.1126245E+00
         21   -1    0    0  503  502  0.00000000000E+00  0.00000000000E+00  0.24369432711E+03  0.24369432711E+03  0.00000000000E+00 0.  1.
         21   -1    0    0  501  503 -0.00000000000E+00 -0.00000000000E+00 -0.34755325383E+03  0.34755325383E+03  0.00000000000E+00 0.  1.
          6    2    1    2  501    0  0.66052141086E+02  0.13994727805E+03  0.12936773945E+03  0.26289289183E+03  0.16860763502E+03 0.  0.
         24    2    3    3    0    0  0.20114836298E+02  0.15760218354E+03  0.99801953377E+02  0.20528944258E+03  0.83308285549E+02 0.  0.
         -6    2    1    2    0  502 -0.66052141086E+02 -0.13994727805E+03 -0.23322666616E+03  0.32835468912E+03  0.17167992917E+03 0.  0.
        -24    2    5    5    0    0 -0.95972283968E+02 -0.14723304318E+03 -0.16703133787E+03  0.25519589736E+03  0.79606720215E+02 0.  0.
          5    1    3    3  501    0  0.45937304789E+02 -0.17654905486E+02  0.29565786072E+02  0.57603449246E+02  0.47000000000E+01 0. -1.
        -11    1    4    4    0    0 -0.28889498535E+01  0.33831891363E+01 -0.12410963842E+02  0.13184233898E+02  0.00000000000E+00 0.  1.
         12    1    4    4    0    0  0.23003786151E+02  0.15421899440E+03  0.11221291722E+03  0.19210520868E+03  0.00000000000E+00 0. -1.
         -5    1    5    5    0  502  0.29920142881E+02  0.72857651300E+01 -0.66195328292E+02  0.73158791756E+02  0.47000000000E+01 0.  1.
         13    1    6    6    0    0 -0.45403851741E+02 -0.10011466519E+03 -0.53444480673E+02  0.12223243617E+03  0.00000000000E+00 0. -1.
        -14    1    6    6    0    0 -0.50568432226E+02 -0.47118377998E+02 -0.11358685720E+03  0.13296346119E+03  0.00000000000E+00 0.  1.
</event>
<event>
12    1  0.1039610E+000  0.2374923E+03  0.7818608E-02  0.1123003E+00
         21   -1    0    0  503  502  0.00000000000E+00  0.00000000000E+00  0.24222155044E+03  0.24222155044E+03  0.00000000000E+00 0.  1.
         21   -1    0    0  501  503 -0.00000000000E+00 -0.00000000000E+00 -0.24058280217E+03  0.24058280217E+03  0.00000000000E+00 0. -1.
          6    2    1    2  501    0  0.16294721795E+03  0.20066318519E+02  0.63715615664E+02  0.23733309642E+03  0.15910017600E+03 0.  0.
         24    2    3    3    0    0  0.75560145618E+02  0.39496579703E+02  0.86242041016E+02  0.14490168780E+03  0.79306330616E+02 0.  0.
         -6    2    1    2    0  502 -0.16294721795E+03 -0.20066318519E+02 -0.62076867392E+02  0.24547125619E+03  0.17160462457E+03 0.  0.
        -24    2    5    5    0    0 -0.15504136941E+03  0.23462712838E+02 -0.85140562631E+02  0.19535835316E+03  0.79546499742E+02 0.  0.
          5    1    3    3  501    0  0.87387072332E+02 -0.19430261184E+02 -0.22526425352E+02  0.92431408620E+02  0.47000000000E+01 0. -1.
        -13    1    4    4    0    0  0.53716331625E+02 -0.30505798162E+01  0.80368764245E+02  0.96715503342E+02  0.00000000000E+00 0.  1.
         14    1    4    4    0    0  0.21843813993E+02  0.42547159520E+02  0.58732767710E+01  0.48186184462E+02  0.00000000000E+00 0. -1.
         -5    1    5    5    0  502 -0.79058485360E+01 -0.43529031357E+02  0.23063695239E+02  0.50112903029E+02  0.47000000000E+01 0.  1.
         13    1    6    6    0    0 -0.93565713728E+00 -0.11196036401E+02 -0.23041656416E+02  0.25634832080E+02  0.00000000000E+00 0. -1.
        -14    1    6    6    0    0 -0.15410571228E+03  0.34658749239E+02 -0.62098906215E+02  0.16972352108E+03  0.00000000000E+00 0.  1.
</event>
<event>
12    1  0.1039610E+000  0.3013139E+03  0.7818608E-02  0.1084661E+00
         21   -1    0    0  501  502  0.00000000000E+00  0.00000000000E+00  0.58102876970E+02  0.58102876970E+02  0.00000000000E+00 0. -1.
         21   -1    0    0  502  503 -0.00000000000E+00 -0.00000000000E+00 -0.17389815353E+04  0.17389815353E+04  0.00000000000E+00 0. -1.
         -6    2    1    2    0  503  0.15712484784E+03 -0.19237827270E+03 -0.11283912298E+04  0.11677733294E+04  0.16949974560E+03 0.  0.
        -24    2    3    3    0    0  0.11124119228E+03 -0.11090107761E+03 -0.44855467901E+03  0.48151997315E+03  0.77372686476E+02 0.  0.
          6    2    1    2  501    0 -0.15712484784E+03  0.19237827270E+03 -0.55248742853E+03  0.62931108287E+03  0.17056512751E+03 0.  0.
         24    2    5    5    0    0 -0.13517071298E+03  0.17594508672E+03 -0.33529765680E+03  0.41034642685E+03  0.82048011491E+02 0.  0.
          5    1    5    5  501    0 -0.21954134859E+02  0.16433185982E+02 -0.21718977173E+03  0.21896465601E+03  0.47000000000E+01 0. -1.
        -11    1    6    6    0    0 -0.34412438391E+02  0.79706166398E+02 -0.19074816043E+03  0.20957611883E+03  0.00000000000E+00 0.  1.
         12    1    6    6    0    0 -0.10075827459E+03  0.96238920319E+02 -0.14454949637E+03  0.20077030802E+03  0.00000000000E+00 0. -1.
         -5    1    3    3    0  503  0.45883655559E+02 -0.81477195093E+02 -0.67983655082E+03  0.68625335627E+03  0.47000000000E+01 0.  1.
         13    1    4    4    0    0  0.12107841291E+03 -0.10671477209E+03 -0.39132802649E+03  0.42330325887E+03  0.00000000000E+00 0. -1.
        -14    1    4    4    0    0 -0.98372206281E+01 -0.41863055191E+01 -0.57226652516E+02  0.58216714282E+02  0.00000000000E+00 0.  1.
</event>
<event>
12    1  0.1039610E+000  0.4578885E+03  0.7818608E-02  0.1025519E+00
         21   -1    0    0  503  502  0.00000000000E+00  0.00000000000E+00  0.39194788692E+03  0.39194788692E+03  0.00000000000E+00 0. -1.
         21   -1    0    0  501  503 -0.00000000000E+00 -0.00000000000E+00 -0.54510778623E+03  0.54510778623E+03  0.00000000000E+00 0.  1.
          6    2    1    2  501    0 -0.59758269373E+02  0.41801509555E+03 -0.14668613696E+03  0.48081041987E+03  0.17707107673E+03 0.  0.
         24    2    3    3    0    0 -0.82415083074E+02  0.33097535017E+03 -0.59728161771E+02  0.35561845555E+03  0.80994470655E+02 0.  0.
         -6    2    1    2    0  502  0.59758269373E+02 -0.41801509555E+03 -0.64737623556E+01  0.45624525328E+03  0.17265616317E+03 0.  0.
        -24    2    5    5    0    0 -0.26838230680E+02 -0.16861208588E+03  0.31940685482E+02  0.18941464250E+03  0.75547159253E+02 0.  0.
          5    1    3    3  501    0  0.22656813701E+02  0.87039745373E+02 -0.86957975186E+02  0.12519196432E+03  0.47000000000E+01 0. -1.
        -11    1    4    4    0    0 -0.64586031096E+01  0.18829846543E+03 -0.41811830926E+02  0.19299288806E+03  0.00000000000E+00 0.  1.
         12    1    4    4    0    0 -0.75956479964E+02  0.14267688474E+03 -0.17916330845E+02  0.16262556748E+03  0.00000000000E+00 0. -1.
         -5    1    5    5    0  502  0.86596500053E+02 -0.24940300966E+03 -0.38414447838E+02  0.26683061079E+03  0.47000000000E+01 0.  1.
         13    1    6    6    0    0 -0.82787847995E+01 -0.14987019586E+03  0.28211106847E+01  0.15012518959E+03  0.00000000000E+00 0. -1.
        -14    1    6    6    0    0 -0.18559445880E+02 -0.18741890022E+02  0.29119574797E+02  0.39289452902E+02  0.00000000000E+00 0.  1.
</event>
<event>
12    1  0.1039610E+000  0.2741070E+03  0.7818608E-02  0.1099240E+00
         21   -1    0    0  501  502  0.00000000000E+00  0.00000000000E+00  0.28141164539E+03  0.28141164539E+03  0.00000000000E+00 0.  1.
         21   -1    0    0  502  503 -0.00000000000E+00 -0.00000000000E+00 -0.26500291645E+03  0.26500291645E+03  0.00000000000E+00 0.  1.
         -6    2    1    2    0  503 -0.21303990967E+03 -0.23877592845E+01  0.74875216431E+01  0.27420924498E+03  0.17246142336E+03 0.  0.
        -24    2    3    3    0    0 -0.17079941732E+03  0.15232400674E+02  0.65130389938E+02  0.20045614677E+03  0.80846967139E+02 0.  0.
          6    2    1    2  501    0  0.21303990967E+03  0.23877592845E+01  0.89212072940E+01  0.27220531686E+03  0.16918759435E+03 0.  0.
         24    2    5    5    0    0  0.55948915142E+02  0.46685229874E+02 -0.52431193270E+01  0.10830728572E+03  0.79957401448E+02 0.  0.
          5    1    5    5  501    0  0.15709099452E+03 -0.44297470590E+02  0.14164326621E+02  0.16389803114E+03  0.47000000000E+01 0. -1.
        -13    1    6    6    0    0  0.19522335419E+02  0.55620668924E+02  0.20950585058E+02  0.62559630802E+02  0.00000000000E+00 0.  1.
         14    1    6    6    0    0  0.36426579723E+02 -0.89354390497E+01 -0.26193704385E+02  0.45747654921E+02  0.00000000000E+00 0. -1.
         -5    1    3    3    0  503 -0.42240492346E+02 -0.17620159959E+02 -0.57642868295E+02  0.73753098212E+02  0.47000000000E+01 0.  1.
         13    1    4    4    0    0 -0.14092101232E+03  0.44267449428E+02  0.54648907619E+02  0.15749552976E+03  0.00000000000E+00 0. -1.
        -14    1    4    4    0    0 -0.29878405002E+02 -0.29035048754E+02  0.10481482319E+02  0.42960617002E+02  0.00000000000E+00 0.  1.
</event>
<event>
12    1  0.1039610E+000  0.2432129E+03  0.7818608E-02  0.1117885E+00
         21   -1    0    0  501  502  0.00000000000E+00  0.00000000000E+00  0.10021330933E+03  0.10021330933E+03  0.00000000000E+00 0. -1.
         21   -1    0    0  502  503 -0.00000000000E+00 -0.00000000000E+00 -0.66275763228E+03  0.66275763228E+03  0.00000000000E+00 0. -1.
         -6    2    1    2    0  503 -0.16081827756E+03  0.56151049189E+02 -0.40949449322E+03  0.47560920763E+03  0.17176413969E+03 0.  0.
        -24    2    3    3    0    0 -0.30549109500E+02  0.70274775790E+02 -0.14732782292E+03  0.18248297404E+03  0.75648900894E+02 0.  0.
          6    2    1    2  501    0  0.16081827756E+03 -0.56151049189E+02 -0.15304982973E+03  0.28736173398E+03  0.17360027952E+03 0.  0.
         24    2    5    5    0    0  0.76481288118E+02  0.33408284523E+02 -0.99546528087E+02  0.15312948997E+03  0.81077916467E+02 0.  0.
          5    1    5    5  501    0  0.84336989440E+02 -0.89559333712E+02 -0.53503301647E+02  0.13423224400E+03  0.47000000000E+01 0. -1.
        -11    1    6    6    0    0  0.15289325397E+02  0.89405197170E+01 -0.83424266152E+02  0.85283671045E+02  0.00000000000E+00 0.  1.
         12    1    6    6    0    0  0.61191962721E+02  0.24467764806E+02 -0.16122261935E+02  0.67845818929E+02  0.00000000000E+00 0. -1.
         -5    1    3    3    0  503 -0.13026916806E+03 -0.14123726601E+02 -0.26216667030E+03  0.29312623359E+03  0.47000000000E+01 0.  1.
         13    1    4    4    0    0  0.20299078933E+02  0.13778333671E+00 -0.20141651430E+02  0.28596463280E+02  0.00000000000E+00 0. -1.
        -14    1    4    4    0    0 -0.50848188433E+02  0.70136992453E+02 -0.12718617149E+03  0.15388651076E+03  0.00000000000E+00 0.  1.
</event>
<event>
12    1  0.1039610E+000  0.3209240E+03  0.7818608E-02  0.1075250E+00
         21   -1    0    0  501  502  0.00000000000E+00  0.00000000000E+00  0.93005536072E+02  0.93005536072E+02  0.00000000000E+00 0. -1.
         21   -1    0    0  502  503 -0.00000000000E+00 -0.00000000000E+00 -0.13234491400E+04  0.13234491400E+04  0.00000000000E+00 0. -1.
         -6    2    1    2    0  503  0.20235484270E+03 -0.17967791402E+03 -0.90170785408E+03  0.95704263044E+03  0.17211016013E+03 0.  0.
        -24    2    3    3    0    0  0.74064714413E+02 -0.13160031345E+02 -0.25588148504E+03  0.27785167701E+03  0.77893848845E+02 0.  0.
          6    2    1    2  501    0 -0.20235484270E+03  0.17967791402E+03 -0.32873574983E+03  0.45941204561E+03  0.17251260617E+03 0.  0.
         24    2    5    5    0    0 -0.17332735441E+03  0.20614168462E+03 -0.28262848074E+03  0.39865929676E+03  0.80706944179E+02 0.  0.
          5    1    5    5  501    0 -0.29027488289E+02 -0.26463770602E+02 -0.46107269090E+02  0.60752748858E+02  0.47000000000E+01 0. -1.
        -11    1    6    6    0    0 -0.58362831343E+02  0.70977426715E+02 -0.15460856661E+03  0.17985500842E+03  0.00000000000E+00 0.  1.
         12    1    6    6    0    0 -0.11496452307E+03  0.13516425791E+03 -0.12801991413E+03  0.21880428834E+03  0.00000000000E+00 0. -1.
         -5    1    3    3    0  503  0.12829012829E+03 -0.16651788267E+03 -0.64582636904E+03  0.67919095343E+03  0.47000000000E+01 0.  1.
         13    1    4    4    0    0  0.33929636616E-03 -0.31843689210E+02 -0.79537195390E+02  0.85674885428E+02  0.00000000000E+00 0. -1.
        -14    1    4    4    0    0  0.74064375116E+02  0.18683657865E+02 -0.17634428965E+03  0.19217679159E+03  0.00000000000E+00 0.  1.
</event>
<event>
12    1  0.1039610E+000  0.2048002E+03  0.7818608E-02  0.1147040E+00
         21   -1    0    0  503  502  0.00000000000E+00  0.00000000000E+00  0.10103944938E+04  0.10103944938E+04  0.00000000000E+00 0. -1.
         21   -1    0    0  501  503 -0.00000000000E+00 -0.00000000000E+00 -0.51058131652E+02  0.51058131652E+02  0.00000000000E+00 0. -1.
          6    2    1    2  501    0 -0.10692162212E+03  0.26626068182E+02  0.72947203923E+03  0.75767578659E+03  0.17263244415E+03 0.  0.
         24    2    3    3    0    0 -0.11599415426E+03  0.72370407027E+02  0.55390774433E+03  0.57596236656E+03  0.78909687762E+02 0.  0.
         -6    2    1    2    0  502  0.10692162212E+03 -0.26626068182E+02  0.22986432296E+03  0.30377683891E+03  0.16523189796E+03 0.  0.
        -24    2    5    5    0    0  0.50245163331E+02  0.37336947198E+02  0.72646841681E+02  0.12477149056E+03  0.79823161965E+02 0.  0.
          5    1    3    3  501    0  0.90725321309E+01 -0.45744338845E+02  0.17556429490E+03  0.18171342003E+03  0.47000000000E+01 0. -1.
        -11    1    4    4    0    0 -0.84644732815E+02  0.16978359426E+02  0.22585436494E+03  0.24179162443E+03  0.00000000000E+00 0.  1.
         12    1    4    4    0    0 -0.31349421440E+02  0.55392047601E+02  0.32805337939E+03  0.33417074213E+03  0.00000000000E+00 0. -1.
         -5    1    5    5    0  502  0.56676458793E+02 -0.63963015380E+02  0.15721748128E+03  0.17900534835E+03  0.47000000000E+01 0.  1.
         13    1    6    6    0    0  0.41659362942E+02  0.53626737821E+02  0.80007759603E+02  0.10494079820E+03  0.00000000000E+00 0. -1.
        -14    1    6    6    0    0  0.85858003889E+01 -0.16289790623E+02 -0.73609179219E+01  0.19830692361E+02  0.00000000000E+00 0.  1.
</event>
<event>
12    1  0.1039610E+000  0.2169103E+03  0.7818608E-02  0.1136230E+00
         21   -1    0    0  501  502  0.00000000000E+00  0.00000000000E+00  0.43837005075E+03  0.43837005075E+03  0.00000000000E+00 0.  1.
         21   -1    0    0  502  503 -0.00000000000E+00 -0.00000000000E+00 -0.11981265960E+03  0.11981265960E+03  0.00000000000E+00 0.  1.
         -6    2    1    2    0  503  0.69970753712E+02 -0.11193160796E+03  0.24953204042E+03  0.33055455656E+03  0.17197524366E+03 0.  0.
        -24    2    3    3    0    0  0.78128144056E+02 -0.13771632034E+03  0.24464245732E+03  0.30267279850E+03  0.81799139647E+02 0.  0.
          6    2    1    2  501    0 -0.69970753712E+02  0.11193160796E+03  0.69025350724E+02  0.22762815379E+03  0.17212055694E+03 0.  0.
         24    2    5    5    0    0 -0.65762691008E+02  0.30656041458E+01  0.56402255722E+02  0.11785134793E+03  0.79834806324E+02 0.  0.
          5    1    5    5  501    0 -0.42080627036E+01  0.10886600381E+03  0.12623095002E+02  0.10977680586E+03  0.47000000000E+01 0. -1.
        -13    1    6    6    0    0 -0.35627180425E+02  0.48714042667E+01  0.74449577208E+02  0.82678692001E+02  0.00000000000E+00 0.  1.
         14    1    6    6    0    0 -0.30135510583E+02 -0.18058001210E+01 -0.18047321486E+02  0.35172655928E+02  0.00000000000E+00 0. -1.
         -5    1    3    3    0  503 -0.81573903444E+01  0.25784712382E+02  0.48895831084E+01  0.27881758065E+02  0.47000000000E+01 0.  1.
         11    1    4    4    0    0 -0.12416762716E+02 -0.41537820630E+02  0.85402434504E+02  0.95776523002E+02  0.00000000000E+00 0. -1.
        -12    1    4    4    0    0  0.90544906772E+02 -0.96178499710E+02  0.15924002281E+03  0.20689627550E+03  0.00000000000E+00 0.  1.
</event>
<event>
12    1  0.1039610E+000  0.1734992E+03  0.7818608E-02  0.1174358E+00
         21   -1    0    0  503  502  0.00000000000E+00  0.00000000000E+00  0.13746769227E+04  0.13746769227E+04  0.00000000000E+00 0. -1.
         21   -1    0    0  501  503 -0.00000000000E+00 -0.00000000000E+00 -0.22666262221E+02  0.22666262221E+02  0.00000000000E+00 0. -1.
          6    2    1    2  501    0  0.20450881238E+02 -0.19232451636E+02  0.54362093571E+03  0.57063622948E+03  0.17121290520E+03 0.  0.
         24    2    3    3    0    0  0.60545996749E+02 -0.59103373031E+02  0.35236207988E+03  0.37113848865E+03  0.80160563834E+02 0.  0.
         -6    2    1    2    0  502 -0.20450881238E+02  0.19232451636E+02  0.80838972475E+03  0.82670695542E+03  0.17076977874E+03 0.  0.
        -24    2    5    5    0    0 -0.68401249926E+02 -0.52744102196E+01  0.35628968347E+03  0.37138689057E+03  0.79242245970E+02 0.  0.
          5    1    3    3  501    0 -0.40095115510E+02  0.39870921395E+02  0.19125885584E+03  0.19949774083E+03  0.47000000000E+01 0. -1.
        -11    1    4    4    0    0  0.50820272688E+02 -0.44423306985E+02  0.34583134866E+03  0.35235699515E+03  0.00000000000E+00 0.  1.
         12    1    4    4    0    0  0.97257240603E+01 -0.14680066047E+02  0.65307312214E+01  0.18781493495E+02  0.00000000000E+00 0. -1.
         -5    1    5    5    0  502  0.47950368688E+02  0.24506861856E+02  0.45210004128E+03  0.45532006486E+03  0.47000000000E+01 0.  1.
         13    1    6    6    0    0 -0.10158079458E+02 -0.36050221269E+02  0.10054203179E+03  0.10729168275E+03  0.00000000000E+00 0. -1.
        -14    1    6    6    0    0 -0.58243170468E+02  0.30775811049E+02  0.25574765168E+03  0.26409520782E+03  0.00000000000E+00 0.  1.
</event>
<event>
12    1  0.1039610E+000  0.2221271E+03  0.7818608E-02  0.1132367E+00
         21   -1    0    0  503  502  0.00000000000E+00  0.00000000000E+00  0.46225989756E+02  0.46225989756E+02  0.00000000000E+00 0. -1.
         21   -1    0    0  501  503 -0.00000000000E+00 -0.00000000000E+00 -0.17454981601E+04  0.17454981601E+04  0.00000000000E+00 0. -1.
          6    2    1    2  501    0 -0.11168312181E+03  0.84526313116E+02 -0.29098598666E+03  0.36607829045E+03  0.17240258989E+03 0.  0.
         24    2    3    3    0    0  0.58067134710E+01  0.93564320730E+01 -0.77682055909E+02  0.11117629108E+03  0.78768046474E+02 0.  0.
         -6    2    1    2    0  502  0.11168312181E+03 -0.84526313116E+02 -0.14082861837E+04  0.14256458594E+04  0.17198349916E+03 0.  0.
        -24    2    5    5    0    0 -0.92522528402E+01 -0.46543778322E+02 -0.79554022986E+03  0.79990810946E+03  0.68678954266E+02 0.  0.
          5    1    3    3  501    0 -0.11748983528E+03  0.75169881043E+02 -0.21330393075E+03  0.25490199937E+03  0.47000000000E+01 0. -1.
        -13    1    4    4    0    0 -0.11141966204E+02  0.22305619961E+02  0.53052842594E+01  0.25491766001E+02  0.00000000000E+00 0.  1.
         14    1    4    4    0    0  0.16948679675E+02 -0.12949187888E+02 -0.82987340168E+02  0.85684525078E+02  0.00000000000E+00 0. -1.
         -5    1    5    5    0  502  0.12093537465E+03 -0.37982534795E+02 -0.61274595384E+03  0.62573774997E+03  0.47000000000E+01 0.  1.
         13    1    6    6    0    0  0.22403921377E+00  0.12076476456E+02 -0.34472331602E+02  0.36527155970E+02  0.00000000000E+00 0. -1.
        -14    1    6    6    0    0 -0.94762920540E+01 -0.58620254778E+02 -0.76106789826E+03  0.76338095349E+03  0.00000000000E+00 0.  1.
</event>
<event>
12    1  0.1039610E+000  0.2468643E+03  0.7818608E-02  0.1115333E+00
         21   -1    0    0  501  502  0.00000000000E+00  0.00000000000E+00  0.29049026463E+02  0.29049026463E+02  0.00000000000E+00 0. -1.
         21   -1    0    0  502  503 -0.00000000000E+00 -0.00000000000E+00 -0.23655927899E+04  0.23655927899E+04  0.00000000000E+00 0. -1.
         -6    2    1    2    0  503 -0.12559062736E+03  0.12494241492E+03 -0.76470291085E+03  0.80356239475E+03  0.17192547126E+03 0.  0.
        -24    2    3    3    0    0 -0.15720884062E+01  0.90704315661E+02 -0.33279003897E+03  0.35286996710E+03  0.74419482005E+02 0.  0.
          6    2    1    2  501    0  0.12559062736E+03 -0.12494241492E+03 -0.15718408526E+04  0.15910794216E+04  0.17165793686E+03 0.  0.
         24    2    5    5    0    0  0.32594827517E+02 -0.80716596467E+02 -0.47726084290E+03  0.49165610486E+03  0.79813667731E+02 0.  0.
          5    1    5    5  501    0  0.92995799845E+02 -0.44225818454E+02 -0.10945800097E+04  0.10994233167E+04  0.47000000000E+01 0. -1.
        -13    1    6    6    0    0  0.40902950248E+01 -0.87173188851E+02 -0.31913779915E+03  0.33085469653E+03  0.00000000000E+00 0.  1.
         14    1    6    6    0    0  0.28504532492E+02  0.64565923839E+01 -0.15812304375E+03  0.16080140833E+03  0.00000000000E+00 0. -1.
         -5    1    3    3    0  503 -0.12401853896E+03  0.34238099260E+02 -0.43191287188E+03  0.45069242765E+03  0.47000000000E+01 0.  1.
         13    1    4    4    0    0 -0.30319297736E+02  0.70683819636E+02 -0.17366160194E+03  0.18993107740E+03  0.00000000000E+00 0. -1.
        -14    1    4    4    0    0  0.28747209330E+02  0.20020496025E+02 -0.15912843703E+03  0.16293888970E+03  0.00000000000E+00 0.  1.
</event>
<event>
12    1  0.1039610E+000  0.2163919E+03  0.7818608E-02  0.1136693E+00
         21   -1    0    0  503  502  0.00000000000E+00  0.00000000000E+00  0.18026434473E+03  0.18026434473E+03  0.00000000000E+00 0. -1.
         21   -1    0    0  501  503 -0.00000000000E+00 -0.00000000000E+00 -0.36187011443E+03  0.36187011443E+03  0.00000000000E+00 0. -1.
          6    2    1    2  501    0 -0.85266023520E+02  0.99241232179E+02  0.53520517064E+02  0.22291227252E+03  0.17235521043E+03 0.  0.
         24    2    3    3    0    0 -0.55161843830E+02 -0.39258041021E+01  0.35486338586E+02  0.11383880827E+03  0.92961029955E+02 0.  0.
         -6    2    1    2    0  502  0.85266023520E+02 -0.99241232179E+02 -0.23512628677E+03  0.31922218664E+03  0.17175365144E+03 0.  0.
        -24    2    5    5    0    0  0.10781556769E+03 -0.30657014560E+02 -0.88781770491E+02  0.15597058851E+03  0.62294241541E+02 0.  0.
          5    1    3    3  501    0 -0.30104179690E+02  0.10316703628E+03  0.18034178478E+02  0.10907346425E+03  0.47000000000E+01 0. -1.
        -11    1    4    4    0    0  0.53979781037E+01  0.29278944171E+02 -0.96908616458E+01  0.31309863283E+02  0.00000000000E+00 0.  1.
         12    1    4    4    0    0 -0.60559821934E+02 -0.33204748273E+02  0.45177200232E+02  0.82528944991E+02  0.00000000000E+00 0. -1.
         -5    1    5    5    0  502 -0.22549544170E+02 -0.68584217619E+02 -0.14634451628E+03  0.16325159813E+03  0.47000000000E+01 0.  1.
         11    1    6    6    0    0  0.67318598813E+02  0.10425976661E+02 -0.32880281558E+02  0.75641309156E+02  0.00000000000E+00 0. -1.
        -12    1    6    6    0    0  0.40496968876E+02 -0.41082991220E+02 -0.55901488933E+02  0.80329279349E+02  0.00000000000E+00 0.  1.
</event>
<event>
12    1  0.1039610E+000  0.2270323E+03  0.7818608E-02  0.1128766E+00
         21   -1    0    0  503  502  0.00000000000E+00  0.00000000000E+00  0.70749526265E+02  0.70749526265E+02  0.00000000000E+00 0.  1.
         21   -1    0    0  501  503 -0.00000000000E+00 -0.00000000000E+00 -0.90247308658E+03  0.90247308658E+03  0.00000000000E+00 0.  1.
          6    2    1    2  501    0  0.10698989532E+03  0.10192035647E+03 -0.20193006372E+03  0.30375752378E+03  0.17221581186E+03 0.  0.
         24    2    3    3    0    0  0.21201012755E+02  0.84733474226E+02 -0.17703936150E+03  0.21267098059E+03  0.79099721048E+02 0.  0.
         -6    2    1    2    0  502 -0.10698989532E+03 -0.10192035647E+03 -0.62979349660E+03  0.66946508907E+03  0.17236316417E+03 0.  0.
        -24    2    5    5    0    0 -0.12422581651E+03 -0.92134369206E+02 -0.62475892704E+03  0.64848225283E+03  0.79276224912E+02 0.  0.
          5    1    3    3  501    0  0.85788882562E+02  0.17186882249E+02 -0.24890702221E+02  0.91086543187E+02  0.47000000000E+01 0. -1.
        -11    1    4    4    0    0 -0.73541920478E+01  0.86774757850E+01  0.56736121841E+01  0.12711121189E+02  0.00000000000E+00 0.  1.
         12    1    4    4    0    0  0.28555204802E+02  0.76055998441E+02 -0.18271297368E+03  0.19995985940E+03  0.00000000000E+00 0. -1.
         -5    1    5    5    0  502  0.17235921190E+02 -0.97859872683E+01 -0.50345695529E+01  0.20982836240E+02  0.47000000000E+01 0.  1.
         13    1    6    6    0    0 -0.14957994101E+02  0.14573231736E+02 -0.65901275826E+02  0.69131026510E+02  0.00000000000E+00 0. -1.
        -14    1    6    6    0    0 -0.10926782240E+03 -0.10670760094E+03 -0.55885765122E+03  0.57935122632E+03  0.00000000000E+00 0.  1.
</event>
<event>
12    1  0.1039610E+000  0.2646030E+03  0.7818608E-02  0.1104545E+00
         21   -1    0    0  501  502  0.00000000000E+00  0.00000000000E+00  0.99609433285E+03  0.99609433285E+03  0.00000000000E+00 0. -1.
         21   -1    0    0  502  503 -0.00000000000E+00 -0.00000000000E+00 -0.75892497384E+02  0.75892497384E+02  0.00000000000E+00 0. -1.
         -6    2    1    2    0  503  0.12678991774E+03  0.15535816949E+03  0.60963327616E+03  0.66458066536E+03  0.17263512186E+03 0.  0.
        -24    2    3    3    0    0  0.21794257072E+02  0.78137157061E+01  0.19376161731E+03  0.21096763509E+03  0.80173155829E+02 0.  0.
          6    2    1    2  501    0 -0.12678991774E+03 -0.15535816949E+03  0.31056855930E+03  0.40740616487E+03  0.17121655609E+03 0.  0.
         24    2    5    5    0    0 -0.16002937275E+03 -0.13447261899E+03  0.27869036126E+03  0.35661859652E+03  0.76264149642E+02 0.  0.
          5    1    5    5  501    0  0.33239455009E+02 -0.20885550495E+02  0.31878198042E+02  0.50787568353E+02  0.47000000000E+01 0. -1.
        -11    1    6    6    0    0 -0.63152382052E+02 -0.13922917647E+02  0.56310631839E+02  0.85749392142E+02  0.00000000000E+00 0.  1.
         12    1    6    6    0    0 -0.96876990701E+02 -0.12054970135E+03  0.22237972942E+03  0.27086920437E+03  0.00000000000E+00 0. -1.
         -5    1    3    3    0  503  0.10499566067E+03  0.14754445378E+03  0.41587165885E+03  0.45361303028E+03  0.47000000000E+01 0.  1.
         11    1    4    4    0    0  0.16249856264E+02 -0.12398825000E+02  0.18816797953E+03  0.18927487210E+03  0.00000000000E+00 0. -1.
        -12    1    4    4    0    0  0.55444008081E+01  0.20212540706E+02  0.55936377834E+01  0.21692762981E+02  0.00000000000E+00 0.  1.
</event>
<event>
12    1  0.1039610E+000  0.2273086E+03  0.7818608E-02  0.1128860E+00
         21   -1    0    0  501  502  0.00000000000E+00  0.00000000000E+00  0.88790880175E+03  0.88790880175E+03  0.00000000000E+00 0.  1.
         21   -1    0    0  502  503 -0.00000000000E+00 -0.00000000000E+00 -0.78246507033E+02  0.78246507033E+02  0.00000000000E+00 0.  1.
         -6    2    1    2    0  503 -0.13081015260E+03 -0.64325213714E+02  0.65093572069E+03  0.68891292664E+03  0.17214725929E+03 0.  0.
        -24    2    3    3    0    0 -0.15357631924E+03 -0.23043406688E+02  0.56133780756E+03  0.58756026524E+03  0.77525780705E+02 0.  0.
          6    2    1    2  501    0  0.13081015260E+03  0.64325213714E+02  0.15872657402E+03  0.27724238214E+03  0.17441382976E+03 0.  0.
         24    2    5    5    0    0  0.22226160191E+02  0.23366767699E+02  0.13259629435E+03  0.15819214391E+03  0.80018554651E+02 0.  0.
          5    1    5    5  501    0  0.10858399241E+03  0.40958446015E+02  0.26130279671E+02  0.11905023823E+03  0.47000000000E+01 0. -1.
        -11    1    6    6    0    0  0.25947536280E+01  0.48547720257E+02  0.50469559883E+02  0.70077031639E+02  0.00000000000E+00 0.  1.
         12    1    6    6    0    0  0.19631406563E+02 -0.25180952558E+02  0.82126734472E+02  0.88115112270E+02  0.00000000000E+00 0. -1.
         -5    1    3    3    0  503  0.22766166646E+02 -0.41281807026E+02  0.89597913133E+02  0.10135266140E+03  0.47000000000E+01 0.  1.
         13    1    4    4    0    0 -0.14177021378E+03 -0.89629115050E+01  0.38683651358E+03  0.41209418285E+03  0.00000000000E+00 0. -1.
        -14    1    4    4    0    0 -0.11806105460E+02 -0.14080495183E+02  0.17450129398E+03  0.17546608239E+03  0.00000000000E+00 0.  1.
</event>
<event>
12    1  0.1039610E+000  0.1856151E+03  0.7818608E-02  0.1162701E+00
         21   -1    0    0  501  502  0.00000000000E+00  0.00000000000E+00  0.92356731516E+03  0.92356731516E+03  0.00000000000E+00 0. -1.
         21   -1    0    0  502  503 -0.00000000000E+00 -0.00000000000E+00 -0.49969620910E+02  0.49969620910E+02  0.00000000000E+00 0. -1.
         -6    2    1    2    0  503  0.44234942141E+02 -0.53639952408E+02  0.18903654908E+03  0.26425778577E+03  0.17106544318E+03 0.  0.
        -24    2    3    3    0    0 -0.58008261617E+01 -0.91862902484E+02  0.11239326014E+03  0.16495594408E+03  0.78139465870E+02 0.  0.
          6    2    1    2  501    0 -0.44234942141E+02  0.53639952408E+02  0.68456114517E+03  0.70927915030E+03  0.17210164724E+03 0.  0.
         24    2    5    5    0    0 -0.63299950041E+02  0.20335902292E+02  0.29606462667E+03  0.31886364194E+03  0.97976152166E+02 0.  0.
          5    1    5    5  501    0  0.19065007900E+02  0.33304050116E+02  0.38849651850E+03  0.39041550836E+03  0.47000000000E+01 0. -1.
        -11    1    6    6    0    0  0.11728647214E+00  0.45416284360E+02  0.16476400969E+03  0.17090883982E+03  0.00000000000E+00 0.  1.
         12    1    6    6    0    0 -0.63417236513E+02 -0.25080382068E+02  0.13130061698E+03  0.14795480212E+03  0.00000000000E+00 0. -1.
         -5    1    3    3    0  503  0.50035768302E+02  0.38222950075E+02  0.76643288942E+02  0.99301841685E+02  0.47000000000E+01 0.  1.
         11    1    4    4    0    0  0.12246601333E+02 -0.51397567016E+01  0.61244529970E+02  0.62668084336E+02  0.00000000000E+00 0. -1.
        -12    1    4    4    0    0 -0.18047427494E+02 -0.86723145782E+02  0.51148730172E+02  0.10228785975E+03  0.00000000000E+00 0.  1.
</event>
<event>
12    1  0.1039610E+000  0.1733963E+03  0.7818608E-02  0.1174758E+00
         21   -1    0    0  503  502  0.00000000000E+00  0.00000000000E+00  0.16576786576E+03  0.16576786576E+03  0.00000000000E+00 0.  1.
         21   -1    0    0  501  503 -0.00000000000E+00 -0.00000000000E+00 -0.19600462101E+03  0.19600462101E+03  0.00000000000E+00 0.  1.
          6    2    1    2  501    0  0.92336420656E+01  0.14540412459E+02  0.37091747932E+02  0.17576335943E+03  0.17093939574E+03 0.  0.
         24    2    3    3    0    0 -0.49421317761E+02 -0.22946497792E+02  0.43140821300E+02  0.10573226605E+03  0.79681699348E+02 0.  0.
         -6    2    1    2    0  502 -0.92336420656E+01 -0.14540412459E+02 -0.67328503182E+02  0.18600912733E+03  0.17253864601E+03 0.  0.
        -24    2    5    5    0    0  0.15394794724E+02  0.28830880626E+02  0.15110007936E+02  0.89542412456E+02  0.81983607547E+02 0.  0.
          5    1    3    3  501    0  0.58654959826E+02  0.37486910251E+02 -0.60490733675E+01  0.70031093387E+02  0.47000000000E+01 0. -1.
        -11    1    4    4    0    0 -0.39330239353E+02  0.24357287776E+02  0.31546191895E+02  0.55993815895E+02  0.00000000000E+00 0.  1.
         12    1    4    4    0    0 -0.10091078408E+02 -0.47303785568E+02  0.11594629405E+02  0.49738450152E+02  0.00000000000E+00 0. -1.
         -5    1    5    5    0  502 -0.24628436789E+02 -0.43371293085E+02 -0.82438511117E+02  0.96466714870E+02  0.47000000000E+01 0.  1.
         13    1    6    6    0    0 -0.15074876001E+02  0.44827140480E+02 -0.81698021359E+01  0.47994479651E+02  0.00000000000E+00 0. -1.
        -14    1    6    6    0    0  0.30469670725E+02 -0.15996259854E+02  0.23279810071E+02  0.41547932805E+02  0.00000000000E+00 0.  1.
</event>
<event>
12    1  0.1039610E+000  0.3031619E+03  0.7818608E-02  0.1083881E+00
         21   -1    0    0  501  502  0.00000000000E+00  0.00000000000E+00  0.58193591079E+03  0.58193591079E+03  0.00000000000E+00 0. -1.
         21   -1    0    0  502  503 -0.00000000000E+00 -0.00000000000E+00 -0.22186763283E+03  0.22186763283E+03  0.00000000000E+00 0. -1.
         -6    2    1    2    0  503 -0.96338439407E+01 -0.24603504113E+03  0.39690548259E+03  0.49841180923E+03  0.17393768154E+03 0.  0.
        -24    2    3    3    0    0 -0.59549032035E+02 -0.12924072544E+03  0.15636511508E+03  0.22635630648E+03  0.80857132880E+02 0.  0.
          6    2    1    2  501    0  0.96338439407E+01  0.24603504113E+03 -0.36837204624E+02  0.30539173439E+03  0.17686457920E+03 0.  0.
         24    2    5    5    0    0 -0.50468620058E+02  0.17787879476E+03  0.22702994886E+02  0.19665027286E+03  0.62991718535E+02 0.  0.
          5    1    5    5  501    0  0.60102463998E+02  0.68156246370E+02 -0.59540199510E+02  0.10874146153E+03  0.47000000000E+01 0. -1.
        -13    1    6    6    0    0  0.11522509990E+01  0.86133251541E+02 -0.92516970841E+01  0.86636358432E+02  0.00000000000E+00 0.  1.
         14    1    6    6    0    0 -0.51620871057E+02  0.91745543214E+02  0.31954691970E+02  0.11001391443E+03  0.00000000000E+00 0. -1.
         -5    1    3    3    0  503  0.49915188094E+02 -0.11679431568E+03  0.24054036751E+03  0.27205550276E+03  0.47000000000E+01 0.  1.
         11    1    4    4    0    0 -0.61309824516E+02 -0.44202628994E+02  0.95376425276E+02  0.12169399940E+03  0.00000000000E+00 0. -1.
        -12    1    4    4    0    0  0.17607924814E+01 -0.85038096447E+02  0.60988689808E+02  0.10466230707E+03  0.00000000000E+00 0.  1.
</event>
<event>
12    1  0.1039610E+000  0.2392975E+03  0.7818608E-02  0.1120357E+00
         21   -1    0    0  503  502  0.00000000000E+00  0.00000000000E+00  0.97344090645E+02  0.97344090645E+02  0.00000000000E+00 0.  1.
         21   -1    0    0  501  503 -0.00000000000E+00 -0.00000000000E+00 -0.14101843724E+04  0.14101843724E+04  0.00000000000E+00 0.  1.
          6    2    1    2  501    0 -0.13726942036E+03  0.93258563205E+02 -0.80150467506E+02  0.25182648037E+03  0.17161708947E+03 0.  0.
         24    2    3    3    0    0 -0.10882577845E+03  0.85428591479E+02  0.65437409384E+01  0.16012956112E+03  0.80358954091E+02 0.  0.
         -6    2    1    2    0  502  0.13726942036E+03 -0.93258563205E+02 -0.12326898143E+04  0.12557019827E+04  0.17240428580E+03 0.  0.
        -24    2    5    5    0    0  0.14727920636E+03 -0.10816938111E+03 -0.12104121045E+04  0.12267034541E+04  0.79448864147E+02 0.  0.
          5    1    3    3  501    0 -0.28443641908E+02  0.78299717266E+01 -0.86694208444E+02  0.91696919250E+02  0.47000000000E+01 0. -1.
        -11    1    4    4    0    0 -0.25988421524E+02 -0.14351516554E+01 -0.24930026872E+02  0.36041142510E+02  0.00000000000E+00 0.  1.
         12    1    4    4    0    0 -0.82837356924E+02  0.86863743134E+02  0.31473767810E+02  0.12408841861E+03  0.00000000000E+00 0. -1.
         -5    1    5    5    0  502 -0.10009786006E+02  0.14910817906E+02 -0.22277709781E+02  0.28998528576E+02  0.47000000000E+01 0.  1.
         13    1    6    6    0    0  0.69438250610E+02 -0.98642362105E+02 -0.70609604146E+03  0.71632646609E+03  0.00000000000E+00 0. -1.
        -14    1    6    6    0    0  0.77840955751E+02 -0.95270190066E+01 -0.50431606305E+03  0.51037698805E+03  0.00000000000E+00 0.  1.
</event>
<event>
12    1  0.1039610E+000  0.2966115E+03  0.7818608E-02  0.1087731E+00
         21   -1    0    0  501  502  0.00000000000E+00  0.00000000000E+00  0.14679410629E+03  0.14679410629E+03  0.00000000000E+00 0.  1.
         21   -1    0    0  502  503 -0.00000000000E+00 -0.00000000000E+00 -0.60455168035E+03  0.60455168035E+03  0.00000000000E+00 0.  1.
         -6    2    1    2    0  503 -0.22237595626E+03 -0.93860882257E+02 -0.16726045490E+03  0.34052086623E+03  0.17238755589E+03 0.  0.
        -24    2    3    3    0    0 -0.14681017455E+03 -0.99518607076E+02 -0.49043032123E+02  0.20002301478E+03  0.78401574819E+02 0.  0.
          6    2    1    2  501    0  0.22237595626E+03  0.93860882257E+02 -0.29049711916E+03  0.41082492041E+03  0.16164036579E+03 0.  0.
         24    2    5    5    0    0  0.66935401726E+02  0.22148242771E+02 -0.17280420456E+03  0.20303131896E+03  0.79934540132E+02 0.  0.
          5    1    5    5  501    0  0.15544055453E+03  0.71712639487E+02 -0.11769291460E+03  0.20779360145E+03  0.47000000000E+01 0. -1.
        -13    1    6    6    0    0  0.57517627284E+02 -0.98625925677E+01 -0.53571907930E+02  0.79218037717E+02  0.00000000000E+00 0.  1.
         14    1    6    6    0    0  0.94177744421E+01  0.32010835339E+02 -0.11923229663E+03  0.12381328125E+03  0.00000000000E+00 0. -1.
         -5    1    3    3    0  503 -0.75565781705E+02  0.56577248191E+01 -0.11821742278E+03  0.14049785145E+03  0.47000000000E+01 0.  1.
         11    1    4    4    0    0 -0.32453402582E+02 -0.65851966810E+02 -0.29974540942E+02  0.79298032614E+02  0.00000000000E+00 0. -1.
        -12    1    4    4    0    0 -0.11435677197E+03 -0.33666640267E+02 -0.19068491182E+02  0.12072498216E+03  0.00000000000E+00 0.  1.
</event>
<event>
12    1  0.1039610E+000  0.2877695E+03  0.7818608E-02  0.1091604E+00
         21   -1    0    0  503  502  0.00000000000E+00  0.00000000000E+00  0.20630829838E+03  0.20630829838E+03  0.00000000000E+00 0. -1.
         21   -1    0    0  501  503 -0.00000000000E+00 -0.00000000000E+00 -0.40379973396E+03  0.40379973396E+03  0.00000000000E+00 0. -1.
          6    2    1    2  501    0 -0.22701759867E+03  0.40689455049E+02 -0.12643905763E+03  0.31432170368E+03  0.17210077353E+03 0.  0.
         24    2    3    3    0    0 -0.14881899633E+03  0.24554152646E+02 -0.15384729978E+03  0.22977188919E+03  0.79850668943E+02 0.  0.
         -6    2    1    2    0  502  0.22701759867E+03 -0.40689455049E+02 -0.71052377951E+02  0.29578632866E+03  0.17102189904E+03 0.  0.
        -24    2    5    5    0    0  0.11502604222E+03 -0.79789011561E+02 -0.75023103709E+01  0.16113275416E+03  0.79436786494E+02 0.  0.
          5    1    3    3  501    0 -0.78198602338E+02  0.16135302403E+02  0.27408242158E+02  0.84549814485E+02  0.47000000000E+01 0. -1.
        -13    1    4    4    0    0 -0.10502698597E+03 -0.82818821315E+01 -0.60303069966E+02  0.12139076406E+03  0.00000000000E+00 0.  1.
         14    1    4    4    0    0 -0.43792010366E+02  0.32836034777E+02 -0.93544229817E+02  0.10838112513E+03  0.00000000000E+00 0. -1.
         -5    1    5    5    0  502  0.11199155645E+03  0.39099556512E+02 -0.63550067580E+02  0.13465357450E+03  0.47000000000E+01 0.  1.
         13    1    6    6    0    0 -0.12258137598E+02 -0.76032944120E+01 -0.30092751858E+01  0.14735255696E+02  0.00000000000E+00 0. -1.
        -14    1    6    6    0    0  0.12728417981E+03 -0.72185717149E+02 -0.44930351851E+01  0.14639749846E+03  0.00000000000E+00 0.  1.
</event>
<event>
12    1  0.1039610E+000  0.2653338E+03  0.7818608E-02  0.1104167E+00
         21   -1    0    0  501  502  0.00000000000E+00  0.00000000000E+00  0.12627966424E+04  0.12627966424E+04  0.00000000000E+00 0.  1.
         21   -1    0    0  502  503 -0.00000000000E+00 -0.00000000000E+00 -0.59313334910E+02  0.59313334910E+02  0.00000000000E+00 0.  1.
         -6    2    1    2    0  503  0.20058138843E+03 -0.25762624419E+02  0.76835282856E+03  0.81246247189E+03  0.16980162803E+03 0.  0.
        -24    2    3    3    0    0  0.36677690176E+02 -0.43425129641E+02  0.31110084835E+03  0.32637827158E+03  0.80672445562E+02 0.  0.
          6    2    1    2  501    0 -0.20058138843E+03  0.25762624419E+02  0.43513047891E+03  0.50964750539E+03  0.17177147573E+03 0.  0.
         24    2    5    5    0    0 -0.34973361978E+02 -0.23892668623E+02  0.18306296793E+03  0.20394865580E+03  0.79303267979E+02 0.  0.
          5    1    5    5  501    0 -0.16560802645E+03  0.49655293043E+02  0.25206751097E+03  0.30569884959E+03  0.47000000000E+01 0. -1.
        -11    1    6    6    0    0 -0.13384506900E+02 -0.21308512264E+02  0.64158886971E+01  0.25968468334E+02  0.00000000000E+00 0.  1.
         12    1    6    6    0    0 -0.21588855078E+02 -0.25841563595E+01  0.17664707923E+03  0.17798018746E+03  0.00000000000E+00 0. -1.
         -5    1    3    3    0  503  0.16390369826E+03  0.17662505222E+02  0.45725198021E+03  0.48608420031E+03  0.47000000000E+01 0.  1.
         11    1    4    4    0    0  0.31403412820E+02  0.17630667496E+02  0.89905450116E+02  0.96850424540E+02  0.00000000000E+00 0. -1.
        -12    1    4    4    0    0  0.52742773560E+01 -0.61055797137E+02  0.22119539824E+03  0.22952784704E+03  0.00000000000E+00 0.  1.
</event>
<event>
12    1  0.1039610E+000  0.4134346E+03  0.7818608E-02  0.1039304E+00
         21   -1    0    0  503  502  0.00000000000E+00  0.00000000000E+00  0.92163755554E+03  0.92163755554E+03  0.00000000000E+00 0.  1.
         21   -1    0    0  501  503 -0.00000000000E+00 -0.00000000000E+00 -0.19103319150E+03  0.19103319150E+03  0.00000000000E+00 0.  1.
          6    2    1    2  501    0  0.37302634030E+03 -0.42362145899E+02  0.46348862289E+03  0.62045235146E+03  0.17086899928E+03 0.  0.
         24    2    3    3    0    0  0.98138230405E+02  0.13935292862E+02  0.18798800664E+03  0.22718964775E+03  0.80314013407E+02 0.  0.
         -6    2    1    2    0  502 -0.37302634030E+03  0.42362145899E+02  0.26711574114E+03  0.49221839558E+03  0.17316156565E+03 0.  0.
        -24    2    5    5    0    0 -0.71614308937E+02 -0.97555263316E+01  0.75547007996E+02  0.13126668977E+03  0.79371366923E+02 0.  0.
          5    1    3    3  501    0  0.27488810989E+03 -0.56297438761E+02  0.27550061626E+03  0.39326270371E+03  0.47000000000E+01 0. -1.
        -13    1    4    4    0    0  0.94627094894E+02 -0.18682394133E+00  0.98736920369E+02  0.13676001402E+03  0.00000000000E+00 0.  1.
         14    1    4    4    0    0  0.35111355112E+01  0.14122116803E+02  0.89251086267E+02  0.90429633724E+02  0.00000000000E+00 0. -1.
         -5    1    5    5    0  502 -0.30141203136E+03  0.52117672231E+02  0.19156873315E+03  0.36095170581E+03  0.47000000000E+01 0.  1.
         11    1    6    6    0    0 -0.39770578791E+02  0.74364597067E+01 -0.70687697870E+01  0.41072708417E+02  0.00000000000E+00 0. -1.
        -12    1    6    6    0    0 -0.31843730146E+02 -0.17191986038E+02  0.82615777783E+02  0.90193981352E+02  0.00000000000E+00 0.  1.
</event>
<event>
12    1  0.1039610E+000  0.2205043E+03  0.7818608E-02  0.1133737E+00
         21   -1    0    0  503  502  0.00000000000E+00  0.00000000000E+00  0.36066245511E+03  0.36066245511E+03  0.00000000000E+00 0.  1.
         21   -1    0    0  501  503 -0.00000000000E+00 -0.00000000000E+00 -0.50437456990E+03  0.50437456990E+03  0.00000000000E+00 0.  1.
          6    2    1    2  501    0 -0.84186459264E+02 -0.10704967804E+03  0.29880222371E+03  0.37062717292E+03  0.17185673952E+03 0.  0.
         24    2    3    3    0    0 -0.12408408942E+03 -0.10609969526E+03  0.26576246737E+03  0.31860372764E+03  0.64997227803E+02 0.  0.
         -6    2    1    2    0  502  0.84186459264E+02  0.10704967804E+03 -0.44251433850E+03  0.49440985210E+03  0.17342193802E+03 0.  0.
        -24    2    5    5    0    0 -0.20712654897E+02  0.40623098579E+02 -0.16306023712E+03  0.18857820006E+03  0.83029190041E+02 0.  0.
          5    1    3    3  501    0  0.39897630155E+02 -0.94998277273E+00  0.33039756334E+02  0.52023445271E+02  0.47000000000E+01 0. -1.
        -11    1    4    4    0    0 -0.66130226740E+02 -0.18065298206E+02  0.83235991971E+02  0.10783224122E+03  0.00000000000E+00 0.  1.
         12    1    4    4    0    0 -0.57953862679E+02 -0.88034397058E+02  0.18252647540E+03  0.21077148642E+03  0.00000000000E+00 0. -1.
         -5    1    5    5    0  502  0.10489911416E+03  0.66426579457E+02 -0.27945410138E+03  0.30583165203E+03  0.47000000000E+01 0.  1.
         13    1    6    6    0    0  0.26489698837E+02  0.36879004172E+02 -0.99013200706E+02  0.10892832050E+03  0.00000000000E+00 0. -1.
        -14    1    6    6    0    0 -0.47202353734E+02  0.37440944071E+01 -0.64047036414E+02  0.79649879563E+02  0.00000000000E+00 0.  1.
</event>
<event>
12    1  0.1039610E+000  0.3024185E+03  0.7818608E-02  0.1084902E+00
         21   -1    0    0  501  502  0.00000000000E+00  0.00000000000E+00  0.38322478417E+03  0.38322478417E+03  0.00000000000E+00 0. -1.
         21   -1    0    0  502  503 -0.00000000000E+00 -0.00000000000E+00 -0.28560423904E+03  0.28560423904E+03  0.00000000000E+00 0. -1.
         -6    2    1    2    0  503  0.68995651342E+02  0.23098739279E+03  0.19246090273E+03  0.35846638957E+03  0.18259621529E+03 0.  0.
        -24    2    3    3    0    0  0.21623973942E+02  0.21061031492E+03  0.20478090842E+03  0.30523882469E+03  0.80070085869E+02 0.  0.
          6    2    1    2  501    0 -0.68995651342E+02 -0.23098739279E+03 -0.94840357607E+02  0.31036263364E+03  0.17092306866E+03 0.  0.
         24    2    5    5    0    0 -0.66394815001E+02 -0.16910727633E+03 -0.13141604721E+03  0.23828084515E+03  0.80635236296E+02 0.  0.
          5    1    5    5  501    0 -0.26008363413E+01 -0.61880116459E+02  0.36575689604E+02  0.72081788496E+02  0.47000000000E+01 0. -1.
        -13    1    6    6    0    0 -0.37663963629E+02 -0.14768773126E+03 -0.71239648412E+02  0.16824187240E+03  0.00000000000E+00 0.  1.
         14    1    6    6    0    0 -0.28730851372E+02 -0.21419545067E+02 -0.60176398798E+02  0.70038972749E+02  0.00000000000E+00 0. -1.
         -5    1    3    3    0  503  0.47371677401E+02  0.20377077872E+02 -0.12320005686E+02  0.53227564874E+02  0.47000000000E+01 0.  1.
         11    1    4    4    0    0  0.17447774786E+02  0.22781984853E+01  0.21012817601E+02  0.27407180388E+02  0.00000000000E+00 0. -1.
        -12    1    4    4    0    0  0.41761991559E+01  0.20833211643E+03  0.18376809082E+03  0.27783164431E+03  0.00000000000E+00 0.  1.
</event>
<event>
12    1  0.1039610E+000  0.1971180E+03  0.7818608E-02  0.1152477E+00
         21   -1    0    0  501  502  0.00000000000E+00  0.00000000000E+00  0.76742958557E+02  0.76742958557E+02  0.00000000000E+00 0. -1.
         21   -1    0    0  502  503 -0.00000000000E+00 -0.00000000000E+00 -0.57664128261E+03  0.57664128261E+03  0.00000000000E+00 0. -1.
         -6    2    1    2    0  503  0.34797926319E+02  0.89638363178E+02 -0.13241916365E+03  0.23637531669E+03  0.17056530599E+03 0.  0.
        -24    2    3    3    0    0  0.64820692509E+02  0.72417237204E+02 -0.15143256447E+03  0.19660682313E+03  0.79224004539E+02 0.  0.
          6    2    1    2  501    0 -0.34797926319E+02 -0.89638363178E+02 -0.36747916040E+03  0.41700892448E+03  0.17207433841E+03 0.  0.
         24    2    5    5    0    0  0.41416431338E+02 -0.33860541584E+02 -0.13570814339E+03  0.16668975218E+03  0.80665458773E+02 0.  0.
          5    1    5    5  501    0 -0.76214357657E+02 -0.55777821594E+02 -0.23177101700E+03  0.25031917229E+03  0.47000000000E+01 0. -1.
        -11    1    6    6    0    0  0.36603713029E+02 -0.59133189258E+02 -0.84970401101E+02  0.10980225381E+03  0.00000000000E+00 0.  1.
         12    1    6    6    0    0  0.48127183090E+01  0.25272647674E+02 -0.50737742293E+02  0.56887498372E+02  0.00000000000E+00 0. -1.
         -5    1    3    3    0  503 -0.30022766190E+02  0.17221125974E+02  0.19013400818E+02  0.39768493562E+02  0.47000000000E+01 0.  1.
         11    1    4    4    0    0  0.45569934430E+02  0.25538012373E+02 -0.13264143955E+03  0.14255721829E+03  0.00000000000E+00 0. -1.
        -12    1    4    4    0    0  0.19250758079E+02  0.46879224831E+02 -0.18791124923E+02  0.54049604839E+02  0.00000000000E+00 0.  1.
</event>
<event>
12    1  0.1039610E+000  0.2914476E+03  0.7818608E-02  0.1089838E+00
         21   -1    0    0  501  502  0.00000000000E+00  0.00000000000E+00  0.44721816669E+03  0.44721816669E+03  0.00000000000E+00 0.  1.
         21   -1    0    0  502  503 -0.00000000000E+00 -0.00000000000E+00 -0.20908846220E+03  0.20908846220E+03  0.00000000000E+00 0.  1.
         -6    2    1    2    0  503  0.23304921701E+03  0.77370024336E+01  0.22113345517E+03  0.36436391432E+03  0.17172436725E+03 0.  0.
        -24    2    3    3    0    0  0.20281476679E+03 -0.34326792929E+01  0.10212002422E+03  0.24097359657E+03  0.80586363481E+02 0.  0.
          6    2    1    2  501    0 -0.23304921701E+03 -0.77370024336E+01  0.16996249321E+02  0.29194271457E+03  0.17484243576E+03 0.  0.
         24    2    5    5    0    0 -0.20327345548E+03  0.51082262233E+02  0.20394417516E+01  0.22417769437E+03  0.79510905610E+02 0.  0.
          5    1    5    5  501    0 -0.29775761532E+02 -0.58819264666E+02  0.14956807570E+02  0.67765020205E+02  0.47000000000E+01 0. -1.
        -13    1    6    6    0    0 -0.25662961303E+02  0.34684898616E+02  0.14133118043E+02  0.45402365582E+02  0.00000000000E+00 0.  1.
         14    1    6    6    0    0 -0.17761049418E+03  0.16397363617E+02 -0.12093676291E+02  0.17877532878E+03  0.00000000000E+00 0. -1.
         -5    1    3    3    0  503  0.30234450221E+02  0.11169681727E+02  0.11901343095E+03  0.12339031776E+03  0.47000000000E+01 0.  1.
         13    1    4    4    0    0  0.11477733053E+03  0.34509005602E+02  0.38363603256E+02  0.12584304958E+03  0.00000000000E+00 0. -1.
        -14    1    4    4    0    0  0.88037436258E+02 -0.37941684895E+02  0.63756420967E+02  0.11513054699E+03  0.00000000000E+00 0.  1.
</event>
<event>
12    1  0.1039610E+000  0.1751363E+03  0.7818608E-02  0.1172774E+00
         21   -1    0    0  501  502  0.00000000000E+00  0.00000000000E+00  0.59170514977E+03  0.59170514977E+03  0.00000000000E+00 0.  1.
         21   -1    0    0  502  503 -0.00000000000E+00 -0.00000000000E+00 -0.51688388155E+02  0.51688388155E+02  0.00000000000E+00 0.  1.
         -6    2    1    2    0  503  0.21774502998E+02  0.22107008489E+02  0.28168392141E+03  0.33169045476E+03  0.17236553425E+03 0.  0.
        -24    2    3    3    0    0 -0.28974840715E+02  0.56347748516E+02  0.11627386743E+03  0.15525207991E+03  0.81049280754E+02 0.  0.
          6    2    1    2  501    0 -0.21774502998E+02 -0.22107008489E+02  0.25833284021E+03  0.31170308316E+03  0.17163946784E+03 0.  0.
         24    2    5    5    0    0 -0.66154136644E+02 -0.14772186574E+02  0.90535857467E+02  0.13791796035E+03  0.78930570808E+02 0.  0.
          5    1    5    5  501    0  0.44379633646E+02 -0.73348219148E+01  0.16779698274E+03  0.17378512281E+03  0.47000000000E+01 0. -1.
        -13    1    6    6    0    0  0.77719521632E+00 -0.29754381311E+01  0.65374605330E+02  0.65446896692E+02  0.00000000000E+00 0.  1.
         14    1    6    6    0    0 -0.66931331860E+02 -0.11796748443E+02  0.25161252137E+02  0.72471063657E+02  0.00000000000E+00 0. -1.
         -5    1    3    3    0  503  0.50749343713E+02 -0.34240740027E+02  0.16541005398E+03  0.17643837486E+03  0.47000000000E+01 0.  1.
         11    1    4    4    0    0 -0.13607137875E+02  0.50623454564E+02  0.12580146533E+03  0.13628608524E+03  0.00000000000E+00 0. -1.
        -12    1    4    4    0    0 -0.15367702840E+02  0.57242939524E+01 -0.95275978961E+01  0.18965994662E+02  0.00000000000E+00 0.  1.
</event>
<event>
12    1  0.1039610E+000  0.1816827E+03  0.7818608E-02  0.1166964E+00
         21   -1    0    0  501  502  0.00000000000E+00  0.00000000000E+00  0.63616033186E+02  0.63616033186E+02  0.00000000000E+00 0.  1.
         21   -1    0    0  502  503 -0.00000000000E+00 -0.00000000000E+00 -0.60797541459E+03  0.60797541459E+03  0.00000000000E+00 0.  1.
         -6    2    1    2    0  503  0.11881848417E+01  0.58666132830E+02 -0.13921603207E+03  0.22888800906E+03  0.17194618397E+03 0.  0.
        -24    2    3    3    0    0  0.11042233225E+02  0.91464900241E+02 -0.14930374235E+03  0.19287810331E+03  0.80141102857E+02 0.  0.
          6    2    1    2  501    0 -0.11881848417E+01 -0.58666132830E+02 -0.40514334933E+03  0.44270343871E+03  0.16852914946E+03 0.  0.
         24    2    5    5    0    0  0.57738897244E+01  0.15171186338E+02 -0.31442087522E+03  0.32542992298E+03  0.82344673765E+02 0.  0.
          5    1    5    5  501    0 -0.69620745661E+01 -0.73837319168E+02 -0.90722474105E+02  0.11727351573E+03  0.47000000000E+01 0. -1.
        -11    1    6    6    0    0 -0.37804153411E+02  0.45179950956E+00 -0.15075440641E+03  0.15542280782E+03  0.00000000000E+00 0.  1.
         12    1    6    6    0    0  0.43578043136E+02  0.14719386828E+02 -0.16366646881E+03  0.17000711516E+03  0.00000000000E+00 0. -1.
         -5    1    3    3    0  503 -0.98540483834E+01 -0.32798767410E+02  0.10087710280E+02  0.36009905746E+02  0.47000000000E+01 0.  1.
         11    1    4    4    0    0 -0.46169270510E+01  0.48291817087E+02 -0.13699677057E+03  0.14533248349E+03  0.00000000000E+00 0. -1.
        -12    1    4    4    0    0  0.15659160276E+02  0.43173083154E+02 -0.12306971786E+02  0.47545619820E+02  0.00000000000E+00 0.  1.
</event>
<event>
12    1  0.1039610E+000  0.2352311E+03  0.7818608E-02  0.1123850E+00
         21   -1    0    0  501  502  0.00000000000E+00  0.00000000000E+00  0.27400263519E+04  0.27400263519E+04  0.00000000000E+00 0.  1.
         21   -1    0    0  502  503 -0.00000000000E+00 -0.00000000000E+00 -0.26410725042E+02  0.26410725042E+02  0.00000000000E+00 0. -1.
         -6    2    1    2    0  503 -0.15807093123E+03  0.68535805935E+01  0.20604292245E+04  0.20738134621E+04  0.17406979987E+03 0.  0.
        -24    2    3    3    0    0 -0.34861410288E+02  0.15550339246E+02  0.43148313441E+03  0.44018447291E+03  0.78278630095E+02 0.  0.
          6    2    1    2  501    0  0.15807093123E+03 -0.68535805935E+01  0.65318640228E+03  0.69262361484E+03  0.16745627742E+03 0.  0.
         24    2    5    5    0    0  0.15426166099E+03 -0.47332828423E+02  0.43822090888E+03  0.47379643784E+03  0.80052750283E+02 0.  0.
          5    1    5    5  501    0  0.38092702390E+01  0.40479247829E+02  0.21496549339E+03  0.21882717700E+03  0.47000000000E+01 0. -1.
        -13    1    6    6    0    0  0.20970431008E+02  0.20817926629E+02  0.56295539715E+02  0.63579342852E+02  0.00000000000E+00 0.  1.
         14    1    6    6    0    0  0.13329122998E+03 -0.68150755051E+02  0.38192536917E+03  0.41021709498E+03  0.00000000000E+00 0. -1.
         -5    1    3    3    0  503 -0.12320952094E+03 -0.86967586530E+01  0.16289460901E+04  0.16336289891E+04  0.47000000000E+01 0.  1.
         13    1    4    4    0    0 -0.20099288751E+01 -0.22084187367E+02  0.41852148563E+02  0.47364052668E+02  0.00000000000E+00 0. -1.
        -14    1    4    4    0    0 -0.32851481413E+02  0.37634526614E+02  0.38963098585E+03  0.39282042024E+03  0.00000000000E+00 0.  1.
</event>
<event>
12    1  0.1039610E+000  0.1769277E+03  0.7818608E-02  0.1171167E+00
         21   -1    0    0  501  502  0.00000000000E+00  0.00000000000E+00  0.18122536893E+03  0.18122536893E+03  0.00000000000E+00 0.  1.
         21   -1    0    0  502  503 -0.00000000000E+00 -0.00000000000E+00 -0.21395852146E+03  0.21395852146E+03  0.00000000000E+00 0.  1.
         -6    2    1    2    0  503 -0.36133852094E+02  0.21069970186E+02  0.71880077907E+02  0.18964230205E+03  0.17043432230E+03 0.  0.
        -24    2    3    3    0    0 -0.47564667490E+02 -0.19459376518E+02  0.10017670494E+03  0.13869055442E+03  0.80985386000E+02 0.  0.
          6    2    1    2  501    0  0.36133852094E+02 -0.21069970186E+02 -0.10461323044E+03  0.20554158833E+03  0.17191223819E+03 0.  0.
         24    2    5    5    0    0  0.53055443781E+02 -0.47087191452E+02 -0.12770971652E+03  0.16657014062E+03  0.80023473677E+02 0.  0.
          5    1    5    5  501    0 -0.16921591687E+02  0.26017221265E+02  0.23096486080E+02  0.38971447712E+02  0.47000000000E+01 0. -1.
        -11    1    6    6    0    0  0.44802368022E+02 -0.11183352550E+02 -0.15884387210E+02  0.48832707396E+02  0.00000000000E+00 0.  1.
         12    1    6    6    0    0  0.82530757597E+01 -0.35903838902E+02 -0.11182532931E+03  0.11773743322E+03  0.00000000000E+00 0. -1.
         -5    1    3    3    0  503  0.11430815396E+02  0.40529346705E+02 -0.28296627034E+02  0.50951747629E+02  0.47000000000E+01 0.  1.
         13    1    4    4    0    0  0.12967808166E+00 -0.34567822653E+01 -0.13735372202E+02  0.14164272292E+02  0.00000000000E+00 0. -1.
        -14    1    4    4    0    0 -0.47694345572E+02 -0.16002594253E+02  0.11391207714E+03  0.12452628213E+03  0.00000000000E+00 0.  1.
</event>
<event>
12    1  0.1039610E+000  0.5489878E+03  0.7818608E-02  0.1001734E+00
         21   -1    0    0  501  502  0.00000000000E+00  0.00000000000E+00  0.57151656190E+03  0.57151656190E+03  0.00000000000E+00 0. -1.
         21   -1    0    0  502  503 -0.00000000000E+00 -0.00000000000E+00 -0.64810938973E+03  0.64810938973E+03  0.00000000000E+00 0. -1.
         -6    2    1    2    0  503  0.48856132874E+03 -0.18137575015E+03  0.22504002351E+03  0.59332163787E+03  0.17262160673E+03 0.  0.
        -24    2    3    3    0    0  0.46167273187E+03 -0.17523051940E+03  0.24688666746E+03  0.55782337940E+03  0.79790035451E+02 0.  0.
          6    2    1    2  501    0 -0.48856132874E+03  0.18137575015E+03 -0.30163285134E+03  0.62630431376E+03  0.17229446232E+03 0.  0.
         24    2    5    5    0    0 -0.48907966284E+03  0.17335233772E+03 -0.31329214954E+03  0.61138208029E+03  0.79913250059E+02 0.  0.
          5    1    5    5  501    0  0.51833410618E+00  0.80234124238E+01  0.11659298199E+02  0.14922233468E+02  0.47000000000E+01 0. -1.
        -11    1    6    6    0    0 -0.36675456475E+03  0.92784509688E+02 -0.23386008300E+03  0.44475657884E+03  0.00000000000E+00 0.  1.
         12    1    6    6    0    0 -0.12232509809E+03  0.80567828033E+02 -0.79432066541E+02  0.16662550145E+03  0.00000000000E+00 0. -1.
         -5    1    3    3    0  503  0.26888596869E+02 -0.61452307458E+01 -0.21846643952E+02  0.35498258471E+02  0.47000000000E+01 0.  1.
         13    1    4    4    0    0  0.11063066243E+03 -0.78633838057E+02  0.76988974868E+02  0.15604398806E+03  0.00000000000E+00 0. -1.
        -14    1    4    4    0    0  0.35104206943E+03 -0.96596681343E+02  0.16989769259E+03  0.40177939134E+03  0.00000000000E+00 0.  1.
</event>
<event>
12    1  0.1039610E+000  0.1744629E+03  0.7818608E-02  0.1173756E+00
         21   -1    0    0  501  502  0.00000000000E+00  0.00000000000E+00  0.49735949272E+03  0.49735949272E+03  0.00000000000E+00 0.  1.
         21   -1    0    0  502  503 -0.00000000000E+00 -0.00000000000E+00 -0.60535941738E+02  0.60535941738E+02  0.00000000000E+00 0.  1.
         -6    2    1    2    0  503  0.12835437856E+02  0.25701023315E+02  0.21676594341E+03  0.27825309435E+03  0.17208143197E+03 0.  0.
        -24    2    3    3    0    0 -0.29855224649E+02 -0.25563291681E+02  0.56417830020E+02  0.10451728881E+03  0.78715156079E+02 0.  0.
          6    2    1    2  501    0 -0.12835437856E+02 -0.25701023315E+02  0.22005760757E+03  0.27964234011E+03  0.17014463455E+03 0.  0.
         24    2    5    5    0    0  0.42053534987E+02  0.91476181791E+01  0.18278281513E+03  0.20455088050E+03  0.81113047567E+02 0.  0.
          5    1    5    5  501    0 -0.54888972843E+02 -0.34848641494E+02  0.37274792442E+02  0.75091459603E+02  0.47000000000E+01 0. -1.
        -13    1    6    6    0    0  0.50022041302E+02 -0.15502540196E+02  0.16504469374E+03  0.17315393238E+03  0.00000000000E+00 0.  1.
         14    1    6    6    0    0 -0.79685063157E+01  0.24650158375E+02  0.17738121388E+02  0.31396948119E+02  0.00000000000E+00 0. -1.
         -5    1    3    3    0  503  0.42690662504E+02  0.51264314997E+02  0.16034811339E+03  0.17373580554E+03  0.47000000000E+01 0.  1.
         11    1    4    4    0    0 -0.45716164299E+02  0.44673068780E+01  0.10013372045E+02  0.47012680509E+02  0.00000000000E+00 0. -1.
        -12    1    4    4    0    0  0.15860939650E+02 -0.30030598559E+02  0.46404457974E+02  0.57504608305E+02  0.00000000000E+00 0.  1.
</event>
<event>
12    1  0.1039610E+000  0.2658431E+03  0.7818608E-02  0.1104270E+00
         21   -1    0    0  503  502  0.00000000000E+00  0.00000000000E+00  0.16586628092E+03  0.16586628092E+03  0.00000000000E+00 0. -1.
         21   -1    0    0  501  503 -0.00000000000E+00 -0.00000000000E+00 -0.56056022024E+03  0.56056022024E+03  0.00000000000E+00 0. -1.
          6    2    1    2  501    0  0.44638669446E+02  0.19735120883E+03 -0.16399070242E+02  0.26634845283E+03  0.17243102501E+03 0.  0.
         24    2    3    3    0    0  0.47670811193E+02  0.22184874593E+03 -0.10710749519E+02  0.24058471475E+03  0.79226968310E+02 0.  0.
         -6    2    1    2    0  502 -0.44638669446E+02 -0.19735120883E+03 -0.37829486907E+03  0.46007804833E+03  0.16620677528E+03 0.  0.
        -24    2    5    5    0    0  0.31463457419E+02 -0.10742738367E+03 -0.25367700186E+03  0.28852767417E+03  0.79784745250E+02 0.  0.
          5    1    3    3  501    0 -0.30321417477E+01 -0.24497537096E+02 -0.56883207227E+01  0.25763738083E+02  0.47000000000E+01 0. -1.
        -11    1    4    4    0    0  0.27360696625E+02  0.15596347300E+03  0.29062563925E+02  0.16099020235E+03  0.00000000000E+00 0.  1.
         12    1    4    4    0    0  0.20310114568E+02  0.65885272923E+02 -0.39773313443E+02  0.79594512400E+02  0.00000000000E+00 0. -1.
         -5    1    5    5    0  502 -0.76102126865E+02 -0.89923825160E+02 -0.12461786721E+03  0.17155037416E+03  0.47000000000E+01 0.  1.
         13    1    6    6    0    0  0.11643321326E+02 -0.86976879296E+01 -0.12147733006E+03  0.12234360802E+03  0.00000000000E+00 0. -1.
        -14    1    6    6    0    0  0.19820136093E+02 -0.98729695741E+02 -0.13219967180E+03  0.16618406614E+03  0.00000000000E+00 0.  1.
</event>
<event>
12    1  0.1039610E+000  0.4212269E+03  0.7818608E-02  0.1036953E+00
         21   -1    0    0  501  502  0.00000000000E+00  0.00000000000E+00  0.50820693149E+03  0.50820693149E+03  0.00000000000E+00 0.  1.
         21   -1    0    0  502  503 -0.00000000000E+00 -0.00000000000E+00 -0.67091714801E+03  0.67091714801E+03  0.00000000000E+00 0.  1.
         -6    2    1    2    0  503 -0.15531091790E+03 -0.34791272116E+03  0.32860071324E+03  0.53423826856E+03  0.17963116681E+03 0.  0.
        -24    2    3    3    0    0 -0.38173674012E+02 -0.24140272850E+03  0.15968423377E+03  0.30267752172E+03  0.79888177617E+02 0.  0.
          6    2    1    2  501    0  0.15531091790E+03  0.34791272116E+03 -0.49131092975E+03  0.64488581094E+03  0.17124992465E+03 0.  0.
         24    2    5    5    0    0  0.78626044551E+02  0.96280809962E+02 -0.12334121381E+03  0.19253308310E+03  0.80024270161E+02 0.  0.
          5    1    5    5  501    0  0.76684873353E+02  0.25163191120E+03 -0.36796971595E+03  0.45235272785E+03  0.47000000000E+01 0. -1.
        -11    1    6    6    0    0  0.53766140716E+01 -0.89946930915E+01 -0.35675915560E+02  0.37183106832E+02  0.00000000000E+00 0.  1.
         12    1    6    6    0    0  0.73249430480E+02  0.10527550305E+03 -0.87665298247E+02  0.15534997626E+03  0.00000000000E+00 0. -1.
         -5    1    3    3    0  503 -0.11713724389E+03 -0.10650999266E+03  0.16891647947E+03  0.23156074685E+03  0.47000000000E+01 0.  1.
         11    1    4    4    0    0 -0.10139261520E+02 -0.14062891076E+03  0.13500125464E+03  0.19520408275E+03  0.00000000000E+00 0. -1.
        -12    1    4    4    0    0 -0.28034412492E+02 -0.10077381774E+03  0.24682979127E+02  0.10747343897E+03  0.00000000000E+00 0.  1.
</event>
<event>
12    1  0.1039610E+000  0.1921042E+03  0.7818608E-02  0.1157497E+00
         21   -1    0    0  503  502  0.00000000000E+00  0.00000000000E+00  0.92559299836E+02  0.92559299836E+02  0.00000000000E+00 0.  1.
         21   -1    0    0  501  503 -0.00000000000E+00 -0.00000000000E+00 -0.69624266102E+03  0.69624266102E+03  0.00000000000E+00 0.  1.
          6    2    1    2  501    0  0.21010527578E+02 -0.72638876787E+02 -0.56511598719E+03  0.59687526973E+03  0.17659603604E+03 0.  0.
         24    2    3    3    0    0  0.60218054684E+02  0.87923126779E+01 -0.32353208394E+03  0.33889631494E+03  0.80462314626E+02 0.  0.
         -6    2    1    2    0  502 -0.21010527578E+02  0.72638876787E+02 -0.38567373995E+02  0.19192669113E+03  0.17213530649E+03 0.  0.
        -24    2    5    5    0    0  0.44573499064E+02  0.97811293862E+01 -0.40130758874E+02  0.10094924815E+03  0.80608967139E+02 0.  0.
          5    1    3    3  501    0 -0.39207527107E+02 -0.81431189465E+02 -0.24158390325E+03  0.25797895478E+03  0.47000000000E+01 0. -1.
        -11    1    4    4    0    0  0.69022970101E+02 -0.19042191540E+02 -0.23616795656E+03  0.24678346615E+03  0.00000000000E+00 0.  1.
         12    1    4    4    0    0 -0.88049154169E+01  0.27834504218E+02 -0.87364127373E+02  0.92112848789E+02  0.00000000000E+00 0. -1.
         -5    1    5    5    0  502 -0.65584026642E+02  0.62857747401E+02  0.15633848794E+01  0.90977442980E+02  0.47000000000E+01 0.  1.
         11    1    6    6    0    0  0.37868481430E+02 -0.26363159371E+02  0.51657065845E+00  0.46144391892E+02  0.00000000000E+00 0. -1.
        -12    1    6    6    0    0  0.67050176339E+01  0.36144288757E+02 -0.40647329533E+02  0.54804856257E+02  0.00000000000E+00 0.  1.
</event>
<event>
12    1  0.1039610E+000  0.1832143E+03  0.7818608E-02  0.1164956E+00
         21   -1    0    0  503  502  0.00000000000E+00  0.00000000000E+00  0.66679020845E+02  0.66679020845E+02  0.00000000000E+00 0. -1.
         21   -1    0    0  501  503 -0.00000000000E+00 -0.00000000000E+00 -0.53687313310E+03  0.53687313310E+03  0.00000000000E+00 0. -1.
          6    2    1    2  501    0 -0.52334699920E+02 -0.30435194050E+02 -0.31391977953E+03  0.36347365178E+03  0.17292265816E+03 0.  0.
         24    2    3    3    0    0  0.51449045776E+01  0.22588032759E+02 -0.24736720984E+03  0.26067918672E+03  0.78907620787E+02 0.  0.
         -6    2    1    2    0  502  0.52334699920E+02  0.30435194050E+02 -0.15627433272E+03  0.24007850216E+03  0.17190345628E+03 0.  0.
        -24    2    5    5    0    0  0.13259855223E+02  0.59274814998E+02 -0.69336693860E+02  0.14038492025E+03  0.10588211021E+03 0.  0.
          5    1    3    3  501    0 -0.57479604497E+02 -0.53023226809E+02 -0.66552569693E+02  0.10279446506E+03  0.47000000000E+01 0. -1.
        -13    1    4    4    0    0 -0.39038172640E+00 -0.14808350233E+01 -0.23110211295E+03  0.23110718700E+03  0.00000000000E+00 0.  1.
         14    1    4    4    0    0  0.55352863040E+01  0.24068867782E+02 -0.16265096882E+02  0.29571999719E+02  0.00000000000E+00 0. -1.
         -5    1    5    5    0  502  0.39074844697E+02 -0.28839620948E+02 -0.86937638863E+02  0.99693581918E+02  0.47000000000E+01 0.  1.
         11    1    6    6    0    0 -0.19150558221E+00  0.87539963733E+02 -0.64442450421E+02  0.10870193807E+03  0.00000000000E+00 0. -1.
        -12    1    6    6    0    0  0.13451360805E+02 -0.28265148735E+02 -0.48942434388E+01  0.31682982173E+02  0.00000000000E+00 0.  1.
</event>
<event>
12    1  0.1039610E+000  0.2067396E+03  0.7818608E-02  0.1144309E+00
         21   -1    0    0  503  502  0.00000000000E+00  0.00000000000E+00  0.25741389067E+04  0.25741389067E+04  0.00000000000E+00 0. -1.
         21   -1    0    0  501  503 -0.00000000000E+00 -0.00000000000E+00 -0.86040063583E+02  0.86040063583E+02  0.00000000000E+00 0. -1.
          6    2    1    2  501    0  0.10261986056E+03  0.49945009938E+02  0.24389986989E+04  0.24476887639E+04  0.17158173451E+03 0.  0.
         24    2    3    3    0    0  0.99436294676E+02 -0.12762442559E+02  0.15398848223E+04  0.15463729409E+04  0.99867660419E+02 0.  0.
         -6    2    1    2    0  502 -0.10261986056E+03 -0.49945009938E+02  0.49100144211E+02  0.21249020643E+03  0.17238307303E+03 0.  0.
        -24    2    5    5    0    0  0.30529999497E+01 -0.32190813413E+02 -0.17327173035E+02  0.86329026112E+02  0.78146660499E+02 0.  0.
          5    1    3    3  501    0  0.31835658886E+01  0.62707452497E+02  0.89911387658E+03  0.90131582298E+03  0.47000000000E+01 0. -1.
        -13    1    4    4    0    0  0.50544295275E+02  0.38848385996E+02  0.49768710533E+03  0.50175330362E+03  0.00000000000E+00 0.  1.
         14    1    4    4    0    0  0.48891999401E+02 -0.51610828555E+02  0.10421977170E+04  0.10446196373E+04  0.00000000000E+00 0. -1.
         -5    1    5    5    0  502 -0.10567286051E+03 -0.17754196525E+02  0.66427317246E+02  0.12616118032E+03  0.47000000000E+01 0.  1.
         11    1    6    6    0    0  0.24055999699E+00 -0.21236507331E+02  0.30509510033E+02  0.37173610467E+02  0.00000000000E+00 0. -1.
        -12    1    6    6    0    0  0.28124399527E+01 -0.10954306083E+02 -0.47836683068E+02  0.49155415644E+02  0.00000000000E+00 0.  1.
</event>
<event>
12    1  0.1039610E+000  0.2827315E+03  0.7818608E-02  0.1094362E+00
         21   -1    0    0  503  502  0.00000000000E+00  0.00000000000E+00  0.69353397997E+03  0.69353397997E+03  0.00000000000E+00 0. -1.
         21   -1    0    0  501  503 -0.00000000000E+00 -0.00000000000E+00 -0.11481277866E+03  0.11481277866E+03  0.00000000000E+00 0. -1.
          6    2    1    2  501    0 -0.14187004194E+03 -0.17314199596E+03  0.29534930965E+03  0.40886219431E+03  0.17271890358E+03 0.  0.
         24    2    3    3    0    0 -0.14836628511E+03 -0.82711569447E+02  0.22813183058E+03  0.29590139266E+03  0.81607253231E+02 0.  0.
         -6    2    1    2    0  502  0.14187004194E+03  0.17314199596E+03  0.28337189165E+03  0.39948456433E+03  0.17083040886E+03 0.  0.
        -24    2    5    5    0    0  0.14904086109E+03  0.86908838589E+02  0.15839665010E+03  0.24740406236E+03  0.79705375031E+02 0.  0.
          5    1    3    3  501    0  0.64962431631E+01 -0.90430426517E+02  0.67217479078E+02  0.11296080165E+03  0.47000000000E+01 0. -1.
        -13    1    4    4    0    0 -0.12647845295E+03 -0.44252285187E+02  0.12322113452E+03  0.18203986321E+03  0.00000000000E+00 0.  1.
         14    1    4    4    0    0 -0.21887832159E+02 -0.38459284260E+02  0.10491069606E+03  0.11386152945E+03  0.00000000000E+00 0. -1.
         -5    1    5    5    0  502 -0.71708191495E+01  0.86233157375E+02  0.12497524155E+03  0.15208050197E+03  0.47000000000E+01 0.  1.
         11    1    6    6    0    0 -0.25207971934E+01  0.26712769251E+02  0.25785493789E+02  0.37213144848E+02  0.00000000000E+00 0. -1.
        -12    1    6    6    0    0  0.15156165829E+03  0.60196069338E+02  0.13261115631E+03  0.21019091751E+03  0.00000000000E+00 0.  1.
</event>
<event>
12    1  0.1039610E+000  0.2129809E+03  0.7818608E-02  0.1140044E+00
         21   -1    0    0  503  502  0.00000000000E+00  0.00000000000E+00  0.11771048398E+03  0.11771048398E+03  0.00000000000E+00 0. -1.
         21   -1    0    0  501  503 -0.00000000000E+00 -0.00000000000E+00 -0.43397459143E+03  0.43397459143E+03  0.00000000000E+00 0. -1.
          6    2    1    2  501    0  0.12495413230E+03  0.16200784114E+02 -0.57601079068E+02  0.21662177471E+03  0.16652659963E+03 0.  0.
         24    2    3    3    0    0  0.14780412492E+03  0.37072364109E+02 -0.28713538578E+02  0.17402688054E+03  0.78996634907E+02 0.  0.
         -6    2    1    2    0  502 -0.12495413230E+03 -0.16200784114E+02 -0.25866302838E+03  0.33506330070E+03  0.17171153905E+03 0.  0.
        -24    2    5    5    0    0 -0.99577576219E+02 -0.73066416619E+02 -0.20788555678E+03  0.25457658515E+03  0.79614308157E+02 0.  0.
          5    1    3    3  501    0 -0.22849992625E+02 -0.20871579994E+02 -0.28887540490E+02  0.42594894177E+02  0.47000000000E+01 0. -1.
        -13    1    4    4    0    0  0.76764267196E+02  0.44399830910E+02  0.15510807148E+02  0.90026012026E+02  0.00000000000E+00 0.  1.
         14    1    4    4    0    0  0.71039857727E+02 -0.73274668010E+01 -0.44224345726E+02  0.84000868510E+02  0.00000000000E+00 0. -1.
         -5    1    5    5    0  502 -0.25376556079E+02  0.56865632505E+02 -0.50777471594E+02  0.80486715551E+02  0.47000000000E+01 0.  1.
         11    1    6    6    0    0 -0.36528474564E+02 -0.30226243971E+02 -0.19340220452E+02  0.51205462655E+02  0.00000000000E+00 0. -1.
        -12    1    6    6    0    0 -0.63049101656E+02 -0.42840172648E+02 -0.18854533633E+03  0.20337112249E+03  0.00000000000E+00 0.  1.
</event>
<event>
12    1  0.1039610E+000  0.1903617E+03  0.7818608E-02  0.1160172E+00
         21   -1    0    0  503  502  0.00000000000E+00  0.00000000000E+00  0.28175813628E+03  0.28175813628E+03  0.00000000000E+00 0.  1.
         21   -1    0    0  501  503 -0.00000000000E+00 -0.00000000000E+00 -0.12604037127E+03  0.12604037127E+03  0.00000000000E+00 0.  1.
          6    2    1    2  501    0 -0.42868012785E+02  0.69766815070E+02  0.11274804096E+03  0.22124575043E+03  0.17185018574E+03 0.  0.
         24    2    3    3    0    0 -0.74773169158E+02  0.94848150357E+02  0.10741365445E+03  0.18004431766E+03  0.79316232315E+02 0.  0.
         -6    2    1    2    0  502  0.42868012785E+02 -0.69766815070E+02  0.42969724048E+02  0.18655275711E+03  0.16201993395E+03 0.  0.
        -24    2    5    5    0    0  0.66887476513E+01 -0.66281073974E+02  0.86565870809E+02  0.12959835755E+03  0.69743560128E+02 0.  0.
          5    1    3    3  501    0  0.31905156373E+02 -0.25081335286E+02  0.53343865151E+01  0.41201432771E+02  0.47000000000E+01 0. -1.
        -13    1    4    4    0    0 -0.41993533785E+01  0.51845351846E+02  0.11195241553E+02  0.53206282620E+02  0.00000000000E+00 0.  1.
         14    1    4    4    0    0 -0.70573815779E+02  0.43002798511E+02  0.96218412895E+02  0.12683803504E+03  0.00000000000E+00 0. -1.
         -5    1    5    5    0  502  0.36179265134E+02 -0.34857410957E+01 -0.43596146762E+02  0.56954399558E+02  0.47000000000E+01 0.  1.
         13    1    6    6    0    0 -0.17977040156E+02 -0.45316417278E+02  0.84003706379E+02  0.97125559628E+02  0.00000000000E+00 0. -1.
        -14    1    6    6    0    0  0.24665787807E+02 -0.20964656697E+02  0.25621644301E+01  0.32472797926E+02  0.00000000000E+00 0.  1.
</event>
<event>
12    1  0.1039610E+000  0.2107200E+03  0.7818608E-02  0.1141182E+00
         21   -1    0    0  501  502  0.00000000000E+00  0.00000000000E+00  0.33297257868E+03  0.33297257868E+03  0.00000000000E+00 0.  1.
         21   -1    0    0  502  503 -0.00000000000E+00 -0.00000000000E+00 -0.14190239808E+03  0.14190239808E+03  0.00000000000E+00 0.  1.
         -6    2    1    2    0  503  0.12205146728E+03 -0.66396512098E+01  0.15599650235E+03  0.26217896191E+03  0.17164572146E+03 0.  0.
        -24    2    3    3    0    0  0.19586132666E+02 -0.49412923030E+02  0.43307639743E+02  0.10390841085E+03  0.78077862615E+02 0.  0.
          6    2    1    2  501    0 -0.12205146728E+03  0.66396512098E+01  0.35073678258E+02  0.21269601484E+03  0.17049570725E+03 0.  0.
         24    2    5    5    0    0 -0.14597646554E+03 -0.45168293227E+01 -0.55089797575E+01  0.16405534532E+03  0.74527023502E+02 0.  0.
          5    1    5    5  501    0  0.23924998263E+02  0.11156480533E+02  0.40582658015E+02  0.48640669520E+02  0.47000000000E+01 0. -1.
        -11    1    6    6    0    0 -0.85842506741E+02  0.56814508142E+01  0.32753699632E+02  0.92054438712E+02  0.00000000000E+00 0.  1.
         12    1    6    6    0    0 -0.60133958798E+02 -0.10198280137E+02 -0.38262679390E+02  0.72000906609E+02  0.00000000000E+00 0. -1.
         -5    1    3    3    0  503  0.10246533461E+03  0.42773271820E+02  0.11268886260E+03  0.15827055106E+03  0.47000000000E+01 0.  1.
         13    1    4    4    0    0  0.39408107042E+02  0.11082647754E+01  0.11786506603E+02  0.41147890460E+02  0.00000000000E+00 0. -1.
        -14    1    4    4    0    0 -0.19821974376E+02 -0.50521187805E+02  0.31521133140E+02  0.62760520392E+02  0.00000000000E+00 0.  1.
</event>
<event>
12    1  0.1039610E+000  0.2300046E+03  0.7818608E-02  0.1126787E+00
         21   -1    0    0  501  502  0.00000000000E+00  0.00000000000E+00  0.12223394738E+03  0.12223394738E+03  0.00000000000E+00 0. -1.
         21   -1    0    0  502  503 -0.00000000000E+00 -0.00000000000E+00 -0.88065918707E+03  0.88065918707E+03  0.00000000000E+00 0. -1.
         -6    2    1    2    0  503 -0.53517488926E+02  0.14120786791E+03 -0.20632190911E+02  0.23007963033E+03  0.17235766711E+03 0.  0.
        -24    2    3    3    0    0 -0.40637055162E+02  0.16005114087E+03  0.19635926597E+02  0.18355452101E+03  0.77710711122E+02 0.  0.
          6    2    1    2  501    0  0.53517488926E+02 -0.14120786791E+03 -0.73779304878E+03  0.77281350411E+03  0.17348874813E+03 0.  0.
         24    2    5    5    0    0  0.83932755968E+02 -0.10353076712E+03 -0.37801266335E+03  0.40975886892E+03  0.85120090114E+02 0.  0.
          5    1    5    5  501    0 -0.30415267042E+02 -0.37677100786E+02 -0.35978038543E+03  0.36305463519E+03  0.47000000000E+01 0. -1.
        -13    1    6    6    0    0 -0.14970238205E+02 -0.29754071603E+02 -0.10503879239E+03  0.11019328798E+03  0.00000000000E+00 0.  1.
         14    1    6    6    0    0  0.98902994173E+02 -0.73776695517E+02 -0.27297387096E+03  0.29956558094E+03  0.00000000000E+00 0. -1.
         -5    1    3    3    0  503 -0.12880433764E+02 -0.18843272963E+02 -0.40268117508E+02  0.46525109324E+02  0.47000000000E+01 0.  1.
         13    1    4    4    0    0 -0.21341662246E+02  0.29373329383E+02 -0.25044834487E+02  0.44107853734E+02  0.00000000000E+00 0. -1.
        -14    1    4    4    0    0 -0.19295392916E+02  0.13067781149E+03  0.44680761085E+02  0.13944666727E+03  0.00000000000E+00 0.  1.
</event>
<event>
12    1  0.1039610E+000  0.2085283E+03  0.7818608E-02  0.1143335E+00
         21   -1    0    0  503  502  0.00000000000E+00  0.00000000000E+00  0.87284976624E+02  0.87284976624E+02  0.00000000000E+00 0.  1.
         21   -1    0    0  501  503 -0.00000000000E+00 -0.00000000000E+00 -0.52574429484E+03  0.52574429484E+03  0.00000000000E+00 0.  1.
          6    2    1    2  501    0  0.10168782181E+03  0.62292550604E+02 -0.29936279601E+03  0.36483162754E+03  0.17106506907E+03 0.  0.
         24    2    3    3    0    0  0.10307593652E+03 -0.14378065055E+02 -0.15786557315E+03  0.20382273262E+03  0.76097238479E+02 0.  0.
         -6    2    1    2    0  502 -0.10168782181E+03 -0.62292550604E+02 -0.13909652221E+03  0.24819764392E+03  0.16743193540E+03 0.  0.
        -24    2    5    5    0    0 -0.12346853233E+02 -0.59647717772E+02 -0.25713113491E+02  0.10374456787E+03  0.79946708106E+02 0.  0.
          5    1    3    3  501    0 -0.13881147015E+01  0.76670615659E+02 -0.14149722286E+03  0.16100889492E+03  0.47000000000E+01 0. -1.
        -13    1    4    4    0    0  0.27773026930E+02 -0.28461650266E+02 -0.10060511224E+03  0.10817945817E+03  0.00000000000E+00 0.  1.
         14    1    4    4    0    0  0.75302909586E+02  0.14083585211E+02 -0.57260460909E+02  0.95643274453E+02  0.00000000000E+00 0. -1.
         -5    1    5    5    0  502 -0.89340968581E+02 -0.26448328316E+01 -0.11338340872E+03  0.14445307605E+03  0.47000000000E+01 0.  1.
         11    1    6    6    0    0 -0.39864813482E+02 -0.61072553137E+02 -0.19602710801E+02  0.75520370572E+02  0.00000000000E+00 0. -1.
        -12    1    6    6    0    0  0.27517960249E+02  0.14248353653E+01 -0.61104026903E+01  0.28224197298E+02  0.00000000000E+00 0.  1.
</event>
<event>
12    1  0.1039610E+000  0.2027438E+03  0.7818608E-02  0.1147696E+00
         21   -1    0    0  501  502  0.00000000000E+00  0.00000000000E+00  0.25051474900E+04  0.25051474900E+04  0.00000000000E+00 0. -1.
         21   -1    0    0  502  503 -0.00000000000E+00 -0.00000000000E+00 -0.25258952416E+02  0.25258952416E+02  0.00000000000E+00 0. -1.
         -6    2    1    2    0  503  0.10346114710E+03  0.26133518379E+02  0.19954033257E+04  0.20056768122E+04  0.17238872649E+03 0.  0.
        -24    2    3    3    0    0 -0.12194864026E+02  0.22487464335E+01  0.69689470788E+03  0.70180046998E+03  0.81901735158E+02 0.  0.
          6    2    1    2  501    0 -0.10346114710E+03 -0.26133518379E+02  0.48448521183E+03  0.52472963017E+03  0.17096226060E+03 0.  0.
         24    2    5    5    0    0 -0.81767157978E+02  0.45082958633E+02  0.35913738507E+03  0.37886468086E+03  0.76422796126E+02 0.  0.
          5    1    5    5  501    0 -0.21693989120E+02 -0.71216477012E+02  0.12534782677E+03  0.14586494931E+03  0.47000000000E+01 0. -1.
        -11    1    6    6    0    0 -0.81528835089E+02  0.57052132677E+02  0.25005146018E+03  0.26912381822E+03  0.00000000000E+00 0.  1.
         12    1    6    6    0    0 -0.23832288878E+00 -0.11969174044E+02  0.10908592488E+03  0.10974086264E+03  0.00000000000E+00 0. -1.
         -5    1    3    3    0  503  0.11565601112E+03  0.23884771946E+02  0.12985086179E+04  0.13038763423E+04  0.47000000000E+01 0.  1.
         11    1    4    4    0    0 -0.25175923142E+02  0.37327680283E+02  0.41494821419E+03  0.41738376020E+03  0.00000000000E+00 0. -1.
        -12    1    4    4    0    0  0.12981059116E+02 -0.35078933849E+02  0.28194649369E+03  0.28441670978E+03  0.00000000000E+00 0.  1.
</event>
<event>
12    1  0.1039610E+000  0.2722535E+03  0.7818608E-02  0.1100080E+00
         21   -1    0    0  503  502  0.00000000000E+00  0.00000000000E+00  0.51495207942E+02  0.51495207942E+02  0.00000000000E+00 0.  1.
         21   -1    0    0  501  503 -0.00000000000E+00 -0.00000000000E+00 -0.23872250867E+04  0.23872250867E+04  0.00000000000E+00 0.  1.
          6    2    1    2  501    0 -0.20556604823E+03 -0.42034976908E+02 -0.39903338274E+03  0.48306274120E+03  0.17348669093E+03 0.  0.
         24    2    3    3    0    0 -0.85452388390E+02 -0.65261606619E+02 -0.28643959001E+03  0.31673108526E+03  0.81913086039E+02 0.  0.
         -6    2    1    2    0  502  0.20556604823E+03  0.42034976908E+02 -0.19366964960E+04  0.19556575535E+04  0.17256537655E+03 0.  0.
        -24    2    5    5    0    0  0.85227191180E+02 -0.37550825020E+02 -0.73268430731E+03  0.74302290898E+03  0.81135753656E+02 0.  0.
          5    1    3    3  501    0 -0.12011365983E+03  0.23226629711E+02 -0.11259379273E+03  0.16633165594E+03  0.47000000000E+01 0. -1.
        -11    1    4    4    0    0 -0.68408743907E+02 -0.18585113360E+02 -0.23393912143E+03  0.24444360335E+03  0.00000000000E+00 0.  1.
         12    1    4    4    0    0 -0.17043644483E+02 -0.46676493259E+02 -0.52500468581E+02  0.72287481914E+02  0.00000000000E+00 0. -1.
         -5    1    5    5    0  502  0.12033885704E+03  0.79585801928E+02 -0.12040121887E+04  0.12126346445E+04  0.47000000000E+01 0.  1.
         13    1    6    6    0    0 -0.13497071768E+02 -0.53244034293E+01 -0.39069457932E+02  0.41676645274E+02  0.00000000000E+00 0. -1.
        -14    1    6    6    0    0  0.98724262948E+02 -0.32226421591E+02 -0.69361484938E+03  0.70134626371E+03  0.00000000000E+00 0.  1.
</event>
<event>
12    1  0.1039610E+000  0.2368271E+03  0.7818608E-02  0.1121969E+00
         21   -1    0    0  501  502  0.00000000000E+00  0.00000000000E+00  0.11241286249E+04  0.11241286249E+04  0.00000000000E+00 0.  1.
         21   -1    0    0  502  503 -0.00000000000E+00 -0.00000000000E+00 -0.21505048605E+03  0.21505048605E+03  0.00000000000E+00 0.  1.
         -6    2    1    2    0  503 -0.78040100476E+02  0.14516773408E+03 -0.13229531294E+03  0.27127319910E+03  0.17006813464E+03 0.  0.
        -24    2    3    3    0    0 -0.21848011648E+02  0.19085709004E+02 -0.93829549769E+02  0.12789979559E+03  0.81931516538E+02 0.  0.
          6    2    1    2  501    0  0.78040100476E+02 -0.14516773408E+03  0.10413734518E+04  0.10679059118E+04  0.16970693029E+03 0.  0.
         24    2    5    5    0    0  0.10299157110E+03 -0.53885762836E+02  0.59708668616E+03  0.61362869003E+03  0.80726199475E+02 0.  0.
          5    1    5    5  501    0 -0.24951470622E+02 -0.91281971248E+02  0.44428676559E+03  0.45427722180E+03  0.47000000000E+01 0. -1.
        -11    1    6    6    0    0  0.32344441916E+02 -0.14965329074E+02  0.38623995866E+03  0.38788068999E+03  0.00000000000E+00 0.  1.
         12    1    6    6    0    0  0.70647129182E+02 -0.38920433762E+02  0.21084672750E+03  0.22574800004E+03  0.00000000000E+00 0. -1.
         -5    1    3    3    0  503 -0.56192088828E+02  0.12608202508E+03 -0.38465763174E+02  0.14337340350E+03  0.47000000000E+01 0.  1.
         13    1    4    4    0    0 -0.15644458109E+02  0.27167074311E+02  0.21102668835E+01  0.31420570053E+02  0.00000000000E+00 0. -1.
        -14    1    4    4    0    0 -0.62035535398E+01 -0.80813653077E+01 -0.95939816652E+02  0.96479225541E+02  0.00000000000E+00 0.  1.
</event>
<event>
12    1  0.1039610E+000  0.2277146E+03  0.7818608E-02  0.1128300E+00
         21   -1    0    0  503  502  0.00000000000E+00  0.00000000000E+00  0.14229504111E+03  0.14229504111E+03  0.00000000000E+00 0. -1.
         21   -1    0    0  501  503 -0.00000000000E+00 -0.00000000000E+00 -0.48322501141E+03  0.48322501141E+03  0.00000000000E+00 0. -1.
          6    2    1    2  501    0 -0.13673334128E+03 -0.57574308674E+02 -0.32572742897E+03  0.39729852439E+03  0.17244405429E+03 0.  0.
         24    2    3    3    0    0 -0.15304719766E+03 -0.73440184661E+02 -0.21963942155E+03  0.28869547079E+03  0.79288674619E+02 0.  0.
         -6    2    1    2    0  502  0.13673334128E+03  0.57574308674E+02 -0.15202541324E+02  0.22822152813E+03  0.17275167438E+03 0.  0.
        -24    2    5    5    0    0  0.46835597827E+02  0.87749905059E+02  0.18089367981E+02  0.12761033531E+03  0.77868821632E+02 0.  0.
          5    1    3    3  501    0  0.16313856386E+02  0.15865875987E+02 -0.10608800743E+03  0.10860305360E+03  0.47000000000E+01 0. -1.
        -11    1    4    4    0    0 -0.74652436077E+02 -0.36677903045E+02 -0.46943680751E+02  0.95508973120E+02  0.00000000000E+00 0.  1.
         12    1    4    4    0    0 -0.78394761588E+02 -0.36762281616E+02 -0.17269574080E+03  0.19318649767E+03  0.00000000000E+00 0. -1.
         -5    1    5    5    0  502  0.89897743451E+02 -0.30175596385E+02 -0.33291909304E+02  0.10061119282E+03  0.47000000000E+01 0.  1.
         13    1    6    6    0    0  0.30993769683E+02  0.29171006577E+02  0.44367267004E+02  0.61481832807E+02  0.00000000000E+00 0. -1.
        -14    1    6    6    0    0  0.15841828145E+02  0.58578898481E+02 -0.26277899023E+02  0.66128502503E+02  0.00000000000E+00 0.  1.
</event>
<event>
12    1  0.1039610E+000  0.2648515E+03  0.7818608E-02  0.1104977E+00
         21   -1    0    0  503  502  0.00000000000E+00  0.00000000000E+00  0.26605421722E+03  0.26605421722E+03  0.00000000000E+00 0.  1.
         21   -1    0    0  501  503 -0.00000000000E+00 -0.00000000000E+00 -0.25944125577E+03  0.25944125577E+03  0.00000000000E+00 0. -1.
          6    2    1    2  501    0  0.24151256037E+02  0.19243224645E+03 -0.89889346763E+01  0.26018480571E+03  0.17321050642E+03 0.  0.
         24    2    3    3    0    0  0.68574201243E+02  0.13025935389E+03  0.29196108263E+02  0.17463333504E+03  0.89299880267E+02 0.  0.
         -6    2    1    2    0  502 -0.24151256037E+02 -0.19243224645E+03  0.15601896127E+02  0.26531066729E+03  0.18036872892E+03 0.  0.
        -24    2    5    5    0    0  0.15259035088E+02 -0.19183238251E+03 -0.23536054312E+02  0.20956660888E+03  0.79572084136E+02 0.  0.
          5    1    3    3  501    0 -0.44422945206E+02  0.62172892561E+02 -0.38185042939E+02  0.85551470674E+02  0.47000000000E+01 0. -1.
        -11    1    4    4    0    0  0.37698173349E+02  0.26189113039E+02  0.45769214210E+02  0.64821623592E+02  0.00000000000E+00 0.  1.
         12    1    4    4    0    0  0.30876027894E+02  0.10407024085E+03 -0.16573105947E+02  0.10981171144E+03  0.00000000000E+00 0. -1.
         -5    1    5    5    0  502 -0.39410291125E+02 -0.59986394365E+00  0.39137950439E+02  0.55744058408E+02  0.47000000000E+01 0.  1.
         11    1    6    6    0    0 -0.30251157090E+01  0.63494689092E+01 -0.68939227655E+01  0.98485151966E+01  0.00000000000E+00 0. -1.
        -12    1    6    6    0    0  0.18284150797E+02 -0.19818185142E+03 -0.16642131547E+02  0.19971809368E+03  0.00000000000E+00 0.  1.
</event>
<event>
12    1  0.1039610E+000  0.2901100E+03  0.7818608E-02  0.1090445E+00
         21   -1    0    0  501  502  0.00000000000E+00  0.00000000000E+00  0.16239041291E+04  0.16239041291E+04  0.00000000000E+00 0.  1.
         21   -1    0    0  502  503 -0.00000000000E+00 -0.00000000000E+00 -0.52781115084E+02  0.52781115084E+02  0.00000000000E+00 0.  1.
         -6    2    1    2    0  503 -0.18095035706E+03 -0.14788028954E+03  0.65956986071E+03  0.72008031509E+03  0.16991658916E+03 0.  0.
        -24    2    3    3    0    0 -0.70442376233E+02 -0.34263105330E+02  0.23588964360E+03  0.26770006050E+03  0.99414836306E+02 0.  0.
          6    2    1    2  501    0  0.18095035706E+03  0.14788028954E+03  0.91155315329E+03  0.95660492907E+03  0.17190761270E+03 0.  0.
         24    2    5    5    0    0  0.15295098139E+03  0.13729053302E+03  0.89839252773E+03  0.92356858475E+03  0.60225440556E+02 0.  0.
          5    1    5    5  501    0  0.27999375668E+02  0.10589756521E+02  0.13160625551E+02  0.33036344318E+02  0.47000000000E+01 0. -1.
        -13    1    6    6    0    0  0.11556782314E+02  0.31211039106E+02  0.87082517569E+02  0.93225817485E+02  0.00000000000E+00 0.  1.
         14    1    6    6    0    0  0.14139419908E+03  0.10607949391E+03  0.81131001017E+03  0.83034276727E+03  0.00000000000E+00 0. -1.
         -5    1    3    3    0  503 -0.11050798083E+03 -0.11361718421E+03  0.42368021711E+03  0.45238025459E+03  0.47000000000E+01 0.  1.
         11    1    4    4    0    0 -0.47718228969E+02 -0.13750700036E+02  0.26894906489E+02  0.56475190327E+02  0.00000000000E+00 0. -1.
        -12    1    4    4    0    0 -0.22724147264E+02 -0.20512405294E+02  0.20899473711E+03  0.21122487017E+03  0.00000000000E+00 0.  1.
</event>
<event>
12    1  0.1039610E+000  0.2026669E+03  0.7818608E-02  0.1147668E+00
         21   -1    0    0  503  502  0.00000000000E+00  0.00000000000E+00  0.14761028165E+03  0.14761028165E+03  0.00000000000E+00 0. -1.
         21   -1    0    0  501  503 -0.00000000000E+00 -0.00000000000E+00 -0.29936246082E+03  0.29936246082E+03  0.00000000000E+00 0. -1.
          6    2    1    2  501    0 -0.10534138352E+03 -0.19519094369E+02 -0.14944627375E+02  0.20245243742E+03  0.17113107667E+03 0.  0.
         24    2    3    3    0    0 -0.19980904979E+02 -0.23550222113E+02 -0.66710557618E+02  0.10243012580E+03  0.71328694426E+02 0.  0.
         -6    2    1    2    0  502  0.10534138352E+03  0.19519094369E+02 -0.13680755180E+03  0.24452030505E+03  0.17203508719E+03 0.  0.
        -24    2    5    5    0    0  0.54138625702E+02 -0.51307737828E+02 -0.45248421465E+02  0.11785804976E+03  0.79244088073E+02 0.  0.
          5    1    3    3  501    0 -0.85360478544E+02  0.40311277441E+01  0.51765930243E+02  0.10002231162E+03  0.47000000000E+01 0. -1.
        -11    1    4    4    0    0 -0.32688557052E+02  0.11788522801E+02 -0.13450643835E+02  0.37261653903E+02  0.00000000000E+00 0.  1.
         12    1    4    4    0    0  0.12707652074E+02 -0.35338744914E+02 -0.53259913782E+02  0.65168471898E+02  0.00000000000E+00 0. -1.
         -5    1    5    5    0  502  0.51202757821E+02  0.70826832197E+02 -0.91559130336E+02  0.12666225529E+03  0.47000000000E+01 0.  1.
         13    1    6    6    0    0  0.28497732987E+02  0.81084157530E+01  0.11505174145E+02  0.31784213433E+02  0.00000000000E+00 0. -1.
        -14    1    6    6    0    0  0.25640892715E+02 -0.59416153581E+02 -0.56753595610E+02  0.86073836328E+02  0.00000000000E+00 0.  1.
</event>
<event>
12    1  0.1039610E+000  0.1875674E+03  0.7818608E-02  0.1160896E+00
         21   -1    0    0  503  502  0.00000000000E+00  0.00000000000E+00  0.25966189824E+03  0.25966189824E+03  0.00000000000E+00 0. -1.
         21   -1    0    0  501  503 -0.00000000000E+00 -0.00000000000E+00 -0.13716743856E+03  0.13716743856E+03  0.00000000000E+00 0. -1.
          6    2    1    2  501    0  0.62430669172E+02  0.37317657899E+02  0.87201880676E+02  0.20597048296E+03  0.17184142635E+03 0.  0.
         24    2    3    3    0    0  0.61501936763E+02  0.80857456675E+01  0.12317616751E+03  0.15936998350E+03  0.79865861853E+02 0.  0.
         -6    2    1    2    0  502 -0.62430669172E+02 -0.37317657899E+02  0.35292579006E+02  0.19085885384E+03  0.17289112155E+03 0.  0.
        -24    2    5    5    0    0 -0.36859273049E+02 -0.78084383804E+02 -0.18165365180E+02  0.11877789909E+03  0.79513720936E+02 0.  0.
          5    1    3    3  501    0  0.92873240900E+00  0.29231912231E+02 -0.35974286832E+02  0.46600499457E+02  0.47000000000E+01 0. -1.
        -13    1    4    4    0    0  0.33389433358E+02 -0.11167823963E+01  0.74536609581E+00  0.33416418622E+02  0.00000000000E+00 0.  1.
         14    1    4    4    0    0  0.28112503404E+02  0.92025280638E+01  0.12243080141E+03  0.12595356488E+03  0.00000000000E+00 0. -1.
         -5    1    5    5    0  502 -0.25571396123E+02  0.40766725905E+02  0.53457944186E+02  0.72080954747E+02  0.47000000000E+01 0.  1.
         11    1    6    6    0    0 -0.33355689292E+02  0.14287029460E+01 -0.20455994688E+02  0.39154704940E+02  0.00000000000E+00 0. -1.
        -12    1    6    6    0    0 -0.35035837571E+01 -0.79513086750E+02  0.22906295075E+01  0.79623194153E+02  0.00000000000E+00 0.  1.
</event>
<event>
12    1  0.1039610E+000  0.2088207E+03  0.7818608E-02  0.1145021E+00
         21   -1    0    0  503  502  0.00000000000E+00  0.00000000000E+00  0.52031315707E+03  0.52031315707E+03  0.00000000000E+00 0.  1.
         21   -1    0    0  501  503 -0.00000000000E+00 -0.00000000000E+00 -0.86051997674E+02  0.86051997674E+02  0.00000000000E+00 0.  1.
          6    2    1    2  501    0  0.63950309450E+02 -0.76156269998E+02  0.31005910104E+03  0.37382181672E+03  0.18362103632E+03 0.  0.
         24    2    3    3    0    0  0.42357817005E+02  0.24075837771E+02  0.81541377224E+02  0.12331203396E+03  0.78632250986E+02 0.  0.
         -6    2    1    2    0  502 -0.63950309450E+02  0.76156269998E+02  0.12420205835E+03  0.23254333802E+03  0.16959019200E+03 0.  0.
        -24    2    5    5    0    0 -0.59233152910E+02  0.11475130319E+03  0.84750409064E+02  0.17695241444E+03  0.86331321960E+02 0.  0.
          5    1    3    3  501    0  0.21592492445E+02 -0.10023210777E+03  0.22851772382E+03  0.25050978276E+03  0.47000000000E+01 0. -1.
        -11    1    4    4    0    0  0.35553093436E+02  0.69060380826E+00  0.90598585685E+02  0.97327298918E+02  0.00000000000E+00 0.  1.
         12    1    4    4    0    0  0.68047235696E+01  0.23385233963E+02 -0.90572084609E+01  0.25984735047E+02  0.00000000000E+00 0. -1.
         -5    1    5    5    0  502 -0.47171565399E+01 -0.38595033196E+02  0.39451649290E+02  0.55590923584E+02  0.47000000000E+01 0.  1.
         11    1    6    6    0    0  0.19379215443E+02  0.12768861748E+02  0.27639887370E+02  0.36091012667E+02  0.00000000000E+00 0. -1.
        -12    1    6    6    0    0 -0.78612368353E+02  0.10198244145E+03  0.57110521695E+02  0.14086140177E+03  0.00000000000E+00 0.  1.
</event>
<event>
12    1  0.1039610E+000  0.1889946E+03  0.7818608E-02  0.1159624E+00
         21   -1    0    0  503  502  0.00000000000E+00  0.00000000000E+00  0.28516911312E+02  0.28516911312E+02  0.00000000000E+00 0. -1.
         21   -1    0    0  501  503 -0.00000000000E+00 -0.00000000000E+00 -0.17474384450E+04  0.17474384450E+04  0.00000000000E+00 0. -1.
          6    2    1    2  501    0  0.34691859489E+02 -0.71986780041E+02 -0.13337066689E+04  0.13468755797E+04  0.17004330940E+03 0.  0.
         24    2    3    3    0    0  0.73614066805E+02 -0.28987903864E+02 -0.49933408638E+03  0.51047642982E+03  0.70656395108E+02 0.  0.
         -6    2    1    2    0  502 -0.34691859489E+02  0.71986780041E+02 -0.38521486476E+03  0.42907977652E+03  0.17126979002E+03 0.  0.
        -24    2    5    5    0    0 -0.55575408281E+02 -0.51669107829E+01 -0.28072989013E+03  0.29744385991E+03  0.80921292721E+02 0.  0.
          5    1    3    3  501    0 -0.38922207316E+02 -0.42998876177E+02 -0.83437258250E+03  0.83639914993E+03  0.47000000000E+01 0. -1.
        -11    1    4    4    0    0  0.43832601842E+01  0.13501586265E+02 -0.21344257777E+02  0.25633633016E+02  0.00000000000E+00 0.  1.
         12    1    4    4    0    0  0.69230806621E+02 -0.42489490129E+02 -0.47798982861E+03  0.48484279680E+03  0.00000000000E+00 0. -1.
         -5    1    5    5    0  502  0.20883548792E+02  0.77153690824E+02 -0.10448497463E+03  0.13163591661E+03  0.47000000000E+01 0.  1.
         11    1    6    6    0    0 -0.27297657941E+02  0.21027648307E+01 -0.26047236589E+03  0.26190730639E+03  0.00000000000E+00 0. -1.
        -12    1    6    6    0    0 -0.28277750340E+02 -0.72696756136E+01 -0.20257524236E+02  0.35536553519E+02  0.00000000000E+00 0.  1.
</event>
<event>
12    1  0.1039610E+000  0.5722520E+03  0.7818608E-02  0.9964792E-01
         21   -1    0    0  501  502  0.00000000000E+00  0.00000000000E+00  0.54078691263E+03  0.54078691263E+03  0.00000000000E+00 0.  1.
         21   -1    0    0  502  503 -0.00000000000E+00 -0.00000000000E+00 -0.10097567511E+04  0.10097567511E+04  0.00000000000E+00 0. -1.
         -6    2    1    2    0  503 -0.34787947142E+03  0.42022355537E+03 -0.72507525546E+03  0.92359685925E+03  0.17230516306E+03 0.  0.
        -24    2    3    3    0    0 -0.35855193362E+03  0.41526002359E+03 -0.72267607367E+03  0.91069786043E+03  0.78163349753E+02 0.  0.
          6    2    1    2  501    0  0.34787947142E+03 -0.42022355537E+03  0.25610541700E+03  0.62694680447E+03  0.17281304320E+03 0.  0.
         24    2    5    5    0    0  0.18768408790E+03 -0.13342660116E+03  0.10570473574E+03  0.26561937849E+03  0.79700616823E+02 0.  0.
          5    1    5    5  501    0  0.16019538352E+03 -0.28679695422E+03  0.15040068125E+03  0.36132742598E+03  0.47000000000E+01 0. -1.
        -11    1    6    6    0    0  0.10327127284E+03 -0.79556765698E+02  0.10180868466E+03  0.16540629685E+03  0.00000000000E+00 0.  1.
         12    1    6    6    0    0  0.84412815060E+02 -0.53869835458E+02  0.38960510806E+01  0.10021308164E+03  0.00000000000E+00 0. -1.
         -5    1    3    3    0  503  0.10672462204E+02  0.49635317857E+01 -0.23991817861E+01  0.12898998819E+02  0.47000000000E+01 0.  1.
         13    1    4    4    0    0 -0.13692223699E+03  0.21763367319E+03 -0.34434157775E+03  0.42974787592E+03  0.00000000000E+00 0. -1.
        -14    1    4    4    0    0 -0.22162969663E+03  0.19762635040E+03 -0.37833449592E+03  0.48094998452E+03  0.00000000000E+00 0.  1.
</event>
<event>
12    1  0.1039610E+000  0.1877600E+03  0.7818608E-02  0.1160873E+00
         21   -1    0    0  503  502  0.00000000000E+00  0.00000000000E+00  0.13454669002E+04  0.13454669002E+04  0.00000000000E+00 0.  1.
         21   -1    0    0  501  503 -0.00000000000E+00 -0.00000000000E+00 -0.28181032848E+02  0.28181032848E+02  0.00000000000E+00 0.  1.
          6    2    1    2  501    0 -0.70520520226E+02 -0.23694672351E+02  0.84817058224E+03  0.86835300572E+03  0.17061367087E+03 0.  0.
         24    2    3    3    0    0  0.15760816168E+02  0.22415272492E+01  0.23186404812E+03  0.24547822741E+03  0.79026549638E+02 0.  0.
         -6    2    1    2    0  502  0.70520520226E+02  0.23694672351E+02  0.46911528507E+03  0.50529492729E+03  0.17239266686E+03 0.  0.
        -24    2    5    5    0    0  0.66581646287E+02  0.48243285958E+02  0.16767523173E+03  0.20279477041E+03  0.79058239958E+02 0.  0.
          5    1    3    3  501    0 -0.86281336394E+02 -0.25936199600E+02  0.61630653412E+03  0.62287477831E+03  0.47000000000E+01 0. -1.
        -11    1    4    4    0    0  0.16999240476E+02 -0.17636201427E-01  0.38245408155E+01  0.17424167132E+02  0.00000000000E+00 0.  1.
         12    1    4    4    0    0 -0.12384243083E+01  0.22591634506E+01  0.22803950731E+03  0.22805406027E+03  0.00000000000E+00 0. -1.
         -5    1    5    5    0  502  0.39388739391E+01 -0.24548613607E+02  0.30144005334E+03  0.30250015689E+03  0.47000000000E+01 0.  1.
         13    1    6    6    0    0  0.10179558794E+02  0.41587097660E+02  0.25831922614E+02  0.50003983191E+02  0.00000000000E+00 0. -1.
        -14    1    6    6    0    0  0.56402087493E+02  0.66561882979E+01  0.14184330912E+03  0.15279078721E+03  0.00000000000E+00 0.  1.
</event>
<event>
12    1  0.1039610E+000  0.1745757E+03  0.7818608E-02  0.1173288E+00
         21   -1    0    0  503  502  0.00000000000E+00  0.00000000000E+00  0.34070261887E+02  0.34070261887E+02  0.00000000000E+00 0.  1.
         21   -1    0    0  501  503 -0.00000000000E+00 -0.00000000000E+00 -0.90427632654E+03  0.90427632654E+03  0.00000000000E+00 0.  1.
          6    2    1    2  501    0  0.32551866628E+01  0.27355220073E+02 -0.48937651856E+03  0.51941006452E+03  0.17186778029E+03 0.  0.
         24    2    3    3    0    0 -0.32660232113E+02  0.45588130566E+02 -0.45794105359E+03  0.46810085688E+03  0.79141867795E+02 0.  0.
         -6    2    1    2    0  502 -0.32551866628E+01 -0.27355220073E+02 -0.38082954609E+03  0.41893652391E+03  0.17238840906E+03 0.  0.
        -24    2    5    5    0    0  0.65016582186E+02 -0.16007626514E+02 -0.25419025631E+03  0.27454330378E+03  0.79233447369E+02 0.  0.
          5    1    3    3  501    0  0.35915418776E+02 -0.18232910494E+02 -0.31435464972E+02  0.51309207643E+02  0.47000000000E+01 0. -1.
        -11    1    4    4    0    0  0.65087839354E+01 -0.11160244757E+02 -0.14879111995E+02  0.19705413092E+02  0.00000000000E+00 0.  1.
         12    1    4    4    0    0 -0.39169016048E+02  0.56748375323E+02 -0.44306194159E+03  0.44839544379E+03  0.00000000000E+00 0. -1.
         -5    1    5    5    0  502 -0.68271768849E+02 -0.11347593559E+02 -0.12663928978E+03  0.14439322012E+03  0.47000000000E+01 0.  1.
         11    1    6    6    0    0  0.56211831152E+02 -0.20256357082E+02 -0.78853156723E+02  0.98933868260E+02  0.00000000000E+00 0. -1.
        -12    1    6    6    0    0  0.88047510344E+01  0.42487305683E+01 -0.17533709959E+03  0.17560943552E+03  0.00000000000E+00 0.  1.
</event>
<event>
12    1  0.1039610E+000  0.2252639E+03  0.7818608E-02  0.1130434E+00
         21   -1    0    0  503  502  0.00000000000E+00  0.00000000000E+00  0.44337133022E+03  0.44337133022E+03  0.00000000000E+00 0.  1.
         21   -1    0    0  501  503 -0.00000000000E+00 -0.00000000000E+00 -0.11696059711E+03  0.11696059711E+03  0.00000000000E+00 0.  1.
          6    2    1    2  501    0  0.20384411195E+02 -0.14184025607E+03  0.11277582591E+03  0.24987465620E+03  0.17083551867E+03 0.  0.
         24    2    3    3    0    0  0.27178836712E+02 -0.87081085663E+02  0.14198067413E+03  0.18726679630E+03  0.81169800573E+02 0.  0.
         -6    2    1    2    0  502 -0.20384411195E+02  0.14184025607E+03  0.21363490720E+03  0.31045727114E+03  0.17380926663E+03 0.  0.
        -24    2    5    5    0    0 -0.63254543126E+02  0.12098762121E+03  0.20973049965E+03  0.26239465583E+03  0.78898233257E+02 0.  0.
          5    1    3    3  501    0 -0.67944255174E+01 -0.54759170403E+02 -0.29204848223E+02  0.62607859898E+02  0.47000000000E+01 0. -1.
        -13    1    4    4    0    0  0.47441152176E+02 -0.21335642382E+02  0.74799486774E+02  0.91108922600E+02  0.00000000000E+00 0.  1.
         14    1    4    4    0    0 -0.20262315464E+02 -0.65745443280E+02  0.67181187356E+02  0.96157873700E+02  0.00000000000E+00 0. -1.
         -5    1    5    5    0  502  0.42870131931E+02  0.20852634853E+02  0.39044075523E+01  0.48062615310E+02  0.47000000000E+01 0.  1.
         13    1    6    6    0    0 -0.36244332695E+02  0.71729778899E+02  0.53953542364E+02  0.96797714679E+02  0.00000000000E+00 0. -1.
        -14    1    6    6    0    0 -0.27010210431E+02  0.49257842313E+02  0.15577695728E+03  0.16559694115E+03  0.00000000000E+00 0.  1.
</event>
<event>
12    1  0.1039610E+000  0.2282132E+03  0.7818608E-02  0.1128042E+00
         21   -1    0    0  501  502  0.00000000000E+00  0.00000000000E+00  0.15463903983E+03  0.15463903983E+03  0.00000000000E+00 0. -1.
         21   -1    0    0  502  503 -0.00000000000E+00 -0.00000000000E+00 -0.33564894298E+03  0.33564894298E+03  0.00000000000E+00 0. -1.
         -6    2    1    2    0  503  0.58280514961E+02  0.13781357441E+03 -0.90698425487E+02  0.24557577679E+03  0.17231383591E+03 0.  0.
        -24    2    3    3    0    0  0.13506742517E+01  0.48169992980E+01 -0.53890163509E+02  0.96223729919E+02  0.79560220421E+02 0.  0.
          6    2    1    2  501    0 -0.58280514961E+02 -0.13781357441E+03 -0.90311477671E+02  0.24471220602E+03  0.17128543738E+03 0.  0.
         24    2    5    5    0    0 -0.10324393291E+03 -0.12423325072E+03 -0.73537683941E+02  0.19461645469E+03  0.79840861781E+02 0.  0.
          5    1    5    5  501    0  0.44963417947E+02 -0.13580323699E+02 -0.16773793730E+02  0.50095751331E+02  0.47000000000E+01 0. -1.
        -13    1    6    6    0    0 -0.69897218013E+02 -0.11309090146E+03 -0.25962301606E+02  0.13545927131E+03  0.00000000000E+00 0.  1.
         14    1    6    6    0    0 -0.33346714895E+02 -0.11142349260E+02 -0.47575382335E+02  0.59157183382E+02  0.00000000000E+00 0. -1.
         -5    1    3    3    0  503  0.56929840709E+02  0.13299657512E+03 -0.36808261978E+02  0.14935204687E+03  0.47000000000E+01 0.  1.
         13    1    4    4    0    0 -0.22665010814E+02  0.10191743679E+02  0.10735596301E+02  0.27070784665E+02  0.00000000000E+00 0. -1.
        -14    1    4    4    0    0  0.24015685066E+02 -0.53747443807E+01 -0.64625759810E+02  0.69152945254E+02  0.00000000000E+00 0.  1.
</event>
<event>
12    1  0.1039610E+000  0.4717271E+03  0.7818608E-02  0.1021463E+00
         21   -1    0    0  501  502  0.00000000000E+00  0.00000000000E+00  0.16082191049E+03  0.16082191049E+03  0.00000000000E+00 0. -1.
         21   -1    0    0  502  503 -0.00000000000E+00 -0.00000000000E+00 -0.19432486816E+04  0.19432486816E+04  0.00000000000E+00 0. -1.
         -6    2    1    2    0  503  0.29428925913E+03 -0.32527543595E+03 -0.14566452956E+04  0.15311244274E+04  0.17354024837E+03 0.  0.
        -24    2    3    3    0    0  0.24869993393E+03 -0.17409247189E+03 -0.95123861075E+03  0.10016032453E+04  0.78704006118E+02 0.  0.
          6    2    1    2  501    0 -0.29428925913E+03  0.32527543595E+03 -0.32578147560E+03  0.57294616475E+03  0.17240493201E+03 0.  0.
         24    2    5    5    0    0 -0.16495690624E+03  0.27456978655E+03 -0.25050118053E+03  0.41487297533E+03  0.82276336894E+02 0.  0.
          5    1    5    5  501    0 -0.12933235289E+03  0.50705649400E+02 -0.75280295070E+02  0.15807318941E+03  0.47000000000E+01 0. -1.
        -13    1    6    6    0    0 -0.12848568099E+03  0.17175330528E+03 -0.20489430752E+03  0.29663014909E+03  0.00000000000E+00 0.  1.
         14    1    6    6    0    0 -0.36471225246E+02  0.10281648127E+03 -0.45606873005E+02  0.11824282624E+03  0.00000000000E+00 0. -1.
         -5    1    3    3    0  503  0.45589325195E+02 -0.15118296406E+03 -0.50540668481E+03  0.52952118205E+03  0.47000000000E+01 0.  1.
         11    1    4    4    0    0  0.10452276776E+03 -0.31408498406E+02 -0.28557550315E+03  0.30572024916E+03  0.00000000000E+00 0. -1.
        -12    1    4    4    0    0  0.14417716617E+03 -0.14268397349E+03 -0.66566310760E+03  0.69588299617E+03  0.00000000000E+00 0.  1.
</event>
<event>
12    1  0.1039610E+000  0.1793558E+03  0.7818608E-02  0.1169667E+00
         21   -1    0    0  501  502  0.00000000000E+00  0.00000000000E+00  0.12358799515E+03  0.12358799515E+03  0.00000000000E+00 0.  1.
         21   -1    0    0  502  503 -0.00000000000E+00 -0.00000000000E+00 -0.26445387005E+03  0.26445387005E+03  0.00000000000E+00 0.  1.
         -6    2    1    2    0  503  0.29926784559E+02  0.52083110295E+01 -0.29199626113E+02  0.17676515550E+03  0.17166992485E+03 0.  0.
        -24    2    3    3    0    0  0.13090491817E+02 -0.23266821544E+02 -0.79523014151E+02  0.11635963165E+03  0.80640858978E+02 0.  0.
          6    2    1    2  501    0 -0.29926784559E+02 -0.52083110295E+01 -0.11166624878E+03  0.21127670970E+03  0.17676469671E+03 0.  0.
         24    2    5    5    0    0 -0.10087829020E+02  0.65402225758E+02 -0.81409815052E+02  0.13179731712E+03  0.79773174591E+02 0.  0.
          5    1    5    5  501    0 -0.19838955539E+02 -0.70610536787E+02 -0.30256433733E+02  0.79479392577E+02  0.47000000000E+01 0. -1.
        -11    1    6    6    0    0 -0.39953164097E+02  0.42646131789E+02 -0.72660686582E+02  0.93244427461E+02  0.00000000000E+00 0.  1.
         12    1    6    6    0    0  0.29865335077E+02  0.22756093969E+02 -0.87491284696E+01  0.38552889657E+02  0.00000000000E+00 0. -1.
         -5    1    3    3    0  503  0.16836292742E+02  0.28475132574E+02  0.50323388038E+02  0.60405523854E+02  0.47000000000E+01 0.  1.
         11    1    4    4    0    0  0.30680707497E+02  0.91827638751E+01 -0.39675418901E+01  0.32270270429E+02  0.00000000000E+00 0. -1.
        -12    1    4    4    0    0 -0.17590215680E+02 -0.32449585419E+02 -0.75555472261E+02  0.84089361219E+02  0.00000000000E+00 0.  1.
</event>
<event>
12    1  0.1039610E+000  0.1807443E+03  0.7818608E-02  0.1167136E+00
         21   -1    0    0  503  502  0.00000000000E+00  0.00000000000E+00  0.94983885005E+02  0.94983885005E+02  0.00000000000E+00 0.  1.
         21   -1    0    0  501  503 -0.00000000000E+00 -0.00000000000E+00 -0.40412330254E+03  0.40412330254E+03  0.00000000000E+00 0.  1.
          6    2    1    2  501    0 -0.50652098182E+02 -0.13911612236E+02 -0.57860016291E+02  0.18957551320E+03  0.17271921062E+03 0.  0.
         24    2    3    3    0    0  0.74227644394E+01 -0.39872612612E+02  0.17284858125E+02  0.91008250079E+02  0.79616660277E+02 0.  0.
         -6    2    1    2    0  502  0.50652098182E+02  0.13911612236E+02 -0.25127940125E+03  0.30953167434E+03  0.17294320433E+03 0.  0.
        -24    2    5    5    0    0 -0.15800174899E+02  0.25037355429E+02 -0.49627377290E+02  0.96869229315E+02  0.77744815375E+02 0.  0.
          5    1    3    3  501    0 -0.58074862621E+02  0.25961000376E+02 -0.75144874416E+02  0.98567263126E+02  0.47000000000E+01 0. -1.
        -11    1    4    4    0    0 -0.70970469051E+01  0.21474914880E+02 -0.66508549145E+01  0.23574857687E+02  0.00000000000E+00 0.  1.
         12    1    4    4    0    0  0.14519811345E+02 -0.61347527491E+02  0.23935713040E+02  0.67433392392E+02  0.00000000000E+00 0. -1.
         -5    1    5    5    0  502  0.66452273081E+02 -0.11125743193E+02 -0.20165202396E+03  0.21266244503E+03  0.47000000000E+01 0.  1.
         11    1    6    6    0    0 -0.58242549339E+01  0.51923112304E+02 -0.42419435838E+02  0.67300372018E+02  0.00000000000E+00 0. -1.
        -12    1    6    6    0    0 -0.99759199648E+01 -0.26885756876E+02 -0.72079414523E+01  0.29568857298E+02  0.00000000000E+00 0.  1.
</event>
<event>
12    1  0.1039610E+000  0.3063072E+03  0.7818608E-02  0.1082378E+00
         21   -1    0    0  501  502  0.00000000000E+00  0.00000000000E+00  0.96196533271E+02  0.96196533271E+02  0.00000000000E+00 0.  1.
         21   -1    0    0  502  503 -0.00000000000E+00 -0.00000000000E+00 -0.11358433288E+04  0.11358433288E+04  0.00000000000E+00 0.  1.
         -6    2    1    2    0  503  0.22888354876E+03 -0.10307196491E+03 -0.75453076815E+03  0.81357213174E+03  0.17196343976E+03 0.  0.
        -24    2    3    3    0    0  0.18264551450E+03 -0.51097766305E+02 -0.68602506884E+03  0.71582555139E+03  0.76193564403E+02 0.  0.
          6    2    1    2  501    0 -0.22888354876E+03  0.10307196491E+03 -0.28511602736E+03  0.41846773031E+03  0.17553513442E+03 0.  0.
         24    2    5    5    0    0 -0.10563081659E+03 -0.19172749319E+02 -0.13906074022E+03  0.19155531760E+03  0.76355003110E+02 0.  0.
          5    1    5    5  501    0 -0.12325273217E+03  0.12224471423E+03 -0.14605528714E+03  0.22691241272E+03  0.47000000000E+01 0. -1.
        -13    1    6    6    0    0 -0.43082876448E+02  0.22682777224E+02 -0.24554356775E+02  0.54530349919E+02  0.00000000000E+00 0.  1.
         14    1    6    6    0    0 -0.62547940140E+02 -0.41855526543E+02 -0.11450638344E+03  0.13702496768E+03  0.00000000000E+00 0. -1.
         -5    1    3    3    0  503  0.46238034252E+02 -0.51974198602E+02 -0.68505699310E+02  0.97746580348E+02  0.47000000000E+01 0.  1.
         11    1    4    4    0    0  0.18688408971E+03 -0.43967705888E+02 -0.61377126625E+03  0.64309718505E+03  0.00000000000E+00 0. -1.
        -12    1    4    4    0    0 -0.42385752091E+01 -0.71300604171E+01 -0.72253802595E+02  0.72728366342E+02  0.00000000000E+00 0.  1.
</event>
<event>
12    1  0.1039610E+000  0.2291291E+03  0.7818608E-02  0.1127280E+00
         21   -1    0    0  501  502  0.00000000000E+00  0.00000000000E+00  0.13155203513E+03  0.13155203513E+03  0.00000000000E+00 0.  1.
         21   -1    0    0  502  503 -0.00000000000E+00 -0.00000000000E+00 -0.39973757417E+03  0.39973757417E+03  0.00000000000E+00 0.  1.
         -6    2    1    2    0  503  0.15165395591E+03  0.28725661838E+01 -0.12147893138E+03  0.25934010801E+03  0.17173522316E+03 0.  0.
        -24    2    3    3    0    0  0.56042927417E+02 -0.24148812579E+02 -0.12502736258E+03  0.15980968530E+03  0.78634084591E+02 0.  0.
          6    2    1    2  501    0 -0.15165395591E+03 -0.28725661838E+01 -0.14670660765E+03  0.27194950129E+03  0.17154162335E+03 0.  0.
         24    2    5    5    0    0 -0.15794596028E+03 -0.27195075941E+02 -0.16276748793E+03  0.24176315214E+03  0.79181235655E+02 0.  0.
          5    1    5    5  501    0  0.62920043698E+01  0.24322509757E+02  0.16060880276E+02  0.30186349152E+02  0.47000000000E+01 0. -1.
        -13    1    6    6    0    0 -0.43313862052E+02 -0.33483491917E+02 -0.91527403291E+02  0.10665130299E+03  0.00000000000E+00 0.  1.
         14    1    6    6    0    0 -0.11463209823E+03  0.62884159764E+01 -0.71240084640E+02  0.13511184915E+03  0.00000000000E+00 0. -1.
         -5    1    3    3    0  503  0.95611028497E+02  0.27021378763E+02  0.35484312016E+01  0.99530422708E+02  0.47000000000E+01 0.  1.
         13    1    4    4    0    0  0.43302281449E+02 -0.11922530028E+02 -0.13507967007E+02  0.46900953867E+02  0.00000000000E+00 0. -1.
        -14    1    4    4    0    0  0.12740645968E+02 -0.12226282550E+02 -0.11151939558E+03  0.11290873144E+03  0.00000000000E+00 0.  1.
</event>
<event>
12    1  0.1039610E+000  0.1874854E+03  0.7818608E-02  0.1161050E+00
         21   -1    0    0  501  502  0.00000000000E+00  0.00000000000E+00  0.48478112558E+03  0.48478112558E+03  0.00000000000E+00 0. -1.
         21   -1    0    0  502  503 -0.00000000000E+00 -0.00000000000E+00 -0.80666475714E+02  0.80666475714E+02  0.00000000000E+00 0. -1.
         -6    2    1    2    0  503  0.23691919902E+01 -0.74169235687E+02  0.29533473506E+03  0.34981906853E+03  0.17217458110E+03 0.  0.
        -24    2    3    3    0    0 -0.20277790746E+02 -0.62533455876E+02  0.30509089662E+03  0.32215049633E+03  0.79867798199E+02 0.  0.
          6    2    1    2  501    0 -0.23691919902E+01  0.74169235687E+02  0.10877991480E+03  0.21562853277E+03  0.17075100494E+03 0.  0.
         24    2    5    5    0    0 -0.51819952915E+02  0.39150591667E+01  0.33566390367E+02  0.10134733864E+03  0.80274188117E+02 0.  0.
          5    1    5    5  501    0  0.49450760925E+02  0.70254176520E+02  0.75213524438E+02  0.11428119414E+03  0.47000000000E+01 0. -1.
        -13    1    6    6    0    0 -0.11799353204E+02  0.37553767612E+02  0.28951175034E+02  0.48863900108E+02  0.00000000000E+00 0.  1.
         14    1    6    6    0    0 -0.40020599711E+02 -0.33638708445E+02  0.46152153329E+01  0.52483438528E+02  0.00000000000E+00 0. -1.
         -5    1    3    3    0  503  0.22646982736E+02 -0.11635779811E+02 -0.97561615524E+01  0.27668572191E+02  0.47000000000E+01 0.  1.
         13    1    4    4    0    0 -0.79545033080E+01 -0.76829912128E+02  0.18335708277E+03  0.19896213037E+03  0.00000000000E+00 0. -1.
        -14    1    4    4    0    0 -0.12323287438E+02  0.14296456253E+02  0.12173381385E+03  0.12318836597E+03  0.00000000000E+00 0.  1.
</event>
<event>
12    1  0.1039610E+000  0.2701502E+03  0.7818608E-02  0.1101314E+00
         21   -1    0    0  503  502  0.00000000000E+00  0.00000000000E+00  0.69152374071E+02  0.69152374071E+02  0.00000000000E+00 0.  1.
         21   -1    0    0  501  503 -0.00000000000E+00 -0.00000000000E+00 -0.11269275165E+04  0.11269275165E+04  0.00000000000E+00 0.  1.
          6    2    1    2  501    0 -0.19899907198E+03 -0.59203228203E+02 -0.68375917851E+03  0.73519230499E+03  0.17284518575E+03 0.  0.
         24    2    3    3    0    0 -0.58001869946E+02  0.30734360114E+02 -0.27371318589E+03  0.29232800654E+03  0.78917282451E+02 0.  0.
         -6    2    1    2    0  502  0.19899907198E+03  0.59203228203E+02 -0.37401596394E+03  0.46088758560E+03  0.17153358972E+03 0.  0.
        -24    2    5    5    0    0  0.13415908949E+03  0.19576315209E+02 -0.34567849197E+03  0.37964955337E+03  0.79109229265E+02 0.  0.
          5    1    3    3  501    0 -0.14099720204E+03 -0.89937588316E+02 -0.41004599262E+03  0.44286429844E+03  0.47000000000E+01 0. -1.
        -11    1    4    4    0    0  0.76894694787E+01  0.98687357088E+01 -0.28480498444E+01  0.12830871883E+02  0.00000000000E+00 0.  1.
         12    1    4    4    0    0 -0.65691339425E+02  0.20865624405E+02 -0.27086513605E+03  0.27949713466E+03  0.00000000000E+00 0. -1.
         -5    1    5    5    0  502  0.64839982491E+02  0.39626912994E+02 -0.28337471966E+02  0.81238032228E+02  0.47000000000E+01 0.  1.
         11    1    6    6    0    0  0.36183174139E+02  0.42575476184E+02 -0.10979265421E+03  0.12319220828E+03  0.00000000000E+00 0. -1.
        -12    1    6    6    0    0  0.97975915353E+02 -0.22999160976E+02 -0.23588583776E+03  0.25645734509E+03  0.00000000000E+00 0.  1.
</event>
<event>
12    1  0.1039610E+000  0.7147659E+03  0.7818608E-02  0.9692352E-01
         21   -1    0    0  501  502  0.00000000000E+00  0.00000000000E+00  0.13175504296E+04  0.13175504296E+04  0.00000000000E+00 0. -1.
         21   -1    0    0  502  503 -0.00000000000E+00 -0.00000000000E+00 -0.40013554090E+03  0.40013554090E+03  0.00000000000E+00 0. -1.
         -6    2    1    2    0  503  0.17693245198E+03  0.67056298119E+03  0.30727658239E+03  0.77792054162E+03  0.17257365581E+03 0.  0.
        -24    2    3    3    0    0  0.19955977006E+03  0.63945621449E+03  0.28051831214E+03  0.73082785127E+03  0.81795309519E+02 0.  0.
          6    2    1    2  501    0 -0.17693245198E+03 -0.67056298119E+03  0.61013830632E+03  0.93976542890E+03  0.17300434734E+03 0.  0.
         24    2    5    5    0    0 -0.70892613476E+02 -0.51766622395E+03  0.45443021485E+03  0.69709494146E+03  0.80190118897E+02 0.  0.
          5    1    5    5  501    0 -0.10603983850E+03 -0.15289675724E+03  0.15570809147E+03  0.24267048744E+03  0.47000000000E+01 0. -1.
        -11    1    6    6    0    0 -0.66475983794E+02 -0.31778609705E+03  0.32212578019E+03  0.45735334060E+03  0.00000000000E+00 0.  1.
         12    1    6    6    0    0 -0.44166296819E+01 -0.19988012690E+03  0.13230443467E+03  0.23974160085E+03  0.00000000000E+00 0. -1.
         -5    1    3    3    0  503 -0.22627318082E+02  0.31106766702E+02  0.26758270245E+02  0.47092690354E+02  0.47000000000E+01 0.  1.
         13    1    4    4    0    0  0.65927121236E+02  0.30385601689E+03  0.16237467514E+03  0.35077114967E+03  0.00000000000E+00 0. -1.
        -14    1    4    4    0    0  0.13363264883E+03  0.33560019760E+03  0.11814363700E+03  0.38005670159E+03  0.00000000000E+00 0.  1.
</event>
<event>
12    1  0.1039610E+000  0.2050530E+03  0.7818608E-02  0.1146758E+00
         21   -1    0    0  501  502  0.00000000000E+00  0.00000000000E+00  0.10447355516E+03  0.10447355516E+03  0.00000000000E+00 0.  1.
         21   -1    0    0  502  503 -0.00000000000E+00 -0.00000000000E+00 -0.41400520970E+03  0.41400520970E+03  0.00000000000E+00 0.  1.
         -6    2    1    2    0  503  0.97553990153E+02 -0.56477802071E+01 -0.95854336819E+02  0.22635099186E+03  0.18027212545E+03 0.  0.
        -24    2    3    3    0    0  0.13892720635E+03  0.47966906131E+01 -0.75519534566E+02  0.17884915851E+03  0.83426881129E+02 0.  0.
          6    2    1    2  501    0 -0.97553990153E+02  0.56477802071E+01 -0.21367731773E+03  0.29212777299E+03  0.17358560201E+03 0.  0.
         24    2    5    5    0    0 -0.61016075031E+02  0.53049302810E+02 -0.68197376828E+02  0.13474789248E+03  0.83480071758E+02 0.  0.
          5    1    5    5  501    0 -0.36537915123E+02 -0.47401522603E+02 -0.14547994090E+03  0.15737988051E+03  0.47000000000E+01 0. -1.
        -13    1    6    6    0    0 -0.43521839042E+02 -0.80654045324E+01 -0.40663565768E+01  0.44449257358E+02  0.00000000000E+00 0.  1.
         14    1    6    6    0    0 -0.17494235988E+02  0.61114707342E+02 -0.64131020252E+02  0.90298635122E+02  0.00000000000E+00 0. -1.
         -5    1    3    3    0  503 -0.41373216196E+02 -0.10444470820E+02 -0.20334802252E+02  0.47501833351E+02  0.47000000000E+01 0.  1.
         13    1    4    4    0    0  0.34682487237E+01  0.15457946179E+02  0.95882397917E+01  0.18517861420E+02  0.00000000000E+00 0. -1.
        -14    1    4    4    0    0  0.13545895763E+03 -0.10661255566E+02 -0.85107774358E+02  0.16033129709E+03  0.00000000000E+00 0.  1.
</event>
<event>
12    1  0.1039610E+000  0.3192676E+03  0.7818608E-02  0.1076008E+00
         21   -1    0    0  503  502  0.00000000000E+00  0.00000000000E+00  0.89817140413E+02  0.89817140413E+02  0.00000000000E+00 0. -1.
         21   -1    0    0  501  503 -0.00000000000E+00 -0.00000000000E+00 -0.11837691420E+04  0.11837691420E+04  0.00000000000E+00 0. -1.
          6    2    1    2  501    0  0.15472139539E+03  0.22016252973E+03 -0.67739656360E+03  0.74886439317E+03  0.17181829149E+03 0.  0.
         24    2    3    3    0    0  0.64440631134E+02  0.59256990241E+02 -0.15278096438E+03  0.19273057296E+03  0.78352184680E+02 0.  0.
         -6    2    1    2    0  502 -0.15472139539E+03 -0.22016252973E+03 -0.41655543800E+03  0.52472188925E+03  0.17147704933E+03 0.  0.
        -24    2    5    5    0    0 -0.24058565290E+02 -0.42821078225E+02 -0.17007166017E+03  0.19411773271E+03  0.79654662477E+02 0.  0.
          5    1    3    3  501    0  0.90280764260E+02  0.16090553949E+03 -0.52461559922E+03  0.55613382021E+03  0.47000000000E+01 0. -1.
        -13    1    4    4    0    0  0.67973702084E+02  0.31170413214E+02 -0.14535816606E+03  0.16346563943E+03  0.00000000000E+00 0.  1.
         14    1    4    4    0    0 -0.35330709503E+01  0.28086577026E+02 -0.74227983152E+01  0.29264933525E+02  0.00000000000E+00 0. -1.
         -5    1    5    5    0  502 -0.13066283010E+03 -0.17734145150E+03 -0.24648377782E+03  0.33060415654E+03  0.47000000000E+01 0.  1.
         13    1    6    6    0    0 -0.31340424597E+02 -0.26718504705E+02 -0.17151137363E+03  0.17638665480E+03  0.00000000000E+00 0. -1.
        -14    1    6    6    0    0  0.72818593077E+01 -0.16102573519E+02  0.14397134580E+01  0.17731077907E+02  0.00000000000E+00 0.  1.
</event>
<event>
12    1  0.1039610E+000  0.1851051E+03  0.7818608E-02  0.1163077E+00
         21   -1    0    0  503  502  0.00000000000E+00  0.00000000000E+00  0.28560261976E+03  0.28560261976E+03  0.00000000000E+00 0. -1.
         21   -1    0    0  501  503 -0.00000000000E+00 -0.00000000000E+00 -0.24591889994E+03  0.24591889994E+03  0.00000000000E+00 0. -1.
          6    2    1    2  501    0 -0.64904147211E+02 -0.28901670160E+01 -0.17062553335E+03  0.25135393050E+03  0.17275654649E+03 0.  0.
         24    2    3    3    0    0 -0.15743333367E+02  0.45884131730E+02 -0.34645956564E+02  0.98683523612E+02  0.78644068029E+02 0.  0.
         -6    2    1    2    0  502  0.64904147211E+02  0.28901670160E+01  0.21030925317E+03  0.28016758920E+03  0.17332915126E+03 0.  0.
        -24    2    5    5    0    0  0.15827572856E+02  0.53235251693E+02  0.18038760758E+03  0.20361347385E+03  0.76382286424E+02 0.  0.
          5    1    3    3  501    0 -0.49160813845E+02 -0.48774298746E+02 -0.13597957678E+03  0.15267040689E+03  0.47000000000E+01 0. -1.
        -11    1    4    4    0    0 -0.19019898024E+02 -0.10192173713E+02 -0.36588826473E+02  0.42477984280E+02  0.00000000000E+00 0.  1.
         12    1    4    4    0    0  0.32765646570E+01  0.56076305443E+02  0.19428699094E+01  0.56205539332E+02  0.00000000000E+00 0. -1.
         -5    1    5    5    0  502  0.49076574356E+02 -0.50345084677E+02  0.29921645589E+02  0.76554115346E+02  0.47000000000E+01 0.  1.
         11    1    6    6    0    0 -0.97159960675E+01 -0.16621867498E+02  0.48764797317E+02  0.52427974556E+02  0.00000000000E+00 0. -1.
        -12    1    6    6    0    0  0.25543568923E+02  0.69857119191E+02  0.13162281027E+03  0.15118549930E+03  0.00000000000E+00 0.  1.
</event>
<event>
12    1  0.1039610E+000  0.1856555E+03  0.7818608E-02  0.1163046E+00
         21   -1    0    0  503  502  0.00000000000E+00  0.00000000000E+00  0.22655386570E+04  0.22655386570E+04  0.00000000000E+00 0.  1.
         21   -1    0    0  501  503 -0.00000000000E+00 -0.00000000000E+00 -0.15007464281E+02  0.15007464281E+02  0.00000000000E+00 0.  1.
          6    2    1    2  501    0 -0.51044963499E+02 -0.48520913730E+02  0.11124977569E+04  0.11278826290E+04  0.17177921371E+03 0.  0.
         24    2    3    3    0    0 -0.20157772251E+02 -0.23007731701E+02  0.10510607748E+04  0.10543875012E+04  0.77900955263E+02 0.  0.
         -6    2    1    2    0  502  0.51044963499E+02  0.48520913730E+02  0.11380334357E+04  0.11526634922E+04  0.16897679749E+03 0.  0.
        -24    2    5    5    0    0  0.25266424313E+02 -0.35421737016E+02  0.43813161629E+03  0.44725896391E+03  0.78664960177E+02 0.  0.
          5    1    3    3  501    0 -0.30887191247E+02 -0.25513182029E+02  0.61436982159E+02  0.73495127846E+02  0.47000000000E+01 0. -1.
        -11    1    4    4    0    0  0.18754554843E+02  0.18360170414E+02  0.27403068951E+03  0.27528466717E+03  0.00000000000E+00 0.  1.
         12    1    4    4    0    0 -0.38912327095E+02 -0.41367902115E+02  0.77703008528E+03  0.77910283401E+03  0.00000000000E+00 0. -1.
         -5    1    5    5    0  502  0.25778539185E+02  0.83942650746E+02  0.69990181945E+03  0.70540452832E+03  0.47000000000E+01 0.  1.
         11    1    6    6    0    0  0.18246201166E+02  0.20902646326E+02  0.22478735081E+03  0.22649326163E+03  0.00000000000E+00 0. -1.
        -12    1    6    6    0    0  0.70202231474E+01 -0.56324383342E+02  0.21334426547E+03  0.22076570228E+03  0.00000000000E+00 0.  1.
</event>
<event>
12    1  0.1039610E+000  0.3541958E+03  0.7818608E-02  0.1060923E+00
         21   -1    0    0  501  502  0.00000000000E+00  0.00000000000E+00  0.48030224895E+03  0.48030224895E+03  0.00000000000E+00 0.  1.
         21   -1    0    0  502  503 -0.00000000000E+00 -0.00000000000E+00 -0.38597226448E+03  0.38597226448E+03  0.00000000000E+00 0. -1.
         -6    2    1    2    0  503  0.24377604250E+03 -0.19082491084E+03  0.29356600839E+03  0.46003876178E+03  0.17208647700E+03 0.  0.
        -24    2    3    3    0    0  0.19950810732E+03 -0.72362149869E+02  0.17241076257E+03  0.28484241647E+03  0.79812063942E+02 0.  0.
          6    2    1    2  501    0 -0.24377604250E+03  0.19082491084E+03 -0.19923602393E+03  0.40623575165E+03  0.17173114801E+03 0.  0.
         24    2    5    5    0    0 -0.90946929886E+02  0.43667536000E+02 -0.28660223289E+02  0.13396708949E+03  0.83352114022E+02 0.  0.
          5    1    5    5  501    0 -0.15282911261E+03  0.14715737484E+03 -0.17057580064E+03  0.27226866216E+03  0.47000000000E+01 0. -1.
        -13    1    6    6    0    0 -0.10617391890E+03  0.43654234990E+02 -0.20245183333E+02  0.11656955321E+03  0.00000000000E+00 0.  1.
         14    1    6    6    0    0  0.15226989012E+02  0.13301009126E-01 -0.84150399564E+01  0.17397536284E+02  0.00000000000E+00 0. -1.
         -5    1    3    3    0  503  0.44267935181E+02 -0.11846276097E+03  0.12115524583E+03  0.17519634532E+03  0.47000000000E+01 0.  1.
         11    1    4    4    0    0  0.71980972512E+02 -0.64833846023E+02  0.93795698909E+02  0.13484183745E+03  0.00000000000E+00 0. -1.
        -12    1    4    4    0    0  0.12752713480E+03 -0.75283038459E+01  0.78615063659E+02  0.15000057901E+03  0.00000000000E+00 0.  1.
</event>
<event>
12    1  0.1039610E+000  0.3636641E+03  0.7818608E-02  0.1057247E+00
         21   -1    0    0  503  502  0.00000000000E+00  0.00000000000E+00  0.17856764177E+03  0.17856764177E+03  0.00000000000E+00 0. -1.
         21   -1    0    0  501  503 -0.00000000000E+00 -0.00000000000E+00 -0.10953639216E+04  0.10953639216E+04  0.00000000000E+00 0. -1.
          6    2    1    2  501    0 -0.30207644230E+03  0.10780359911E+03 -0.95255063453E+02  0.37593231035E+03  0.17140531461E+03 0.  0.
         24    2    3    3    0    0 -0.30546375619E+03  0.12893908915E+03 -0.86640814384E+02  0.35238495123E+03  0.82067826115E+02 0.  0.
         -6    2    1    2    0  502  0.30207644230E+03 -0.10780359911E+03 -0.82154121636E+03  0.89799925300E+03  0.16911799208E+03 0.  0.
        -24    2    5    5    0    0  0.96686719485E+02  0.81601758162E+01 -0.25891903872E+03  0.28791865169E+03  0.80269366402E+02 0.  0.
          5    1    3    3  501    0  0.33873138838E+01 -0.21135490038E+02 -0.86142490696E+01  0.23547359120E+02  0.47000000000E+01 0. -1.
        -11    1    4    4    0    0 -0.64407998433E+02 -0.62152390080E+01 -0.24004111740E+02  0.69016062178E+02  0.00000000000E+00 0.  1.
         12    1    4    4    0    0 -0.24105575776E+03  0.13515432816E+03 -0.62636702644E+02  0.28336888906E+03  0.00000000000E+00 0. -1.
         -5    1    5    5    0  502  0.20538972282E+03 -0.11596377493E+03 -0.56262217763E+03  0.61008060131E+03  0.47000000000E+01 0.  1.
         11    1    6    6    0    0 -0.58927023431E+01 -0.18295265247E+02 -0.52401573438E+02  0.55815459956E+02  0.00000000000E+00 0. -1.
        -12    1    6    6    0    0  0.10257942183E+03  0.26455441063E+02 -0.20651746529E+03  0.23210319173E+03  0.00000000000E+00 0.  1.
</event>
<event>
12    1  0.1039610E+000  0.2324667E+03  0.7818608E-02  0.1125110E+00
         21   -1    0    0  501  502  0.00000000000E+00  0.00000000000E+00  0.32145279959E+03  0.32145279959E+03  0.00000000000E+00 0. -1.
         21   -1    0    0  502  503 -0.00000000000E+00 -0.00000000000E+00 -0.44273672691E+03  0.44273672691E+03  0.00000000000E+00 0.  1.
         -6    2    1    2    0  503  0.93788840499E+02 -0.12336852194E+03 -0.36206881781E+03  0.43027268002E+03  0.17327611356E+03 0.  0.
        -24    2    3    3    0    0 -0.50942036804E+01 -0.58246649726E+01 -0.13500379552E+03  0.15609202956E+03  0.77966783023E+02 0.  0.
          6    2    1    2  501    0 -0.93788840499E+02  0.12336852194E+03  0.24078489049E+03  0.33391684648E+03  0.17177589489E+03 0.  0.
         24    2    5    5    0    0 -0.41787033196E+02  0.70567279459E+02  0.41682561026E+02  0.12141746584E+03  0.79239308710E+02 0.  0.
          5    1    5    5  501    0 -0.52001807303E+02  0.52801242480E+02  0.19910232946E+03  0.21249938063E+03  0.47000000000E+01 0. -1.
        -11    1    6    6    0    0 -0.48713426548E+02  0.68891866624E+02  0.58822528850E+02  0.10285512682E+03  0.00000000000E+00 0.  1.
         12    1    6    6    0    0  0.69263933519E+01  0.16754128343E+01 -0.17139967824E+02  0.18562339023E+02  0.00000000000E+00 0. -1.
         -5    1    3    3    0  503  0.98883044179E+02 -0.11754385697E+03 -0.22706502229E+03  0.27418065046E+03  0.47000000000E+01 0.  1.
         11    1    4    4    0    0 -0.17135891089E+02 -0.36768316419E+02 -0.47295539813E+02  0.62309035796E+02  0.00000000000E+00 0. -1.
        -12    1    4    4    0    0  0.12041687408E+02  0.30943651446E+02 -0.87708255709E+02  0.93782993768E+02  0.00000000000E+00 0.  1.
</event>
<event>
12    1  0.1039610E+000  0.2173300E+03  0.7818608E-02  0.1137620E+00
         21   -1    0    0  501  502  0.00000000000E+00  0.00000000000E+00  0.11082953111E+04  0.11082953111E+04  0.00000000000E+00 0.  1.
         21   -1    0    0  502  503 -0.00000000000E+00 -0.00000000000E+00 -0.50005567256E+02  0.50005567256E+02  0.00000000000E+00 0. -1.
         -6    2    1    2    0  503  0.71787018803E+02  0.96401050437E+02  0.78554462369E+03  0.81505378835E+03  0.18106844975E+03 0.  0.
        -24    2    3    3    0    0  0.10272332557E+03  0.16782167859E+02  0.47609280329E+03  0.49399500761E+03  0.80826897910E+02 0.  0.
          6    2    1    2  501    0 -0.71787018803E+02 -0.96401050437E+02  0.27274512017E+03  0.34324709002E+03  0.17024137464E+03 0.  0.
         24    2    5    5    0    0 -0.98695950530E+02 -0.27452196809E+02  0.20542875853E+03  0.24308912695E+03  0.79980216603E+02 0.  0.
          5    1    5    5  501    0  0.26908931727E+02 -0.68948853629E+02  0.67316361636E+02  0.10015796307E+03  0.47000000000E+01 0. -1.
        -11    1    6    6    0    0 -0.10202837399E+03 -0.49333905009E+01  0.13643276665E+03  0.17043481821E+03  0.00000000000E+00 0.  1.
         12    1    6    6    0    0  0.33324234558E+01 -0.22518806308E+02  0.68995991876E+02  0.72654308741E+02  0.00000000000E+00 0. -1.
         -5    1    3    3    0  503 -0.30936306762E+02  0.79618882578E+02  0.30945182040E+03  0.32105878074E+03  0.47000000000E+01 0.  1.
         11    1    4    4    0    0  0.35949852460E+02  0.42327922412E+02  0.27552842016E+03  0.28106930679E+03  0.00000000000E+00 0. -1.
        -12    1    4    4    0    0  0.66773473105E+02 -0.25545754553E+02  0.20056438313E+03  0.21292570081E+03  0.00000000000E+00 0.  1.
</event>
<event>
12    1  0.1039610E+000  0.2475009E+03  0.7818608E-02  0.1115296E+00
         21   -1    0    0  501  502  0.00000000000E+00  0.00000000000E+00  0.10225233465E+03  0.10225233465E+03  0.00000000000E+00 0. -1.
         21   -1    0    0  502  503 -0.00000000000E+00 -0.00000000000E+00 -0.13417555478E+04  0.13417555478E+04  0.00000000000E+00 0.  1.
         -6    2    1    2    0  503  0.15186586846E+03 -0.90474412090E+02 -0.11604715193E+04  0.11865710369E+04  0.17322764591E+03 0.  0.
        -24    2    3    3    0    0  0.15241261217E+03 -0.52051628098E+02 -0.64380760119E+03  0.66845878699E+03  0.80062139683E+02 0.  0.
          6    2    1    2  501    0 -0.15186586846E+03  0.90474412090E+02 -0.79031693902E+02  0.25743684558E+03  0.16964333048E+03 0.  0.
         24    2    5    5    0    0 -0.13564851452E+03  0.51215418630E+02  0.21046529958E+01  0.16573369447E+03  0.80247674859E+02 0.  0.
          5    1    5    5  501    0 -0.16217353939E+02  0.39258993460E+02 -0.81136346898E+02  0.91703151114E+02  0.47000000000E+01 0. -1.
        -13    1    6    6    0    0 -0.88645958670E+02  0.56254774545E+01  0.31112673085E+02  0.94115622569E+02  0.00000000000E+00 0.  1.
         14    1    6    6    0    0 -0.47002555852E+02  0.45589941175E+02 -0.29008020089E+02  0.71618071899E+02  0.00000000000E+00 0. -1.
         -5    1    3    3    0  503 -0.54674370750E+00 -0.38422783992E+02 -0.51666391806E+03  0.51811224989E+03  0.47000000000E+01 0.  1.
         11    1    4    4    0    0  0.17850463558E+02 -0.23942444567E+02 -0.24093515633E+03  0.24277897202E+03  0.00000000000E+00 0. -1.
        -12    1    4    4    0    0  0.13456214861E+03 -0.28109183531E+02 -0.40287244486E+03  0.42567981496E+03  0.00000000000E+00 0.  1.
</event>
<event>
12    1  0.1039610E+000  0.2560959E+03  0.7818608E-02  0.1109629E+00
         21   -1    0    0  501  502  0.00000000000E+00  0.00000000000E+00  0.17988923160E+03  0.17988923160E+03  0.00000000000E+00 0.  1.
         21   -1    0    0  502  503 -0.00000000000E+00 -0.00000000000E+00 -0.43673880960E+03  0.43673880960E+03  0.00000000000E+00 0.  1.
         -6    2    1    2    0  503 -0.39771854355E+02 -0.18449678367E+03 -0.20075227779E+01  0.25533927171E+03  0.17196874701E+03 0.  0.
        -24    2    3    3    0    0 -0.71253198200E+02 -0.17980284389E+03 -0.26416644367E+02  0.21495358987E+03  0.90006254075E+02 0.  0.
          6    2    1    2  501    0  0.39771854355E+02  0.18449678367E+03 -0.25484205522E+03  0.36128876949E+03  0.17310181475E+03 0.  0.
         24    2    5    5    0    0 -0.33206909365E+02  0.40885534765E+02 -0.99165981174E+02  0.13721909105E+03  0.78872437166E+02 0.  0.
          5    1    5    5  501    0  0.72978763720E+02  0.14361124890E+03 -0.15567607405E+03  0.22406967844E+03  0.47000000000E+01 0. -1.
        -11    1    6    6    0    0 -0.14525511799E+02  0.89698692806E+01 -0.98771335553E+02  0.10023585075E+03  0.00000000000E+00 0.  1.
         12    1    6    6    0    0 -0.18681397566E+02  0.31915665485E+02 -0.39464562036E+00  0.36983240306E+02  0.00000000000E+00 0. -1.
         -5    1    3    3    0  503  0.31481343845E+02 -0.46939397745E+01  0.24409121589E+02  0.40385681840E+02  0.47000000000E+01 0.  1.
         13    1    4    4    0    0 -0.99602694443E+00  0.10348009061E+02 -0.33913070667E+01  0.10935004565E+02  0.00000000000E+00 0. -1.
        -14    1    4    4    0    0 -0.70257171256E+02 -0.19015085296E+03 -0.23025337301E+02  0.20401858531E+03  0.00000000000E+00 0.  1.
</event>
<event>
12    1  0.1039610E+000  0.1855121E+03  0.7818608E-02  0.1162847E+00
         21   -1    0    0  501  502  0.00000000000E+00  0.00000000000E+00  0.44117811087E+03  0.44117811087E+03  0.00000000000E+00 0.  1.
         21   -1    0    0  502  503 -0.00000000000E+00 -0.00000000000E+00 -0.23994750203E+03  0.23994750203E+03  0.00000000000E+00 0.  1.
         -6    2    1    2    0  503 -0.11233723983E+02  0.69482236486E+02 -0.17948772259E+03  0.25812899796E+03  0.17164136822E+03 0.  0.
        -24    2    3    3    0    0 -0.12454099744E+02  0.10965574915E+03 -0.16730300601E+03  0.21586840456E+03  0.80183441832E+02 0.  0.
          6    2    1    2  501    0  0.11233723983E+02 -0.69482236486E+02  0.38071833144E+03  0.42299661493E+03  0.17036933589E+03 0.  0.
         24    2    5    5    0    0 -0.47242361198E+02 -0.73103845398E+01  0.24276056283E+03  0.26070296863E+03  0.82146604136E+02 0.  0.
          5    1    5    5  501    0  0.58476085181E+02 -0.62171851946E+02  0.13795776860E+03  0.16229364630E+03  0.47000000000E+01 0. -1.
        -11    1    6    6    0    0 -0.11184672872E+02  0.34386636395E+02  0.62551927892E+02  0.72251514536E+02  0.00000000000E+00 0.  1.
         12    1    6    6    0    0 -0.36057688326E+02 -0.41697020934E+02  0.18020863494E+03  0.18845145409E+03  0.00000000000E+00 0. -1.
         -5    1    3    3    0  503  0.12203757607E+01 -0.40173512663E+02 -0.12184716584E+02  0.42260593405E+02  0.47000000000E+01 0.  1.
         11    1    4    4    0    0  0.10271238867E+02  0.64285351641E+02 -0.34449169151E+02  0.73653581302E+02  0.00000000000E+00 0. -1.
        -12    1    4    4    0    0 -0.22725338611E+02  0.45370397508E+02 -0.13285383686E+03  0.14221482325E+03  0.00000000000E+00 0.  1.
</event>
<event>
12    1  0.1039610E+000  0.2135267E+03  0.7818608E-02  0.1138889E+00
         21   -1    0    0  501  502  0.00000000000E+00  0.00000000000E+00  0.23463046360E+03  0.23463046360E+03  0.00000000000E+00 0.  1.
         21   -1    0    0  502  503 -0.00000000000E+00 -0.00000000000E+00 -0.20076477909E+03  0.20076477909E+03  0.00000000000E+00 0.  1.
         -6    2    1    2    0  503  0.83800858214E+02  0.94015569199E+02 -0.23277226072E+02  0.21435459471E+03  0.17188528712E+03 0.  0.
        -24    2    3    3    0    0 -0.15562571025E+02  0.33264604775E+02 -0.44769836509E+02  0.95831208610E+02  0.76358069219E+02 0.  0.
          6    2    1    2  501    0 -0.83800858214E+02 -0.94015569199E+02  0.57142910580E+02  0.22104064799E+03  0.17243011554E+03 0.  0.
         24    2    5    5    0    0 -0.55377747416E+02 -0.61900175772E+02 -0.33291216479E+02  0.12084237924E+03  0.81217294074E+02 0.  0.
          5    1    5    5  501    0 -0.28423110798E+02 -0.32115393427E+02  0.90434127060E+02  0.10019826874E+03  0.47000000000E+01 0. -1.
        -13    1    6    6    0    0 -0.31822273024E+02  0.28492241429E+01  0.16379972734E+02  0.35903741385E+02  0.00000000000E+00 0.  1.
         14    1    6    6    0    0 -0.23555474392E+02 -0.64749399915E+02 -0.49671189213E+02  0.84938637857E+02  0.00000000000E+00 0. -1.
         -5    1    3    3    0  503  0.99363429239E+02  0.60750964424E+02  0.21492610437E+02  0.11852338610E+03  0.47000000000E+01 0.  1.
         13    1    4    4    0    0  0.22110629754E+02  0.31882316281E+02 -0.20457457124E+01  0.38852890692E+02  0.00000000000E+00 0. -1.
        -14    1    4    4    0    0 -0.37673200779E+02  0.13822884936E+01 -0.42724090797E+02  0.56978317919E+02  0.00000000000E+00 0.  1.
</event>
<event>
12    1  0.1039610E+000  0.1793319E+03  0.7818608E-02  0.1168935E+00
         21   -1    0    0  501  502  0.00000000000E+00  0.00000000000E+00  0.71685202014E+02  0.71685202014E+02  0.00000000000E+00 0.  1.
         21   -1    0    0  502  503 -0.00000000000E+00 -0.00000000000E+00 -0.49863048210E+03  0.49863048210E+03  0.00000000000E+00 0.  1.
         -6    2    1    2    0  503 -0.91219349056E+01 -0.46032228590E+02 -0.11776636810E+03  0.21289222605E+03  0.17103218028E+03 0.  0.
        -24    2    3    3    0    0  0.17180577235E+02  0.88735187912E+00  0.10658815622E+01  0.82368424635E+02  0.80544780376E+02 0.  0.
          6    2    1    2  501    0  0.91219349056E+01  0.46032228590E+02 -0.30917891199E+03  0.35742345807E+03  0.17308308118E+03 0.  0.
         24    2    5    5    0    0  0.26389364266E+02 -0.37818683632E+02 -0.14169422129E+03  0.16926833266E+03  0.80298597231E+02 0.  0.
          5    1    5    5  501    0 -0.17267429360E+02  0.83850912222E+02 -0.16748469070E+03  0.18815512540E+03  0.47000000000E+01 0. -1.
        -13    1    6    6    0    0  0.15301265201E+02 -0.15426684786E+02  0.34401212488E+01  0.21998767112E+02  0.00000000000E+00 0.  1.
         14    1    6    6    0    0  0.11088099065E+02 -0.22391998846E+02 -0.14513434254E+03  0.14726956555E+03  0.00000000000E+00 0. -1.
         -5    1    3    3    0  503 -0.26302512141E+02 -0.46919580469E+02 -0.11883224966E+03  0.13052380142E+03  0.47000000000E+01 0.  1.
         13    1    4    4    0    0 -0.10939513924E+02  0.22669209504E+02  0.28075134778E+02  0.37706487734E+02  0.00000000000E+00 0. -1.
        -14    1    4    4    0    0  0.28120091159E+02 -0.21781857625E+02 -0.27009253216E+02  0.44661936900E+02  0.00000000000E+00 0.  1.
</event>
<event>
12    1  0.1039610E+000  0.2752768E+03  0.7818608E-02  0.1098479E+00
         21   -1    0    0  501  502  0.00000000000E+00  0.00000000000E+00  0.20428350246E+03  0.20428350246E+03  0.00000000000E+00 0. -1.
         21   -1    0    0  502  503 -0.00000000000E+00 -0.00000000000E+00 -0.38380103815E+03  0.38380103815E+03  0.00000000000E+00 0. -1.
         -6    2    1    2    0  503  0.21064685288E+03  0.31629376488E+02 -0.32587131151E+02  0.27719892746E+03  0.17436975135E+03 0.  0.
        -24    2    3    3    0    0  0.66786866720E+02  0.68137343485E+02 -0.29913864918E+02  0.12868036423E+03  0.80997615283E+02 0.  0.
          6    2    1    2  501    0 -0.21064685288E+03 -0.31629376488E+02 -0.14693040454E+03  0.31088561314E+03  0.17230440097E+03 0.  0.
         24    2    5    5    0    0 -0.12541732843E+03 -0.82852265438E+02 -0.11414946273E+03  0.20607847438E+03  0.82729883361E+02 0.  0.
          5    1    5    5  501    0 -0.85229524443E+02  0.51222888950E+02 -0.32780941808E+02  0.10480713876E+03  0.47000000000E+01 0. -1.
        -13    1    6    6    0    0 -0.85829067455E+02 -0.87239839918E+01 -0.70312155273E+02  0.11129481523E+03  0.00000000000E+00 0.  1.
         14    1    6    6    0    0 -0.39588260979E+02 -0.74128281446E+02 -0.43837307460E+02  0.94783659155E+02  0.00000000000E+00 0. -1.
         -5    1    3    3    0  503  0.14385998616E+03 -0.36507966997E+02 -0.26732662335E+01  0.14851856323E+03  0.47000000000E+01 0.  1.
         13    1    4    4    0    0  0.62646111264E+02  0.17588401096E+02 -0.40806877489E+02  0.76805522979E+02  0.00000000000E+00 0. -1.
        -14    1    4    4    0    0  0.41407554563E+01  0.50548942389E+02  0.10893012571E+02  0.51874841255E+02  0.00000000000E+00 0.  1.
</event>
<event>
12    1  0.1039610E+000  0.4066805E+03  0.7818608E-02  0.1041512E+00
         21   -1    0    0  501  502  0.00000000000E+00  0.00000000000E+00  0.29079932671E+03  0.29079932671E+03  0.00000000000E+00 0.  1.
         21   -1    0    0  502  503 -0.00000000000E+00 -0.00000000000E+00 -0.59616037226E+03  0.59616037226E+03  0.00000000000E+00 0.  1.
         -6    2    1    2    0  503  0.10762871871E+02 -0.36890540266E+03 -0.56995635130E+02  0.41065502184E+03  0.17082742465E+03 0.  0.
        -24    2    3    3    0    0  0.20965861894E+02 -0.10070374523E+03 -0.58708335738E+02  0.14221274983E+03  0.78720936617E+02 0.  0.
          6    2    1    2  501    0 -0.10762871871E+02  0.36890540266E+03 -0.24836541042E+03  0.47630467714E+03  0.17021672317E+03 0.  0.
         24    2    5    5    0    0 -0.51423781160E+02  0.34508228282E+03 -0.21678128693E+03  0.41937930986E+03  0.84609053828E+02 0.  0.
          5    1    5    5  501    0  0.40660909289E+02  0.23823119838E+02 -0.31584123485E+02  0.56925367274E+02  0.47000000000E+01 0. -1.
        -11    1    6    6    0    0 -0.78321926379E+01  0.20016610469E+02  0.66852953093E+01  0.22510022424E+02  0.00000000000E+00 0.  1.
         12    1    6    6    0    0 -0.43591588522E+02  0.32506567236E+03 -0.22346658224E+03  0.39686928744E+03  0.00000000000E+00 0. -1.
         -5    1    3    3    0  503 -0.10202990023E+02 -0.26820165743E+03  0.17127006078E+01  0.26844227200E+03  0.47000000000E+01 0.  1.
         13    1    4    4    0    0 -0.13418212184E+02 -0.76980391016E+02 -0.11182092346E+02  0.78937115532E+02  0.00000000000E+00 0. -1.
        -14    1    4    4    0    0  0.34384074078E+02 -0.23723354212E+02 -0.47526243392E+02  0.63275634301E+02  0.00000000000E+00 0.  1.
</event>
<event>
12    1  0.1039610E+000  0.1827650E+03  0.7818608E-02  0.1165961E+00
         21   -1    0    0  503  502  0.00000000000E+00  0.00000000000E+00  0.27915681449E+03  0.27915681449E+03  0.00000000000E+00 0.  1.
         21   -1    0    0  501  503 -0.00000000000E+00 -0.00000000000E+00 -0.14550619038E+03  0.14550619038E+03  0.00000000000E+00 0.  1.
          6    2    1    2  501    0 -0.18758280428E+02  0.48622693407E+02  0.16054388801E+03  0.24326403752E+03  0.17517708919E+03 0.  0.
         24    2    3    3    0    0 -0.14318240465E+02  0.99760106039E+02  0.13142775315E+03  0.18406447474E+03  0.80308068048E+02 0.  0.
         -6    2    1    2    0  502  0.18758280428E+02 -0.48622693407E+02 -0.26893263897E+02  0.18139896735E+03  0.17165750294E+03 0.  0.
        -24    2    5    5    0    0 -0.97472013601E+01  0.18413901109E+02  0.26589426632E+02  0.90906118558E+02  0.84396949555E+02 0.  0.
          5    1    3    3  501    0 -0.44400399628E+01 -0.51137412632E+02  0.29116134852E+02  0.59199562788E+02  0.47000000000E+01 0. -1.
        -13    1    4    4    0    0  0.16732076913E+02  0.87741868148E+02  0.11839310339E+03  0.14830888292E+03  0.00000000000E+00 0.  1.
         14    1    4    4    0    0 -0.31050317378E+02  0.12018237891E+02  0.13034649764E+02  0.35755591811E+02  0.00000000000E+00 0. -1.
         -5    1    5    5    0  502  0.28505481788E+02 -0.67036594517E+02 -0.53482690529E+02  0.90492848793E+02  0.47000000000E+01 0.  1.
         11    1    6    6    0    0  0.10548095621E+02 -0.31343698038E+02  0.77992937455E+01  0.33978209354E+02  0.00000000000E+00 0. -1.
        -12    1    6    6    0    0 -0.20295296981E+02  0.49757599148E+02  0.18790132887E+02  0.56927909204E+02  0.00000000000E+00 0.  1.
</event>
<event>
12    1  0.1039610E+000  0.1869662E+03  0.7818608E-02  0.1161279E+00
         21   -1    0    0  501  502  0.00000000000E+00  0.00000000000E+00  0.63064102210E+02  0.63064102210E+02  0.00000000000E+00 0. -1.
         21   -1    0    0  502  503 -0.00000000000E+00 -0.00000000000E+00 -0.91129886201E+03  0.91129886201E+03  0.00000000000E+00 0. -1.
         -6    2    1    2    0  503 -0.13083092964E+00 -0.74442191906E+02 -0.72917383490E+03  0.75270588634E+03  0.17126007348E+03 0.  0.
        -24    2    3    3    0    0 -0.60523064831E+02 -0.55646370204E+02 -0.53918114016E+03  0.55240656311E+03  0.87619342446E+02 0.  0.
          6    2    1    2  501    0  0.13083092964E+00  0.74442191906E+02 -0.11906092490E+03  0.22165707788E+03  0.17150714063E+03 0.  0.
         24    2    5    5    0    0 -0.29821049395E+02 -0.10181786102E+01 -0.12176709049E+02  0.87352542401E+02  0.81190287264E+02 0.  0.
          5    1    5    5  501    0  0.29951880324E+02  0.75460370516E+02 -0.10688421585E+03  0.13430453548E+03  0.47000000000E+01 0. -1.
        -11    1    6    6    0    0 -0.99914642467E+01  0.36156310040E+02  0.11227882177E+02  0.39155758857E+02  0.00000000000E+00 0.  1.
         12    1    6    6    0    0 -0.19829585148E+02 -0.37174488650E+02 -0.23404591226E+02  0.48196783544E+02  0.00000000000E+00 0. -1.
         -5    1    3    3    0  503  0.60392233901E+02 -0.18795821702E+02 -0.18999269474E+03  0.20029932323E+03  0.47000000000E+01 0.  1.
         11    1    4    4    0    0 -0.28021512174E+02  0.20563230680E+02 -0.21578648337E+03  0.21856774237E+03  0.00000000000E+00 0. -1.
        -12    1    4    4    0    0 -0.32501552657E+02 -0.76209600884E+02 -0.32339465679E+03  0.33383882074E+03  0.00000000000E+00 0.  1.
</event>
<event>
12    1  0.1039610E+000  0.1954512E+03  0.7818608E-02  0.1155773E+00
         21   -1    0    0  503  502  0.00000000000E+00  0.00000000000E+00  0.49625312370E+03  0.49625312370E+03  0.00000000000E+00 0. -1.
         21   -1    0    0  501  503 -0.00000000000E+00 -0.00000000000E+00 -0.26653429710E+03  0.26653429710E+03  0.00000000000E+00 0. -1.
          6    2    1    2  501    0  0.37522774308E+02  0.86258868720E+02  0.44040661792E+03  0.48182895901E+03  0.17132602140E+03 0.  0.
         24    2    3    3    0    0 -0.29099508212E+02  0.39069944545E+02  0.33910270603E+03  0.35163719408E+03  0.79276913883E+02 0.  0.
         -6    2    1    2    0  502 -0.37522774308E+02 -0.86258868720E+02 -0.21068779131E+03  0.28095846179E+03  0.16031144943E+03 0.  0.
        -24    2    5    5    0    0 -0.49600201256E+02 -0.19172019082E+02 -0.18433712783E+03  0.20772624824E+03  0.79638377867E+02 0.  0.
          5    1    3    3  501    0  0.66622282520E+02  0.47188924176E+02  0.10130391189E+03  0.13019176493E+03  0.47000000000E+01 0. -1.
        -11    1    4    4    0    0 -0.11840977951E+02  0.58145132563E+02  0.29199756749E+03  0.29796584472E+03  0.00000000000E+00 0.  1.
         12    1    4    4    0    0 -0.17258530261E+02 -0.19075188019E+02  0.47105138546E+02  0.53671349360E+02  0.00000000000E+00 0. -1.
         -5    1    5    5    0  502  0.12077426949E+02 -0.67086849639E+02 -0.26350663484E+02  0.73232213555E+02  0.47000000000E+01 0.  1.
         13    1    6    6    0    0  0.17561934204E+02 -0.19938505819E+02 -0.34683828680E+02  0.43691343756E+02  0.00000000000E+00 0. -1.
        -14    1    6    6    0    0 -0.67162135460E+02  0.76648673686E+00 -0.14965329915E+03  0.16403490448E+03  0.00000000000E+00 0.  1.
</event>
<event>
12    1  0.1039610E+000  0.5112056E+03  0.7818608E-02  0.1010908E+00
         21   -1    0    0  503  502  0.00000000000E+00  0.00000000000E+00  0.19946180016E+03  0.19946180016E+03  0.00000000000E+00 0. -1.
         21   -1    0    0  501  503 -0.00000000000E+00 -0.00000000000E+00 -0.13179222161E+04  0.13179222161E+04  0.00000000000E+00 0. -1.
          6    2    1    2  501    0 -0.10307775773E+03 -0.47037206946E+03 -0.61940304106E+03  0.80311351851E+03  0.17162834403E+03 0.  0.
         24    2    3    3    0    0 -0.10226639403E+03 -0.33750196481E+03 -0.35323191898E+03  0.50558321880E+03  0.80471180805E+02 0.  0.
         -6    2    1    2    0  502  0.10307775773E+03  0.47037206946E+03 -0.49905737487E+03  0.71427049774E+03  0.17102389503E+03 0.  0.
        -24    2    5    5    0    0  0.13212744715E+03  0.34706958135E+03 -0.41250838970E+03  0.56077715957E+03  0.79955578495E+02 0.  0.
          5    1    3    3  501    0 -0.81136369490E+00 -0.13287010464E+03 -0.26617112208E+03  0.29753029971E+03  0.47000000000E+01 0. -1.
        -13    1    4    4    0    0 -0.70829396628E+02 -0.10818499238E+03 -0.10930860942E+03  0.16931972152E+03  0.00000000000E+00 0.  1.
         14    1    4    4    0    0 -0.31436997405E+02 -0.22931697243E+03 -0.24392330957E+03  0.33626349728E+03  0.00000000000E+00 0. -1.
         -5    1    5    5    0  502 -0.29049689426E+02  0.12330248811E+03 -0.86548985162E+02  0.15349333817E+03  0.47000000000E+01 0.  1.
         11    1    6    6    0    0  0.10347163875E+02  0.33323769331E+02 -0.10394541658E+02  0.36408569032E+02  0.00000000000E+00 0. -1.
        -12    1    6    6    0    0  0.12178028328E+03  0.31374581201E+03 -0.40211384805E+03  0.52436859054E+03  0.00000000000E+00 0.  1.
</event>
<event>
12    1  0.1039610E+000  0.1836896E+03  0.7818608E-02  0.1164725E+00
         21   -1    0    0  501  502  0.00000000000E+00  0.00000000000E+00  0.71786683931E+03  0.71786683931E+03  0.00000000000E+00 0. -1.
         21   -1    0    0  502  503 -0.00000000000E+00 -0.00000000000E+00 -0.46523755071E+02  0.46523755071E+02  0.00000000000E+00 0. -1.
         -6    2    1    2    0  503 -0.56442052735E+02  0.24525347354E+02  0.33956064127E+03  0.38606127079E+03  0.17307419715E+03 0.  0.
        -24    2    3    3    0    0 -0.60106257303E+01  0.10452313782E+02  0.54155436453E+02  0.95855137077E+02  0.78166601062E+02 0.  0.
          6    2    1    2  501    0  0.56442052735E+02 -0.24525347354E+02  0.33178244296E+03  0.37832932359E+03  0.17107393037E+03 0.  0.
         24    2    5    5    0    0  0.33156249042E+01  0.12828838734E+02  0.62319194770E+02  0.10111048462E+03  0.78511627116E+02 0.  0.
          5    1    5    5  501    0  0.53126427831E+02 -0.37354186088E+02  0.26946324819E+03  0.27721883897E+03  0.47000000000E+01 0. -1.
        -13    1    6    6    0    0  0.46208456646E+01 -0.32746981845E+02  0.18604138566E+02  0.37945105170E+02  0.00000000000E+00 0.  1.
         14    1    6    6    0    0 -0.13052207604E+01  0.45575820579E+02  0.43715056204E+02  0.63165379454E+02  0.00000000000E+00 0. -1.
         -5    1    3    3    0  503 -0.50431427005E+02  0.14073033572E+02  0.28540520482E+03  0.29020613371E+03  0.47000000000E+01 0.  1.
         11    1    4    4    0    0 -0.17163380795E+02  0.35499421639E+02  0.52370892887E+01  0.39777099960E+02  0.00000000000E+00 0. -1.
        -12    1    4    4    0    0  0.11152755064E+02 -0.25047107858E+02  0.48918347164E+02  0.56078037116E+02  0.00000000000E+00 0.  1.
</event>
<event>
12    1  0.1039610E+000  0.2012270E+03  0.7818608E-02  0.1148862E+00
         21   -1    0    0  501  502  0.00000000000E+00  0.00000000000E+00  0.15510715575E+04  0.15510715575E+04  0.00000000000E+00 0.  1.
         21   -1    0    0  502  503 -0.00000000000E+00 -0.00000000000E+00 -0.34029093640E+02  0.34029093640E+02  0.00000000000E+00 0.  1.
         -6    2    1    2    0  503  0.22830384973E+01 -0.10355985224E+03  0.37275019078E+03  0.42324991744E+03  0.17166226326E+03 0.  0.
        -24    2    3    3    0    0 -0.14503063163E+02 -0.16975957471E+02  0.29171963201E+03  0.30338922540E+03  0.80287959340E+02 0.  0.
          6    2    1    2  501    0 -0.22830384973E+01  0.10355985224E+03  0.11442922731E+04  0.11618507337E+04  0.17251801616E+03 0.  0.
         24    2    5    5    0    0  0.25557542830E+02  0.97033577751E+02  0.47673695723E+03  0.49366671717E+03  0.79749595874E+02 0.  0.
          5    1    5    5  501    0 -0.27840581327E+02  0.65262744897E+01  0.66755531583E+03  0.66818401651E+03  0.47000000000E+01 0. -1.
        -11    1    6    6    0    0  0.29917002440E+02  0.49977174344E+01  0.64749836676E+02  0.71502066853E+02  0.00000000000E+00 0.  1.
         12    1    6    6    0    0 -0.43594596105E+01  0.92035860317E+02  0.41198712055E+03  0.42216465031E+03  0.00000000000E+00 0. -1.
         -5    1    3    3    0  503  0.16786101661E+02 -0.86583894769E+02  0.81030558763E+02  0.11986069204E+03  0.47000000000E+01 0.  1.
         13    1    4    4    0    0  0.16106564077E+02  0.77955755437E+01  0.13547586029E+02  0.22443918812E+02  0.00000000000E+00 0. -1.
        -14    1    4    4    0    0 -0.30609627241E+02 -0.24771533015E+02  0.27817204599E+03  0.28094530659E+03  0.00000000000E+00 0.  1.
</event>
<event>
12    1  0.1039610E+000  0.6108377E+03  0.7818608E-02  0.9883259E-01
         21   -1    0    0  501  502  0.00000000000E+00  0.00000000000E+00  0.26321940263E+03  0.26321940263E+03  0.00000000000E+00 0.  1.
         21   -1    0    0  502  503 -0.00000000000E+00 -0.00000000000E+00 -0.14307695032E+04  0.14307695032E+04  0.00000000000E+00 0.  1.
         -6    2    1    2    0  503  0.57282128947E+03  0.12374303112E+03 -0.50103348067E+03  0.78990531800E+03  0.17169535590E+03 0.  0.
        -24    2    3    3    0    0  0.50188402900E+03  0.85145507509E+02 -0.48475899078E+03  0.70738978751E+03  0.79194042149E+02 0.  0.
          6    2    1    2  501    0 -0.57282128947E+03 -0.12374303112E+03 -0.66651661985E+03  0.90408358778E+03  0.17229672584E+03 0.  0.
         24    2    5    5    0    0 -0.17770107123E+03 -0.87151975525E+02 -0.25797359907E+03  0.33453255227E+03  0.78667103437E+02 0.  0.
          5    1    5    5  501    0 -0.39512021824E+03 -0.36591055599E+02 -0.40854302079E+03  0.56955103550E+03  0.47000000000E+01 0. -1.
        -11    1    6    6    0    0 -0.69117951453E+02 -0.19022562867E+02 -0.41171770813E+02  0.82669606404E+02  0.00000000000E+00 0.  1.
         12    1    6    6    0    0 -0.10858311978E+03 -0.68129412658E+02 -0.21680182825E+03  0.25186294587E+03  0.00000000000E+00 0. -1.
         -5    1    3    3    0  503  0.70937260468E+02  0.38597523616E+02 -0.16274489890E+02  0.82515530496E+02  0.47000000000E+01 0.  1.
         13    1    4    4    0    0  0.27054312319E+03  0.62176873990E+02 -0.21392133941E+03  0.35045953350E+03  0.00000000000E+00 0. -1.
        -14    1    4    4    0    0  0.23134090580E+03  0.22968633519E+02 -0.27083765137E+03  0.35693025400E+03  0.00000000000E+00 0.  1.
</event>
<event>
12    1  0.1039610E+000  0.2150808E+03  0.7818608E-02  0.1138590E+00
         21   -1    0    0  501  502  0.00000000000E+00  0.00000000000E+00  0.22924638957E+02  0.22924638957E+02  0.00000000000E+00 0.  1.
         21   -1    0    0  502  503 -0.00000000000E+00 -0.00000000000E+00 -0.21667338107E+04  0.21667338107E+04  0.00000000000E+00 0.  1.
         -6    2    1    2    0  503  0.66066561353E+02  0.11083936828E+03 -0.73091616843E+03  0.76048862697E+03  0.16569354363E+03 0.  0.
        -24    2    3    3    0    0 -0.22629713572E+02  0.49249879101E+02 -0.42365578060E+03  0.43477198587E+03  0.81269949778E+02 0.  0.
          6    2    1    2  501    0 -0.66066561353E+02 -0.11083936828E+03 -0.14128930033E+04  0.14291698227E+04  0.17207436518E+03 0.  0.
         24    2    5    5    0    0 -0.59638065422E+02 -0.29223820612E+02 -0.11226576081E+04  0.11275722468E+04  0.81537329109E+02 0.  0.
          5    1    5    5  501    0 -0.64284959315E+01 -0.81615547666E+02 -0.29023539517E+03  0.30159757590E+03  0.47000000000E+01 0. -1.
        -11    1    6    6    0    0 -0.35746413111E+02 -0.57663642697E+02 -0.69392902700E+03  0.69723768993E+03  0.00000000000E+00 0.  1.
         12    1    6    6    0    0 -0.23891652310E+02  0.28439822085E+02 -0.42872858114E+03  0.43033455685E+03  0.00000000000E+00 0. -1.
         -5    1    3    3    0  503  0.88696274925E+02  0.61589489178E+02 -0.30726038783E+03  0.32571664110E+03  0.47000000000E+01 0.  1.
         13    1    4    4    0    0  0.17594705571E+02  0.11917961230E+02 -0.28288826007E+03  0.28368535237E+03  0.00000000000E+00 0. -1.
        -14    1    4    4    0    0 -0.40224419143E+02  0.37331917871E+02 -0.14076752053E+03  0.15108663351E+03  0.00000000000E+00 0.  1.
</event>
<event>
12    1  0.1039610E+000  0.2969488E+03  0.7818608E-02  0.1087149E+00
         21   -1    0    0  503  502  0.00000000000E+00  0.00000000000E+00  0.69387763082E+02  0.69387763082E+02  0.00000000000E+00 0. -1.
         21   -1    0    0  501  503 -0.00000000000E+00 -0.00000000000E+00 -0.22719443582E+04  0.22719443582E+04  0.00000000000E+00 0. -1.
          6    2    1    2  501    0 -0.24133569854E+03 -0.24782010063E+02 -0.32236226513E+03  0.43828762831E+03  0.17123535773E+03 0.  0.
         24    2    3    3    0    0 -0.18169085973E+03  0.33787925125E+02 -0.27728398989E+03  0.34319774976E+03  0.82128509031E+02 0.  0.
         -6    2    1    2    0  502  0.24133569854E+03  0.24782010063E+02 -0.18801943300E+04  0.19030444930E+04  0.16610405263E+03 0.  0.
        -24    2    5    5    0    0  0.22815999501E+03  0.12941262703E+02 -0.18593943660E+04  0.18753221019E+04  0.85212195189E+02 0.  0.
          5    1    3    3  501    0 -0.59644838808E+02 -0.58569935188E+02 -0.45078275243E+02  0.95089878553E+02  0.47000000000E+01 0. -1.
        -11    1    4    4    0    0 -0.18004117784E+03  0.13125999221E+02 -0.23727700014E+03  0.29814005495E+03  0.00000000000E+00 0.  1.
         12    1    4    4    0    0 -0.16496818979E+01  0.20661925904E+02 -0.40006989745E+02  0.45057694802E+02  0.00000000000E+00 0. -1.
         -5    1    5    5    0  502  0.13175703532E+02  0.11840747360E+02 -0.20799964020E+02  0.27722391037E+02  0.47000000000E+01 0.  1.
         11    1    6    6    0    0  0.29683916930E+01 -0.13787873131E+02 -0.20109852974E+03  0.20159249851E+03  0.00000000000E+00 0. -1.
        -12    1    6    6    0    0  0.22519160332E+03  0.26729135834E+02 -0.16582958362E+04  0.16737296034E+04  0.00000000000E+00 0.  1.
</event>
<event>
12    1  0.1039610E+000  0.2938911E+03  0.7818608E-02  0.1088405E+00
         21   -1    0    0  503  502  0.00000000000E+00  0.00000000000E+00  0.11087082583E+03  0.11087082583E+03  0.00000000000E+00 0. -1.
         21   -1    0    0  501  503 -0.00000000000E+00 -0.00000000000E+00 -0.77811701147E+03  0.77811701147E+03  0.00000000000E+00 0.  1.
          6    2    1    2  501    0  0.23672644807E+03 -0.14914435031E+02 -0.32161701281E+03  0.43530127254E+03  0.17259155065E+03 0.  0.
         24    2    3    3    0    0  0.22489908064E+03 -0.30830641283E+02 -0.20432321669E+03  0.31625028829E+03  0.82074009605E+02 0.  0.
         -6    2    1    2    0  502 -0.23672644807E+03  0.14914435031E+02 -0.34562917283E+03  0.45368656476E+03  0.17352268539E+03 0.  0.
        -24    2    5    5    0    0 -0.47664762475E+02 -0.37515121137E+02 -0.13700746236E+03  0.16726329860E+03  0.74341458278E+02 0.  0.
          5    1    3    3  501    0  0.11827367436E+02  0.15916206252E+02 -0.11729379613E+03  0.11905098426E+03  0.47000000000E+01 0. -1.
        -11    1    4    4    0    0  0.19699770443E+03 -0.77871169467E+01 -0.19818570446E+03  0.27954661185E+03  0.00000000000E+00 0.  1.
         12    1    4    4    0    0  0.27901376202E+02 -0.23043524336E+02 -0.61375122211E+01  0.36703676438E+02  0.00000000000E+00 0. -1.
         -5    1    5    5    0  502 -0.18906168560E+03  0.52429556168E+02 -0.20862171046E+03  0.28642326616E+03  0.47000000000E+01 0.  1.
         13    1    6    6    0    0 -0.20684013047E+02 -0.45802438298E+02 -0.34543914501E+02  0.60983389368E+02  0.00000000000E+00 0. -1.
        -14    1    6    6    0    0 -0.26980749428E+02  0.82873171605E+01 -0.10246354786E+03  0.10627990923E+03  0.00000000000E+00 0.  1.
</event>
<event>
12    1  0.1039610E+000  0.2574078E+03  0.7818608E-02  0.1108866E+00
         21   -1    0    0  501  502  0.00000000000E+00  0.00000000000E+00  0.67478642040E+03  0.67478642040E+03  0.00000000000E+00 0. -1.
         21   -1    0    0  502  503 -0.00000000000E+00 -0.00000000000E+00 -0.98878869499E+02  0.98878869499E+02  0.00000000000E+00 0. -1.
         -6    2    1    2    0  503 -0.18739228245E+03  0.31308465425E+02  0.24708518102E+03  0.35607350153E+03  0.17216609505E+03 0.  0.
        -24    2    3    3    0    0 -0.12978632355E+03  0.50055349621E+01  0.24653289766E+03  0.29257007116E+03  0.89158464259E+02 0.  0.
          6    2    1    2  501    0  0.18739228245E+03 -0.31308465425E+02  0.32882236988E+03  0.41759178837E+03  0.17367401432E+03 0.  0.
         24    2    5    5    0    0  0.72200844236E+02 -0.71580704567E+02  0.11911018298E+03  0.17491461182E+03  0.77917434273E+02 0.  0.
          5    1    5    5  501    0  0.11519143821E+03  0.40272239141E+02  0.20971218690E+03  0.24267717655E+03  0.47000000000E+01 0. -1.
        -11    1    6    6    0    0  0.45632263981E+02 -0.27652825861E+02  0.99387581372E+01  0.54274867180E+02  0.00000000000E+00 0.  1.
         12    1    6    6    0    0  0.26568580255E+02 -0.43927878706E+02  0.10917142484E+03  0.12063974464E+03  0.00000000000E+00 0. -1.
         -5    1    3    3    0  503 -0.57605958903E+02  0.26302930463E+02  0.55228336018E+00  0.63503430372E+02  0.47000000000E+01 0.  1.
         13    1    4    4    0    0 -0.29368020150E+02  0.40040307261E+02  0.98305131781E+02  0.11013448936E+03  0.00000000000E+00 0. -1.
        -14    1    4    4    0    0 -0.10041830340E+03 -0.35034772299E+02  0.14822776588E+03  0.18243558180E+03  0.00000000000E+00 0.  1.
</event>
<event>
12    1  0.1039610E+000  0.1881060E+03  0.7818608E-02  0.1161172E+00
         21   -1    0    0  503  502  0.00000000000E+00  0.00000000000E+00  0.18166391700E+03  0.18166391700E+03  0.00000000000E+00 0. -1.
         21   -1    0    0  501  503 -0.00000000000E+00 -0.00000000000E+00 -0.19077307326E+03  0.19077307326E+03  0.00000000000E+00 0. -1.
          6    2    1    2  501    0 -0.69022756582E+02 -0.30749886696E+02  0.40255229821E+01  0.18814908560E+03  0.17226194333E+03 0.  0.
         24    2    3    3    0    0 -0.73190596650E+02 -0.61993256415E+02  0.48092043345E+02  0.13376648490E+03  0.79878661545E+02 0.  0.
         -6    2    1    2    0  502  0.69022756582E+02  0.30749886696E+02 -0.13134679244E+02  0.18428790465E+03  0.16757033014E+03 0.  0.
        -24    2    5    5    0    0 -0.11534070140E+02 -0.26656212056E+02 -0.30994753766E+01  0.84750686377E+02  0.79558052255E+02 0.  0.
          5    1    3    3  501    0  0.41678400682E+01  0.31243369719E+02 -0.44066520363E+02  0.54382600702E+02  0.47000000000E+01 0. -1.
        -11    1    4    4    0    0 -0.23808013934E+01 -0.42776782830E+02  0.42237164820E+02  0.60162276025E+02  0.00000000000E+00 0.  1.
         12    1    4    4    0    0 -0.70809795257E+02 -0.19216473585E+02  0.58548785254E+01  0.73604208874E+02  0.00000000000E+00 0. -1.
         -5    1    5    5    0  502  0.80556826722E+02  0.57406098752E+02 -0.10035203867E+02  0.99537218276E+02  0.47000000000E+01 0.  1.
         13    1    6    6    0    0  0.88751043225E+01 -0.51518547043E+02 -0.50789039977E+01  0.52523551212E+02  0.00000000000E+00 0. -1.
        -14    1    6    6    0    0 -0.20409174463E+02  0.24862334987E+02  0.19794286211E+01  0.32227135165E+02  0.00000000000E+00 0.  1.
</event>
<event>
12    1  0.1039610E+000  0.2070744E+03  0.7818608E-02  0.1143955E+00
         21   -1    0    0  503  502  0.00000000000E+00  0.00000000000E+00  0.30035630487E+03  0.30035630487E+03  0.00000000000E+00 0.  1.
         21   -1    0    0  501  503 -0.00000000000E+00 -0.00000000000E+00 -0.14261376989E+03  0.14261376989E+03  0.00000000000E+00 0.  1.
          6    2    1    2  501    0  0.39290589231E+02 -0.10944625215E+03  0.81931504137E+02  0.22269390777E+03  0.17134051674E+03 0.  0.
         24    2    3    3    0    0 -0.25315680636E+02 -0.47395317839E+02 -0.28801563217E+01  0.99245957993E+02  0.83392236080E+02 0.  0.
         -6    2    1    2    0  502 -0.39290589231E+02  0.10944625215E+03  0.75811030841E+02  0.22027616698E+03  0.17103229177E+03 0.  0.
        -24    2    5    5    0    0 -0.45408281105E+02  0.63599076033E+02 -0.20162113324E+02  0.11363506743E+03  0.79997895417E+02 0.  0.
          5    1    3    3  501    0  0.64606269867E+02 -0.62050934314E+02  0.84811660459E+02  0.12344794978E+03  0.47000000000E+01 0. -1.
        -13    1    4    4    0    0 -0.11747374083E+02 -0.42391683610E+02 -0.39970223933E+02  0.59436305726E+02  0.00000000000E+00 0.  1.
         14    1    4    4    0    0 -0.13568306553E+02 -0.50036342290E+01  0.37090067611E+02  0.39809652267E+02  0.00000000000E+00 0. -1.
         -5    1    5    5    0  502  0.61176918741E+01  0.45847176120E+02  0.95973144165E+02  0.10664109955E+03  0.47000000000E+01 0.  1.
         11    1    6    6    0    0 -0.41677408974E+02  0.27691885437E+02  0.24903409431E+02  0.55892993649E+02  0.00000000000E+00 0. -1.
        -12    1    6    6    0    0 -0.37308721318E+01  0.35907190596E+02 -0.45065522756E+02  0.57742073782E+02  0.00000000000E+00 0.  1.
</event>
<event>
12    1  0.1039610E+000  0.2342714E+03  0.7818608E-02  0.1124315E+00
         21   -1    0    0  503  502  0.00000000000E+00  0.00000000000E+00  0.18159057168E+04  0.18159057168E+04  0.00000000000E+00 0. -1.
         21   -1    0    0  501  503 -0.00000000000E+00 -0.00000000000E+00 -0.31346864036E+02  0.31346864036E+02  0.00000000000E+00 0. -1.
          6    2    1    2  501    0  0.34180330078E+01  0.15328189972E+03  0.67666718512E+03  0.71486261052E+03  0.17217156785E+03 0.  0.
         24    2    3    3    0    0  0.10830224696E+02  0.77679060053E+02  0.16757372293E+03  0.20011124025E+03  0.76237954598E+02 0.  0.
         -6    2    1    2    0  502 -0.34180330078E+01 -0.15328189972E+03  0.11078916676E+04  0.11323899703E+04  0.17713292719E+03 0.  0.
        -24    2    5    5    0    0 -0.35389304054E+02 -0.14597930750E+03  0.60960681082E+03  0.63300496997E+03  0.80699858420E+02 0.  0.
          5    1    3    3  501    0 -0.74121916887E+01  0.75602839667E+02  0.50909346219E+03  0.51475137027E+03  0.47000000000E+01 0. -1.
        -11    1    4    4    0    0 -0.17403724496E+02  0.75773808303E+02  0.98647447999E+02  0.12560206466E+03  0.00000000000E+00 0.  1.
         12    1    4    4    0    0  0.28233949192E+02  0.19052517501E+01  0.68926274927E+02  0.74509175586E+02  0.00000000000E+00 0. -1.
         -5    1    5    5    0  502  0.31971271046E+02 -0.73025922177E+01  0.49828485678E+03  0.49938500030E+03  0.47000000000E+01 0.  1.
         11    1    6    6    0    0 -0.42868082822E+02 -0.34384392740E+02  0.14338790308E+03  0.15355796866E+03  0.00000000000E+00 0. -1.
        -12    1    6    6    0    0  0.74787787682E+01 -0.11159491476E+03  0.46621890774E+03  0.47944700131E+03  0.00000000000E+00 0.  1.
</event>
<event>
12    1  0.1039610E+000  0.3160057E+03  0.7818608E-02  0.1078099E+00
         21   -1    0    0  501  502  0.00000000000E+00  0.00000000000E+00  0.72457841923E+03  0.72457841923E+03  0.00000000000E+00 0. -1.
         21   -1    0    0  502  503 -0.00000000000E+00 -0.00000000000E+00 -0.15764999067E+03  0.15764999067E+03  0.00000000000E+00 0. -1.
         -6    2    1    2    0  503 -0.17247599569E+03  0.19268193804E+03  0.11659753105E+03  0.33208525007E+03  0.17265958047E+03 0.  0.
        -24    2    3    3    0    0 -0.15923919701E+03  0.77218105378E+02  0.98086881146E+02  0.21430645888E+03  0.70614902130E+02 0.  0.
          6    2    1    2  501    0  0.17247599569E+03 -0.19268193804E+03  0.45033089751E+03  0.55014315984E+03  0.18161850328E+03 0.  0.
         24    2    5    5    0    0  0.16535941278E+03 -0.21920987685E+03  0.42614337015E+03  0.51324459931E+03  0.80156979049E+02 0.  0.
          5    1    5    5  501    0  0.71165829145E+01  0.26527938812E+02  0.24187527356E+02  0.36898560535E+02  0.47000000000E+01 0. -1.
        -11    1    6    6    0    0  0.18811160585E+02 -0.84256863578E+02  0.14297492447E+03  0.16701768723E+03  0.00000000000E+00 0.  1.
         12    1    6    6    0    0  0.14654825219E+03 -0.13495301327E+03  0.28316844569E+03  0.34622691208E+03  0.00000000000E+00 0. -1.
         -5    1    3    3    0  503 -0.13236798679E+02  0.11546383266E+03  0.18510649906E+02  0.11777879118E+03  0.47000000000E+01 0.  1.
         13    1    4    4    0    0 -0.15379199064E+02 -0.13229409310E+02  0.67207992093E+01  0.21370684981E+02  0.00000000000E+00 0. -1.
        -14    1    4    4    0    0 -0.14385999795E+03  0.90447514688E+02  0.91366081937E+02  0.19293577390E+03  0.00000000000E+00 0.  1.
</event>
<event>
12    1  0.1039610E+000  0.2291864E+03  0.7818608E-02  0.1127307E+00
         21   -1    0    0  503  502  0.00000000000E+00  0.00000000000E+00  0.18944034856E+03  0.18944034856E+03  0.00000000000E+00 0. -1.
         21   -1    0    0  501  503 -0.00000000000E+00 -0.00000000000E+00 -0.39451726974E+03  0.39451726974E+03  0.00000000000E+00 0.  1.
          6    2    1    2  501    0  0.27418389145E+02  0.14913027900E+03 -0.26206086110E+03  0.34779334506E+03  0.17115112553E+03 0.  0.
         24    2    3    3    0    0  0.18808769164E+02  0.10939758440E+03 -0.27337923537E+03  0.30533150134E+03  0.78546280042E+02 0.  0.
         -6    2    1    2    0  502 -0.27418389145E+02 -0.14913027900E+03  0.56983939917E+02  0.23616427324E+03  0.17185687757E+03 0.  0.
        -24    2    5    5    0    0 -0.39645083676E+02 -0.60148756831E+02 -0.26794143218E+02  0.11324942238E+03  0.83173913887E+02 0.  0.
          5    1    3    3  501    0  0.86096199813E+01  0.39732694599E+02  0.11318374267E+02  0.42461843724E+02  0.47000000000E+01 0. -1.
        -11    1    4    4    0    0 -0.23611048976E+01  0.63054785884E+02 -0.64124403372E+02  0.89963436723E+02  0.00000000000E+00 0.  1.
         12    1    4    4    0    0  0.21169874062E+02  0.46342798518E+02 -0.20925483200E+03  0.21536806461E+03  0.00000000000E+00 0. -1.
         -5    1    5    5    0  502  0.12226694531E+02 -0.88981522171E+02  0.83778083136E+02  0.12291485086E+03  0.47000000000E+01 0.  1.
         13    1    6    6    0    0 -0.38690503795E+00 -0.81636527513E+01  0.27348500073E+02  0.28543569818E+02  0.00000000000E+00 0. -1.
        -14    1    6    6    0    0 -0.39258178638E+02 -0.51985104080E+02 -0.54142643291E+02  0.84705852565E+02  0.00000000000E+00 0.  1.
</event>
<event>
12    1  0.1039610E+000  0.2460910E+03  0.7818608E-02  0.1116095E+00
         21   -1    0    0  503  502  0.00000000000E+00  0.00000000000E+00  0.21427216826E+03  0.21427216826E+03  0.00000000000E+00 0.  1.
         21   -1    0    0  501  503 -0.00000000000E+00 -0.00000000000E+00 -0.28735072047E+03  0.28735072047E+03  0.00000000000E+00 0.  1.
          6    2    1    2  501    0 -0.67250991038E+02 -0.16345772721E+03  0.21854665821E+01  0.24427984340E+03  0.16860231685E+03 0.  0.
         24    2    3    3    0    0 -0.91907692959E+02 -0.48794267054E+02 -0.61536641525E+01  0.12660532133E+03  0.71854960047E+02 0.  0.
         -6    2    1    2    0  502  0.67250991038E+02  0.16345772721E+03 -0.75264018792E+02  0.25734304533E+03  0.17122980487E+03 0.  0.
        -24    2    5    5    0    0  0.82706700625E+02  0.18348093265E+03 -0.80831126770E+02  0.23102023381E+03  0.79567747225E+02 0.  0.
          5    1    3    3  501    0  0.24656701922E+02 -0.11466346015E+03  0.83391307346E+01  0.11767452207E+03  0.47000000000E+01 0. -1.
        -11    1    4    4    0    0 -0.15685406749E+02  0.45297532215E+01 -0.26741340218E+02  0.31331293076E+02  0.00000000000E+00 0.  1.
         12    1    4    4    0    0 -0.76222286210E+02 -0.53324020275E+02  0.20587676066E+02  0.95274028251E+02  0.00000000000E+00 0. -1.
         -5    1    5    5    0  502 -0.15455709588E+02 -0.20023205447E+02  0.55671079785E+01  0.26322811523E+02  0.47000000000E+01 0.  1.
         13    1    6    6    0    0  0.66744983779E+02  0.10844618197E+03 -0.11913765537E+02  0.12789607129E+03  0.00000000000E+00 0. -1.
        -14    1    6    6    0    0  0.15961716846E+02  0.75034750687E+02 -0.68917361233E+02  0.10312416252E+03  0.00000000000E+00 0.  1.
</event>
<event>
12    1  0.1039610E+000  0.7189737E+03  0.7818608E-02  0.9685348E-01
         21   -1    0    0  501  502  0.00000000000E+00  0.00000000000E+00  0.49007722228E+03  0.49007722228E+03  0.00000000000E+00 0.  1.
         21   -1    0    0  502  503 -0.00000000000E+00 -0.00000000000E+00 -0.10618572049E+04  0.10618572049E+04  0.00000000000E+00 0.  1.
         -6    2    1    2    0  503 -0.45439496132E+03 -0.52991855670E+03 -0.34963561039E+03  0.79947997287E+03  0.17214734778E+03 0.  0.
        -24    2    3    3    0    0 -0.24035444615E+03 -0.31876296762E+03 -0.13331941222E+03  0.42905479482E+03  0.83269814318E+02 0.  0.
          6    2    1    2  501    0  0.45439496132E+03  0.52991855670E+03 -0.22214437223E+03  0.75245445431E+03  0.17190440972E+03 0.  0.
         24    2    5    5    0    0  0.18896849696E+03  0.24522485263E+03 -0.38035818450E+02  0.32185050322E+03  0.79351759548E+02 0.  0.
          5    1    5    5  501    0  0.26542646436E+03  0.28469370407E+03 -0.18410855378E+03  0.43060395109E+03  0.47000000000E+01 0. -1.
        -11    1    6    6    0    0  0.23936582892E+02 -0.80202220931E-01 -0.33847775490E+01  0.24174845439E+02  0.00000000000E+00 0.  1.
         12    1    6    6    0    0  0.16503191407E+03  0.24530505485E+03 -0.34651040901E+02  0.29767565778E+03  0.00000000000E+00 0. -1.
         -5    1    3    3    0  503 -0.21404051518E+03 -0.21115558908E+03 -0.21631619817E+03  0.37042517804E+03  0.47000000000E+01 0.  1.
         13    1    4    4    0    0 -0.95025183492E+02 -0.19423087762E+03 -0.77414550335E+02  0.22967026783E+03  0.00000000000E+00 0. -1.
        -14    1    4    4    0    0 -0.14532926265E+03 -0.12453209000E+03 -0.55904861883E+02  0.19938452699E+03  0.00000000000E+00 0.  1.
</event>
<event>
12    1  0.1039610E+000  0.1802440E+03  0.7818608E-02  0.1168409E+00
         21   -1    0    0  503  502  0.00000000000E+00  0.00000000000E+00  0.60941907313E+03  0.60941907313E+03  0.00000000000E+00 0.  1.
         21   -1    0    0  501  503 -0.00000000000E+00 -0.00000000000E+00 -0.76215822768E+02  0.76215822768E+02  0.00000000000E+00 0.  1.
          6    2    1    2  501    0  0.26561097019E+02  0.29982116525E+02  0.72781070202E+02  0.19118925843E+03  0.17219706494E+03 0.  0.
         24    2    3    3    0    0 -0.37884114029E+02 -0.19113999898E+02  0.14131234205E+02  0.91061803967E+02  0.79322186517E+02 0.  0.
         -6    2    1    2    0  502 -0.26561097019E+02 -0.29982116525E+02  0.46042218016E+03  0.49444563747E+03  0.17573697745E+03 0.  0.
        -24    2    5    5    0    0  0.53691824174E+02 -0.89425599819E+01  0.22207340945E+03  0.24202650032E+03  0.79356450971E+02 0.  0.
          5    1    3    3  501    0  0.64445211047E+02  0.49096116423E+02  0.58649835997E+02  0.10012745446E+03  0.47000000000E+01 0. -1.
        -11    1    4    4    0    0  0.76927057838E+01  0.22880201418E+02  0.16170260411E+02  0.29054408632E+02  0.00000000000E+00 0.  1.
         12    1    4    4    0    0 -0.45576819813E+02 -0.41994201316E+02 -0.20390262059E+01  0.62007395335E+02  0.00000000000E+00 0. -1.
         -5    1    5    5    0  502 -0.80252921192E+02 -0.21039556543E+02  0.23834877071E+03  0.25241913715E+03  0.47000000000E+01 0.  1.
         13    1    6    6    0    0 -0.18863491105E+02 -0.99090925661E+01  0.30801056994E+02  0.37452990857E+02  0.00000000000E+00 0. -1.
        -14    1    6    6    0    0  0.72555315279E+02  0.96653258416E+00  0.19127235246E+03  0.20457350947E+03  0.00000000000E+00 0.  1.
</event>
<event>
12    1  0.1039610E+000  0.2478397E+03  0.7818608E-02  0.1114701E+00
         21   -1    0    0  501  502  0.00000000000E+00  0.00000000000E+00  0.10930855712E+03  0.10930855712E+03  0.00000000000E+00 0. -1.
         21   -1    0    0  502  503 -0.00000000000E+00 -0.00000000000E+00 -0.64309338226E+03  0.64309338226E+03  0.00000000000E+00 0. -1.
         -6    2    1    2    0  503 -0.16865536902E+03 -0.57497424379E+02 -0.13290322454E+03  0.28109463167E+03  0.17204748633E+03 0.  0.
        -24    2    3    3    0    0 -0.16142494309E+03 -0.55729207860E+02 -0.16312527368E+03  0.24961657736E+03  0.80838257771E+02 0.  0.
          6    2    1    2  501    0  0.16865536902E+03  0.57497424379E+02 -0.40088160060E+03  0.47130730770E+03  0.17226123559E+03 0.  0.
         24    2    5    5    0    0  0.13484696240E+03  0.47088815534E+02 -0.40363838784E+03  0.43551572529E+03  0.79680229758E+02 0.  0.
          5    1    5    5  501    0  0.33808406613E+02  0.10408608845E+02  0.27567872447E+01  0.35791582415E+02  0.47000000000E+01 0. -1.
        -13    1    6    6    0    0  0.56393264249E+02  0.61824154413E+02 -0.20128705495E+03  0.21798831347E+03  0.00000000000E+00 0.  1.
         14    1    6    6    0    0  0.78453698154E+02 -0.14735338879E+02 -0.20235133290E+03  0.21752741182E+03  0.00000000000E+00 0. -1.
         -5    1    3    3    0  503 -0.72304259299E+01 -0.17682165187E+01  0.30222049142E+02  0.31478054310E+02  0.47000000000E+01 0.  1.
         13    1    4    4    0    0 -0.53644754278E+02  0.85821532018E+00 -0.97587715103E+02  0.11136363111E+03  0.00000000000E+00 0. -1.
        -14    1    4    4    0    0 -0.10778018881E+03 -0.56587423181E+02 -0.65537558578E+02  0.13825294625E+03  0.00000000000E+00 0.  1.
</event>
<event>
12    1  0.1039610E+000  0.2440520E+03  0.7818608E-02  0.1117278E+00
         21   -1    0    0  501  502  0.00000000000E+00  0.00000000000E+00  0.14363421982E+04  0.14363421982E+04  0.00000000000E+00 0. -1.
         21   -1    0    0  502  503 -0.00000000000E+00 -0.00000000000E+00 -0.10134993279E+03  0.10134993279E+03  0.00000000000E+00 0. -1.
         -6    2    1    2    0  503  0.16953643428E+03 -0.29894374235E+02  0.12598098342E+04  0.12832311512E+04  0.17298870724E+03 0.  0.
        -24    2    3    3    0    0  0.14590347961E+03 -0.66236502754E+02  0.11752489533E+04  0.11880896805E+04  0.68351204575E+02 0.  0.
          6    2    1    2  501    0 -0.16953643428E+03  0.29894374235E+02  0.75182431203E+02  0.25446097981E+03  0.17164415551E+03 0.  0.
         24    2    5    5    0    0 -0.47870498554E+02  0.58813973184E+02  0.29566640991E+01  0.10997016849E+03  0.79586607055E+02 0.  0.
          5    1    5    5  501    0 -0.12166593573E+03 -0.28919598949E+02  0.72225767104E+02  0.14449081131E+03  0.47000000000E+01 0. -1.
        -11    1    6    6    0    0 -0.33894428991E+02  0.67806908544E+01  0.33417001095E+02  0.48078124415E+02  0.00000000000E+00 0.  1.
         12    1    6    6    0    0 -0.13976069563E+02  0.52033282330E+02 -0.30460336995E+02  0.61892044079E+02  0.00000000000E+00 0. -1.
         -5    1    3    3    0  503  0.23632954667E+02  0.36342128520E+02  0.84560880919E+02  0.95141470629E+02  0.47000000000E+01 0.  1.
         13    1    4    4    0    0  0.75104175700E+02  0.26908392955E+00  0.42593991882E+03  0.43251072132E+03  0.00000000000E+00 0. -1.
        -14    1    4    4    0    0  0.70799303913E+02 -0.66505586684E+02  0.74930903446E+03  0.75557895922E+03  0.00000000000E+00 0.  1.
</event>
<event>
12    1  0.1039610E+000  0.1802802E+03  0.7818608E-02  0.1167704E+00
         21   -1    0    0  501  502  0.00000000000E+00  0.00000000000E+00  0.62058132830E+03  0.62058132830E+03  0.00000000000E+00 0. -1.
         21   -1    0    0  502  503 -0.00000000000E+00 -0.00000000000E+00 -0.10220518675E+03  0.10220518675E+03  0.00000000000E+00 0. -1.
         -6    2    1    2    0  503 -0.26728442616E+02 -0.45249343973E+02  0.65775112146E+01  0.18040010898E+03  0.17245005912E+03 0.  0.
        -24    2    3    3    0    0 -0.53261636334E+02 -0.78860087597E+02  0.33743876014E+02  0.12947080669E+03  0.81045205255E+02 0.  0.
          6    2    1    2  501    0  0.26728442616E+02  0.45249343973E+02  0.51179863033E+03  0.54238640607E+03  0.17170690932E+03 0.  0.
         24    2    5    5    0    0 -0.12620885228E+02  0.54379198008E+02  0.17575962528E+03  0.20389559859E+03  0.86980373216E+02 0.  0.
          5    1    5    5  501    0  0.39349327843E+02 -0.91298540344E+01  0.33603900505E+03  0.33849080748E+03  0.47000000000E+01 0. -1.
        -11    1    6    6    0    0 -0.47472066541E+02  0.48085655412E+02  0.12329115270E+03  0.14059351227E+03  0.00000000000E+00 0.  1.
         12    1    6    6    0    0  0.34851181313E+02  0.62935425956E+01  0.52468472583E+02  0.63302086320E+02  0.00000000000E+00 0. -1.
         -5    1    3    3    0  503  0.26533193719E+02  0.33610743624E+02 -0.27166364799E+02  0.50929302295E+02  0.47000000000E+01 0.  1.
         11    1    4    4    0    0 -0.16481813089E+02 -0.71218481708E+02 -0.77359791697E+01  0.73508963217E+02  0.00000000000E+00 0. -1.
        -12    1    4    4    0    0 -0.36779823245E+02 -0.76416058893E+01  0.41479855183E+02  0.55961843470E+02  0.00000000000E+00 0.  1.
</event>
<event>
12    1  0.1039610E+000  0.2674078E+03  0.7818608E-02  0.1102796E+00
         21   -1    0    0  503  502  0.00000000000E+00  0.00000000000E+00  0.52568893392E+03  0.52568893392E+03  0.00000000000E+00 0.  1.
         21   -1    0    0  501  503 -0.00000000000E+00 -0.00000000000E+00 -0.13610155588E+03  0.13610155588E+03  0.00000000000E+00 0.  1.
          6    2    1    2  501    0  0.20377294823E+03 -0.18239732213E+02  0.18357152101E+03  0.32435390632E+03  0.17219422452E+03 0.  0.
         24    2    3    3    0    0  0.99920423242E+02 -0.14928915134E+02  0.17897383515E+03  0.22024080834E+03  0.79167016488E+02 0.  0.
         -6    2    1    2    0  502 -0.20377294823E+03  0.18239732213E+02  0.20601585703E+03  0.33743658348E+03  0.17194421265E+03 0.  0.
        -24    2    5    5    0    0 -0.80712921980E+02 -0.52935436881E+02  0.10872820153E+03  0.16510941595E+03  0.78246796587E+02 0.  0.
          5    1    3    3  501    0  0.10385252499E+03 -0.33108170792E+01  0.45976858562E+01  0.10411309798E+03  0.47000000000E+01 0. -1.
        -11    1    4    4    0    0  0.10981243481E+03 -0.23245738000E+02  0.17245395527E+03  0.20576564792E+03  0.00000000000E+00 0.  1.
         12    1    4    4    0    0 -0.98920115692E+01  0.83168228668E+01  0.65198798809E+01  0.14475160419E+02  0.00000000000E+00 0. -1.
         -5    1    5    5    0  502 -0.12306002625E+03  0.71175169093E+02  0.97287655499E+02  0.17232716753E+03  0.47000000000E+01 0.  1.
         13    1    6    6    0    0 -0.66769470003E+02 -0.48103231053E+02  0.12071566207E+03  0.14609707058E+03  0.00000000000E+00 0. -1.
        -14    1    6    6    0    0 -0.13943451977E+02 -0.48322058272E+01 -0.11987460545E+02  0.19012345371E+02  0.00000000000E+00 0.  1.
</event>
<event>
12    1  0.1039610E+000  0.1720602E+03  0.7818608E-02  0.1175888E+00
         21   -1    0    0  501  502  0.00000000000E+00  0.00000000000E+00  0.27084246001E+03  0.27084246001E+03  0.00000000000E+00 0.  1.
         21   -1    0    0  502  503 -0.00000000000E+00 -0.00000000000E+00 -0.13636220248E+03  0.13636220248E+03  0.00000000000E+00 0.  1.
         -6    2    1    2    0  503 -0.19069427587E+02  0.67139349567E+00 -0.24053443011E+02  0.17373335196E+03  0.17099887609E+03 0.  0.
        -24    2    3    3    0    0 -0.77370991525E+02 -0.65223594637E+01 -0.67716831518E+01  0.11232022907E+03  0.80877479330E+02 0.  0.
          6    2    1    2  501    0  0.19069427587E+02 -0.67139349567E+00  0.15853370054E+03  0.23347131053E+03  0.17032857892E+03 0.  0.
         24    2    5    5    0    0 -0.27509646661E+02 -0.51782128494E+02  0.11632727848E+03  0.15232089800E+03  0.78939538635E+02 0.  0.
          5    1    5    5  501    0  0.46579074247E+02  0.51110734998E+02  0.42206422066E+02  0.81150412528E+02  0.47000000000E+01 0. -1.
        -13    1    6    6    0    0 -0.74940801502E+01 -0.21910905951E+02  0.11395667761E+03  0.11628574035E+03  0.00000000000E+00 0.  1.
         14    1    6    6    0    0 -0.20015566510E+02 -0.29871222543E+02  0.23706008729E+01  0.36035157659E+02  0.00000000000E+00 0. -1.
         -5    1    3    3    0  503  0.58301563938E+02  0.71937529593E+01 -0.17281759859E+02  0.61413122890E+02  0.47000000000E+01 0.  1.
         13    1    4    4    0    0 -0.42861517178E+02  0.34088337402E+02  0.11544097456E+02  0.55967763826E+02  0.00000000000E+00 0. -1.
        -14    1    4    4    0    0 -0.34509474347E+02 -0.40610696866E+02 -0.18315780608E+02  0.56352465242E+02  0.00000000000E+00 0.  1.
</event>
<event>
12    1  0.1039610E+000  0.3609943E+03  0.7818608E-02  0.1058248E+00
         21   -1    0    0  503  502  0.00000000000E+00  0.00000000000E+00  0.30626762124E+03  0.30626762124E+03  0.00000000000E+00 0. -1.
         21   -1    0    0  501  503 -0.00000000000E+00 -0.00000000000E+00 -0.42982877800E+03  0.42982877800E+03  0.00000000000E+00 0. -1.
          6    2    1    2  501    0 -0.69671979737E+02 -0.30956060766E+03 -0.22075236913E+02  0.36166858705E+03  0.17214789049E+03 0.  0.
         24    2    3    3    0    0  0.20822015858E+02 -0.99934140979E+02 -0.29337579754E+02  0.13317952737E+03  0.80347396017E+02 0.  0.
         -6    2    1    2    0  502  0.69671979737E+02  0.30956060766E+03 -0.10148591984E+03  0.37442781220E+03  0.17092349180E+03 0.  0.
        -24    2    5    5    0    0  0.95934548705E+02  0.23490514651E+03 -0.30075953882E+02  0.26772901349E+03  0.79939953517E+02 0.  0.
          5    1    3    3  501    0 -0.90493995595E+02 -0.20962646668E+03  0.72623428411E+01  0.22848905968E+03  0.47000000000E+01 0. -1.
        -13    1    4    4    0    0  0.17191073762E+02 -0.10889067158E+03 -0.89315360497E+01  0.11060055927E+03  0.00000000000E+00 0.  1.
         14    1    4    4    0    0  0.36309420953E+01  0.89565305993E+01 -0.20406043705E+02  0.22578968102E+02  0.00000000000E+00 0. -1.
         -5    1    5    5    0  502 -0.26262568968E+02  0.74655461147E+02 -0.71409965963E+02  0.10669879871E+03  0.47000000000E+01 0.  1.
         13    1    6    6    0    0  0.54273225840E+02  0.14858184846E+03  0.20241382968E+02  0.15947370416E+03  0.00000000000E+00 0. -1.
        -14    1    6    6    0    0  0.41661322865E+02  0.86323298048E+02 -0.50317336850E+02  0.10825530932E+03  0.00000000000E+00 0.  1.
</event>
<event>
12    1  0.1039610E+000  0.1888879E+03  0.7818608E-02  0.1159801E+00
         21   -1    0    0  501  502  0.00000000000E+00  0.00000000000E+00  0.60577560004E+03  0.60577560004E+03  0.00000000000E+00 0.  1.
         21   -1    0    0  502  503 -0.00000000000E+00 -0.00000000000E+00 -0.59269194372E+02  0.59269194372E+02  0.00000000000E+00 0.  1.
         -6    2    1    2    0  503 -0.72385736629E+02  0.32631498741E+02  0.31355813161E+03  0.36605649480E+03  0.17138887336E+03 0.  0.
        -24    2    3    3    0    0 -0.44552131234E+02 -0.39582912796E+02  0.23763007947E+03  0.25753557551E+03  0.79402887854E+02 0.  0.
          6    2    1    2  501    0  0.72385736629E+02 -0.32631498741E+02  0.23294827406E+03  0.29898829962E+03  0.16977807674E+03 0.  0.
         24    2    5    5    0    0  0.48714850465E+02 -0.71927665716E+02  0.22127122698E+03  0.25141789895E+03  0.81873550503E+02 0.  0.
          5    1    5    5  501    0  0.23670886164E+02  0.39296166976E+02  0.11677047081E+02  0.47570400664E+02  0.47000000000E+01 0. -1.
        -13    1    6    6    0    0 -0.15987080719E+02  0.15401216253E+01  0.65482237553E+02  0.67423157442E+02  0.00000000000E+00 0.  1.
         14    1    6    6    0    0  0.64701931184E+02 -0.73467787342E+02  0.15578898943E+03  0.18399474151E+03  0.00000000000E+00 0. -1.
         -5    1    3    3    0  503 -0.27833605395E+02  0.72214411536E+02  0.75928052138E+02  0.10852091929E+03  0.47000000000E+01 0.  1.
         11    1    4    4    0    0 -0.40678404165E+02  0.13042375885E+02  0.72170311481E+02  0.83865308640E+02  0.00000000000E+00 0. -1.
        -12    1    4    4    0    0 -0.38737270697E+01 -0.52625288681E+02  0.16545976799E+03  0.17367026686E+03  0.00000000000E+00 0.  1.
</event>
<event>
12    1  0.1039610E+000  0.3022692E+03  0.7818608E-02  0.1084134E+00
         21   -1    0    0  501  502  0.00000000000E+00  0.00000000000E+00  0.11227626374E+04  0.11227626374E+04  0.00000000000E+00 0. -1.
         21   -1    0    0  502  503 -0.00000000000E+00 -0.00000000000E+00 -0.84692931137E+02  0.84692931137E+02  0.00000000000E+00 0. -1.
         -6    2    1    2    0  503  0.24105465617E+03 -0.57722469849E+02  0.63952930775E+03  0.70736441162E+03  0.17299550449E+03 0.  0.
        -24    2    3    3    0    0  0.80048973289E+02 -0.26765221880E+01  0.13090747504E+03  0.17101457711E+03  0.75460033577E+02 0.  0.
          6    2    1    2  501    0 -0.24105465617E+03  0.57722469849E+02  0.39854039852E+03  0.50009115692E+03  0.17267740209E+03 0.  0.
         24    2    5    5    0    0 -0.25365293226E+03  0.77038908294E+02  0.35196910274E+03  0.44791053843E+03  0.80416402095E+02 0.  0.
          5    1    5    5  501    0  0.12598276089E+02 -0.19316438445E+02  0.46571295781E+02  0.52180618483E+02  0.47000000000E+01 0. -1.
        -11    1    6    6    0    0 -0.17256445075E+03  0.54100868442E+02  0.17382352397E+03  0.25083861568E+03  0.00000000000E+00 0.  1.
         12    1    6    6    0    0 -0.81088481505E+02  0.22938039852E+02  0.17814557877E+03  0.19707192276E+03  0.00000000000E+00 0. -1.
         -5    1    3    3    0  503  0.16100568288E+03 -0.55045947661E+02  0.50862183270E+03  0.53634983451E+03  0.47000000000E+01 0.  1.
         13    1    4    4    0    0  0.38072866259E+02  0.34974780507E+02  0.78745493020E+02  0.94199952694E+02  0.00000000000E+00 0. -1.
        -14    1    4    4    0    0  0.41976107031E+02 -0.37651302695E+02  0.52161982023E+02  0.76814624419E+02  0.00000000000E+00 0.  1.
</event>
<event>
12    1  0.1039610E+000  0.1994252E+03  0.7818608E-02  0.1150307E+00
         21   -1    0    0  501  502  0.00000000000E+00  0.00000000000E+00  0.75101562087E+02  0.75101562087E+02  0.00000000000E+00 0. -1.
         21   -1    0    0  502  503 -0.00000000000E+00 -0.00000000000E+00 -0.52904451307E+03  0.52904451307E+03  0.00000000000E+00 0. -1.
         -6    2    1    2    0  503 -0.94630907846E+02 -0.33500814128E+02 -0.23669797782E+03  0.30950981237E+03  0.17231679543E+03 0.  0.
        -24    2    3    3    0    0 -0.12546202503E+02 -0.73179137113E+02 -0.10303318617E+03  0.14764371125E+03  0.75300960915E+02 0.  0.
          6    2    1    2  501    0  0.94630907846E+02  0.33500814128E+02 -0.21724497317E+03  0.29463626278E+03  0.17186574909E+03 0.  0.
         24    2    5    5    0    0  0.11376497468E+03  0.57322241564E+02 -0.21907073974E+03  0.26366859670E+03  0.72806806263E+02 0.  0.
          5    1    5    5  501    0 -0.19134066830E+02 -0.23821427436E+02  0.18257665713E+01  0.30967666075E+02  0.47000000000E+01 0. -1.
        -11    1    6    6    0    0  0.99408120658E+02  0.14859062463E+02 -0.13395814503E+03  0.16747403026E+03  0.00000000000E+00 0.  1.
         12    1    6    6    0    0  0.14356854018E+02  0.42463179101E+02 -0.85112594703E+02  0.96194566446E+02  0.00000000000E+00 0. -1.
         -5    1    3    3    0  503 -0.82084705344E+02  0.39678322986E+02 -0.13366479165E+03  0.16186610112E+03  0.47000000000E+01 0.  1.
         11    1    4    4    0    0 -0.37047722034E+02 -0.55675636099E+02 -0.95529727967E+02  0.11661148781E+03  0.00000000000E+00 0. -1.
        -12    1    4    4    0    0  0.24501519531E+02 -0.17503501014E+02 -0.75034582017E+01  0.31032223447E+02  0.00000000000E+00 0.  1.
</event>
<event>
12    1  0.1039610E+000  0.2002652E+03  0.7818608E-02  0.1150250E+00
         21   -1    0    0  501  502  0.00000000000E+00  0.00000000000E+00  0.33898573835E+03  0.33898573835E+03  0.00000000000E+00 0.  1.
         21   -1    0    0  502  503 -0.00000000000E+00 -0.00000000000E+00 -0.18969654946E+03  0.18969654946E+03  0.00000000000E+00 0.  1.
         -6    2    1    2    0  503 -0.13027306126E+02 -0.99989774271E+02  0.23869374108E+03  0.30936668718E+03  0.16901295643E+03 0.  0.
        -24    2    3    3    0    0 -0.59208273150E+02 -0.45307547735E+02  0.80635802428E+02  0.13579471483E+03  0.79872889342E+02 0.  0.
          6    2    1    2  501    0  0.13027306126E+02  0.99989774271E+02 -0.89404552188E+02  0.21931560063E+03  0.17302743443E+03 0.  0.
         24    2    5    5    0    0 -0.26805341365E+02  0.14162797806E+01 -0.74258470854E+02  0.11182203151E+03  0.79179000143E+02 0.  0.
          5    1    5    5  501    0  0.39832647491E+02  0.98573494490E+02 -0.15146081334E+02  0.10749356912E+03  0.47000000000E+01 0. -1.
        -11    1    6    6    0    0 -0.40026940964E+02 -0.16107991171E+02 -0.10521997018E+02  0.44410987421E+02  0.00000000000E+00 0.  1.
         12    1    6    6    0    0  0.13221599598E+02  0.17524270951E+02 -0.63736473836E+02  0.67411044091E+02  0.00000000000E+00 0. -1.
         -5    1    3    3    0  503  0.46180967023E+02 -0.54682226536E+02  0.15805793865E+03  0.17357197235E+03  0.47000000000E+01 0.  1.
         11    1    4    4    0    0 -0.16623123743E+02 -0.18449648073E+01  0.72501115520E+02  0.74405267890E+02  0.00000000000E+00 0. -1.
        -12    1    4    4    0    0 -0.42585149407E+02 -0.43462582928E+02  0.81346869082E+01  0.61389446942E+02  0.00000000000E+00 0.  1.
</event>
<event>
12    1  0.1039610E+000  0.3322018E+03  0.7818608E-02  0.1070281E+00
         21   -1    0    0  503  502  0.00000000000E+00  0.00000000000E+00  0.30076453533E+03  0.30076453533E+03  0.00000000000E+00 0. -1.
         21   -1    0    0  501  503 -0.00000000000E+00 -0.00000000000E+00 -0.37083275332E+03  0.37083275332E+03  0.00000000000E+00 0. -1.
          6    2    1    2  501    0 -0.25233475572E+03  0.12877402303E+03  0.41235345884E+01  0.33222741934E+03  0.17350065324E+03 0.  0.
         24    2    3    3    0    0 -0.16753980026E+03  0.83895208601E+02 -0.66424118127E+02  0.21304959523E+03  0.76615767712E+02 0.  0.
         -6    2    1    2    0  502  0.25233475572E+03 -0.12877402303E+03 -0.74191752575E+02  0.33936986930E+03  0.17149902067E+03 0.  0.
        -24    2    5    5    0    0  0.20013336003E+03 -0.61613757481E+02 -0.10609617451E+03  0.24840026383E+03  0.81219923168E+02 0.  0.
          5    1    3    3  501    0 -0.84794955454E+02  0.44878814433E+02  0.70547652716E+02  0.11917782411E+03  0.47000000000E+01 0. -1.
        -13    1    4    4    0    0 -0.30050798651E+02 -0.96729990695E+01  0.51635650954E+01  0.31988745131E+02  0.00000000000E+00 0.  1.
         14    1    4    4    0    0 -0.13748900161E+03  0.93568207671E+02 -0.71587683223E+02  0.18106085010E+03  0.00000000000E+00 0. -1.
         -5    1    5    5    0  502  0.52201395691E+02 -0.67160265553E+02  0.31904421933E+02  0.90969605474E+02  0.47000000000E+01 0.  1.
         11    1    6    6    0    0  0.20349297676E+02 -0.36785911683E+02 -0.29774377535E+02  0.51515150896E+02  0.00000000000E+00 0. -1.
        -12    1    6    6    0    0  0.17978406235E+03 -0.24827845798E+02 -0.76321796973E+02  0.19688511293E+03  0.00000000000E+00 0.  1.
</event>
<event>
12    1  0.1039610E+000  0.3063348E+03  0.7818608E-02  0.1082235E+00
         21   -1    0    0  501  502  0.00000000000E+00  0.00000000000E+00  0.10372352635E+04  0.10372352635E+04  0.00000000000E+00 0. -1.
         21   -1    0    0  502  503 -0.00000000000E+00 -0.00000000000E+00 -0.11632003135E+03  0.11632003135E+03  0.00000000000E+00 0. -1.
         -6    2    1    2    0  503  0.17525161834E+03  0.18279372448E+03  0.18762973376E+03  0.35922959907E+03  0.17237839893E+03 0.  0.
        -24    2    3    3    0    0  0.77119879262E+01  0.41024237215E+02  0.28411897752E+02  0.88046036551E+02  0.72127704952E+02 0.  0.
          6    2    1    2  501    0 -0.17525161834E+03 -0.18279372448E+03  0.73328549837E+03  0.79432569576E+03  0.17064294120E+03 0.  0.
         24    2    5    5    0    0 -0.78990888845E+02 -0.17144437582E+03  0.54396175959E+03  0.58158053407E+03  0.81907186430E+02 0.  0.
          5    1    5    5  501    0 -0.96260729491E+02 -0.11349348666E+02  0.18932373878E+03  0.21274516169E+03  0.47000000000E+01 0. -1.
        -13    1    6    6    0    0 -0.75231330276E+02 -0.80460121688E+02  0.35724625625E+03  0.37384284377E+03  0.00000000000E+00 0.  1.
         14    1    6    6    0    0 -0.37595585683E+01 -0.90984254130E+02  0.18671550334E+03  0.20773769029E+03  0.00000000000E+00 0. -1.
         -5    1    3    3    0  503  0.16753963041E+03  0.14176948727E+03  0.15921783601E+03  0.27118356252E+03  0.47000000000E+01 0.  1.
         11    1    4    4    0    0  0.97997797393E+01 -0.57270115605E+01 -0.18550432448E+02  0.21747480047E+02  0.00000000000E+00 0. -1.
        -12    1    4    4    0    0 -0.20877918131E+01  0.46751248775E+02  0.46962330201E+02  0.66298556505E+02  0.00000000000E+00 0.  1.
</event>
<event>
12    1  0.1039610E+000  0.1709495E+03  0.7818608E-02  0.1176873E+00
         21   -1    0    0  501  502  0.00000000000E+00  0.00000000000E+00  0.18307555781E+04  0.18307555781E+04  0.00000000000E+00 0. -1.
         21   -1    0    0  502  503 -0.00000000000E+00 -0.00000000000E+00 -0.30108003031E+02  0.30108003031E+02  0.00000000000E+00 0. -1.
         -6    2    1    2    0  503 -0.75718718458E+01  0.38798260806E+01  0.15381062624E+04  0.15475719050E+04  0.17069136080E+03 0.  0.
        -24    2    3    3    0    0 -0.16930617042E+02  0.48166404853E+02  0.51055067938E+03  0.51900909543E+03  0.78113997361E+02 0.  0.
          6    2    1    2  501    0  0.75718718458E+01 -0.38798260806E+01  0.26254131269E+03  0.31329167608E+03  0.17073765588E+03 0.  0.
         24    2    5    5    0    0  0.66215904719E+01 -0.34504264974E+02  0.26770547505E+03  0.28186687910E+03  0.80921730081E+02 0.  0.
          5    1    5    5  501    0  0.95028137392E+00  0.30624438894E+02 -0.51641623594E+01  0.31424796978E+02  0.47000000000E+01 0. -1.
        -13    1    6    6    0    0  0.37454300479E+02 -0.88316371296E+01  0.67660023860E+02  0.77837659699E+02  0.00000000000E+00 0.  1.
         14    1    6    6    0    0 -0.30832710007E+02 -0.25672627845E+02  0.20004545119E+03  0.20402921940E+03  0.00000000000E+00 0. -1.
         -5    1    3    3    0  503  0.93587451962E+01 -0.44286578772E+02  0.10275555830E+04  0.10285628096E+04  0.47000000000E+01 0.  1.
         13    1    4    4    0    0  0.29000507101E+02  0.34873459347E+02  0.23401150512E+03  0.23836646598E+03  0.00000000000E+00 0. -1.
        -14    1    4    4    0    0 -0.45931124143E+02  0.13292945506E+02  0.27653917426E+03  0.28064262945E+03  0.00000000000E+00 0.  1.
</event>
<event>
12    1  0.1039610E+000  0.1914476E+03  0.7818608E-02  0.1157191E+00
         21   -1    0    0  503  502  0.00000000000E+00  0.00000000000E+00  0.13415876244E+03  0.13415876244E+03  0.00000000000E+00 0.  1.
         21   -1    0    0  501  503 -0.00000000000E+00 -0.00000000000E+00 -0.36005864912E+03  0.36005864912E+03  0.00000000000E+00 0.  1.
          6    2    1    2  501    0 -0.79402423937E+02 -0.27525610711E+02 -0.23447496953E+03  0.30270560016E+03  0.17201675750E+03 0.  0.
         24    2    3    3    0    0 -0.25685229371E+02  0.13767396591E+02 -0.21707498276E+03  0.23259498054E+03  0.78291791500E+02 0.  0.
         -6    2    1    2    0  502  0.79402423937E+02  0.27525610711E+02  0.85750828521E+01  0.19151181140E+03  0.17187448236E+03 0.  0.
        -24    2    5    5    0    0  0.75530332260E+02  0.80525069128E+02  0.15141118889E+02  0.13776110428E+03  0.80992286809E+02 0.  0.
          5    1    3    3  501    0 -0.53717194566E+02 -0.41293007302E+02 -0.17399986767E+02  0.70110619620E+02  0.47000000000E+01 0. -1.
        -13    1    4    4    0    0  0.25658979341E+02 -0.41199982390E+01 -0.43168547784E+02  0.50387311142E+02  0.00000000000E+00 0.  1.
         14    1    4    4    0    0 -0.51344208712E+02  0.17887394830E+02 -0.17390643497E+03  0.18220766940E+03  0.00000000000E+00 0. -1.
         -5    1    5    5    0  502  0.38720916763E+01 -0.52999458417E+02 -0.65660360365E+01  0.53750707118E+02  0.47000000000E+01 0.  1.
         11    1    6    6    0    0  0.19114930287E+02  0.28267756328E+02  0.43950247299E+02  0.55642347590E+02  0.00000000000E+00 0. -1.
        -12    1    6    6    0    0  0.56415401974E+02  0.52257312800E+02 -0.28809128411E+02  0.82118756693E+02  0.00000000000E+00 0.  1.
</event>
<event>
12    1  0.1039610E+000  0.3390985E+03  0.7818608E-02  0.1067338E+00
         21   -1    0    0  503  502  0.00000000000E+00  0.00000000000E+00  0.67570561434E+03  0.67570561434E+03  0.00000000000E+00 0.  1.
         21   -1    0    0  501  503 -0.00000000000E+00 -0.00000000000E+00 -0.29949446239E+03  0.29949446239E+03  0.00000000000E+00 0.  1.
          6    2    1    2  501    0 -0.64042280766E+01 -0.29083390698E+03  0.50919336221E+03  0.61095833346E+03  0.17136752761E+03 0.  0.
         24    2    3    3    0    0 -0.42329734857E+02 -0.74085569501E+02  0.15239722231E+03  0.19191649869E+03  0.79539619320E+02 0.  0.
         -6    2    1    2    0  502  0.64042280766E+01  0.29083390698E+03 -0.13298221025E+03  0.36424174327E+03  0.17424810964E+03 0.  0.
        -24    2    5    5    0    0  0.67969530325E+02  0.16262736347E+03 -0.47860862384E+02  0.19842576666E+03  0.77553893015E+02 0.  0.
          5    1    3    3  501    0  0.35925506780E+02 -0.21674833748E+03  0.35679613990E+03  0.41904183476E+03  0.47000000000E+01 0. -1.
        -11    1    4    4    0    0  0.21250600467E+02 -0.22273381866E+02  0.65790466091E+02  0.72636609147E+02  0.00000000000E+00 0.  1.
         12    1    4    4    0    0 -0.63580335323E+02 -0.51812187635E+02  0.86606756220E+02  0.11927988955E+03  0.00000000000E+00 0. -1.
         -5    1    5    5    0  502 -0.61565302249E+02  0.12820654350E+03 -0.85121347869E+02  0.16581597662E+03  0.47000000000E+01 0.  1.
         13    1    6    6    0    0  0.51514050195E+02  0.11267196802E+03  0.48205139079E+01  0.12398349527E+03  0.00000000000E+00 0. -1.
        -14    1    6    6    0    0  0.16455480131E+02  0.49955395458E+02 -0.52681376292E+02  0.74442271390E+02  0.00000000000E+00 0.  1.
</event>
<event>
12    1  0.1039610E+000  0.2887128E+03  0.7818608E-02  0.1091068E+00
         21   -1    0    0  503  502  0.00000000000E+00  0.00000000000E+00  0.15031513205E+03  0.15031513205E+03  0.00000000000E+00 0.  1.
         21   -1    0    0  501  503 -0.00000000000E+00 -0.00000000000E+00 -0.99300679538E+03  0.99300679538E+03  0.00000000000E+00 0. -1.
          6    2    1    2  501    0 -0.20215453823E+03 -0.11322819908E+03 -0.41055335332E+02  0.29127974321E+03  0.17167197165E+03 0.  0.
         24    2    3    3    0    0 -0.88239969110E+02 -0.38563584154E+02  0.41649119660E+02  0.13186377583E+03  0.79874677064E+02 0.  0.
         -6    2    1    2    0  502  0.20215453823E+03  0.11322819908E+03 -0.80163632800E+03  0.85204218422E+03  0.17224400986E+03 0.  0.
        -24    2    5    5    0    0  0.50964749228E+02  0.24904525353E+02 -0.16831267030E+03  0.19494221539E+03  0.80347192301E+02 0.  0.
          5    1    3    3  501    0 -0.11391456912E+03 -0.74664614928E+02 -0.82704454992E+02  0.15941596738E+03  0.47000000000E+01 0. -1.
        -11    1    4    4    0    0 -0.74345066280E+02  0.12170701045E+01  0.25780246180E+01  0.74399706658E+02  0.00000000000E+00 0.  1.
         12    1    4    4    0    0 -0.13894902829E+02 -0.39780654258E+02  0.39071095042E+02  0.57464069171E+02  0.00000000000E+00 0. -1.
         -5    1    5    5    0  502  0.15118978901E+03  0.88323673728E+02 -0.63332365769E+03  0.65709996883E+03  0.47000000000E+01 0.  1.
         13    1    6    6    0    0  0.42606637210E+02 -0.23867850056E+02 -0.81071366396E+02  0.94644420068E+02  0.00000000000E+00 0. -1.
        -14    1    6    6    0    0  0.83581120174E+01  0.48772375409E+02 -0.87241303906E+02  0.10029779532E+03  0.00000000000E+00 0.  1.
</event>
<event>
12    1  0.1039610E+000  0.4240536E+03  0.7818608E-02  0.1035998E+00
         21   -1    0    0  501  502  0.00000000000E+00  0.00000000000E+00  0.15300676755E+03  0.15300676755E+03  0.00000000000E+00 0. -1.
         21   -1    0    0  502  503 -0.00000000000E+00 -0.00000000000E+00 -0.12853046266E+04  0.12853046266E+04  0.00000000000E+00 0.  1.
         -6    2    1    2    0  503  0.22484034121E+03  0.31336391152E+03 -0.34605986454E+03  0.54500760080E+03  0.16889563348E+03 0.  0.
        -24    2    3    3    0    0  0.23760555951E+03  0.23228575854E+03 -0.29587360683E+03  0.44868850533E+03  0.58026787524E+02 0.  0.
          6    2    1    2  501    0 -0.22484034121E+03 -0.31336391152E+03 -0.78623799453E+03  0.89330379336E+03  0.17627070973E+03 0.  0.
         24    2    5    5    0    0 -0.21961243234E+03 -0.31896814464E+03 -0.67721965832E+03  0.78391537491E+03  0.76984100128E+02 0.  0.
          5    1    5    5  501    0 -0.52279088663E+01  0.56042331241E+01 -0.10901833622E+03  0.10938841845E+03  0.47000000000E+01 0. -1.
        -13    1    6    6    0    0 -0.40615295850E+02 -0.72854819507E+02 -0.91216241541E+02  0.12360351817E+03  0.00000000000E+00 0.  1.
         14    1    6    6    0    0 -0.17899713649E+03 -0.24611332514E+03 -0.58600341678E+03  0.66031185674E+03  0.00000000000E+00 0. -1.
         -5    1    3    3    0  503 -0.12765218299E+02  0.81078152976E+02 -0.50186257711E+02  0.96319095465E+02  0.47000000000E+01 0.  1.
         11    1    4    4    0    0  0.60458712258E+02  0.78062730578E+02 -0.11921316798E+03  0.15479284613E+03  0.00000000000E+00 0. -1.
        -12    1    4    4    0    0  0.17714684725E+03  0.15422302797E+03 -0.17666043885E+03  0.29389565921E+03  0.00000000000E+00 0.  1.
</event>
<event>
12    1  0.1039610E+000  0.1801445E+03  0.7818608E-02  0.1168344E+00
         21   -1    0    0  503  502  0.00000000000E+00  0.00000000000E+00  0.18252373604E+03  0.18252373604E+03  0.00000000000E+00 0.  1.
         21   -1    0    0  501  503 -0.00000000000E+00 -0.00000000000E+00 -0.17937593102E+03  0.17937593102E+03  0.00000000000E+00 0.  1.
          6    2    1    2  501    0  0.29220572237E+02 -0.32655176858E+02  0.29683885905E+02  0.18257374311E+03  0.17473361489E+03 0.  0.
         24    2    3    3    0    0 -0.30834569410E+02  0.32286064443E+02  0.27546237768E+02  0.93969880890E+02  0.77963983167E+02 0.  0.
         -6    2    1    2    0  502 -0.29220572237E+02  0.32655176858E+02 -0.26536080887E+02  0.17932592396E+03  0.17185290512E+03 0.  0.
        -24    2    5    5    0    0  0.28226541910E+02  0.34494674008E+02  0.30551490201E+02  0.98180157302E+02  0.81971516586E+02 0.  0.
          5    1    3    3  501    0  0.60055141647E+02 -0.64941241301E+02  0.21376481363E+01  0.88603862216E+02  0.47000000000E+01 0. -1.
        -11    1    4    4    0    0 -0.24697122051E+02  0.46920819327E+01 -0.24270983419E+02  0.34943441539E+02  0.00000000000E+00 0.  1.
         12    1    4    4    0    0 -0.61374473589E+01  0.27593982510E+02  0.51817221187E+02  0.59026439351E+02  0.00000000000E+00 0. -1.
         -5    1    5    5    0  502 -0.57447114147E+02 -0.18394971493E+01 -0.57087571088E+02  0.81145766657E+02  0.47000000000E+01 0.  1.
         13    1    6    6    0    0  0.28667481865E+02 -0.11601003646E+02 -0.14112679387E+02  0.33993757097E+02  0.00000000000E+00 0. -1.
        -14    1    6    6    0    0 -0.44093995489E+00  0.46095677653E+02  0.44664169588E+02  0.64186400206E+02  0.00000000000E+00 0.  1.
</event>
<event>
12    1  0.1039610E+000  0.4797719E+03  0.7818608E-02  0.1019218E+00
         21   -1    0    0  503  502  0.00000000000E+00  0.00000000000E+00  0.19939631843E+03  0.19939631843E+03  0.00000000000E+00 0.  1.
         21   -1    0    0  501  503 -0.00000000000E+00 -0.00000000000E+00 -0.12494142537E+04  0.12494142537E+04  0.00000000000E+00 0.  1.
          6    2    1    2  501    0 -0.42160912355E+03 -0.14745005566E+03 -0.72538171234E+03  0.86952678275E+03  0.17436291279E+03 0.  0.
         24    2    3    3    0    0 -0.10985344922E+03 -0.82471234520E+02 -0.30438324569E+03  0.34162940012E+03  0.72056935406E+02 0.  0.
         -6    2    1    2    0  502  0.42160912355E+03  0.14745005566E+03 -0.32463622291E+03  0.57928378937E+03  0.17517208518E+03 0.  0.
        -24    2    5    5    0    0  0.28042939381E+03  0.10793659070E+03 -0.29817324952E+03  0.43023544499E+03  0.76839435659E+02 0.  0.
          5    1    3    3  501    0 -0.31175567432E+03 -0.64978821137E+02 -0.42099846665E+03  0.52789738264E+03  0.47000000000E+01 0. -1.
        -13    1    4    4    0    0  0.64236857811E+01 -0.12506839460E+01 -0.85845118796E+00  0.66003702766E+01  0.00000000000E+00 0.  1.
         14    1    4    4    0    0 -0.11627713501E+03 -0.81220550574E+02 -0.30352479450E+03  0.33502902984E+03  0.00000000000E+00 0. -1.
         -5    1    5    5    0  502  0.14117972974E+03  0.39513464961E+02 -0.26462973394E+02  0.14904834438E+03  0.47000000000E+01 0.  1.
         13    1    6    6    0    0  0.23605903342E+03  0.11033411145E+03 -0.22326571541E+03  0.34314000507E+03  0.00000000000E+00 0. -1.
        -14    1    6    6    0    0  0.44370360393E+02 -0.23975207506E+01 -0.74907534110E+02  0.87095439913E+02  0.00000000000E+00 0.  1.
</event>
<event>
12    1  0.1039610E+000  0.3226319E+03  0.7818608E-02  0.1074705E+00
         21   -1    0    0  503  502  0.00000000000E+00  0.00000000000E+00  0.76819982236E+03  0.76819982236E+03  0.00000000000E+00 0.  1.
         21   -1    0    0  501  503 -0.00000000000E+00 -0.00000000000E+00 -0.13558969648E+03  0.13558969648E+03  0.00000000000E+00 0.  1.
          6    2    1    2  501    0  0.26794894688E+03 -0.26330476613E+02  0.27554454427E+03  0.42255449354E+03  0.17360176265E+03 0.  0.
         24    2    3    3    0    0  0.54175206230E+02  0.22838481931E+02  0.10535019024E+03  0.14487661033E+03  0.80212345752E+02 0.  0.
         -6    2    1    2    0  502 -0.26794894688E+03  0.26330476613E+02  0.35706558161E+03  0.48123502531E+03  0.17776779205E+03 0.  0.
        -24    2    5    5    0    0 -0.12390617742E+03 -0.46955447706E+02  0.22516561555E+03  0.27257540492E+03  0.77718994272E+02 0.  0.
          5    1    3    3  501    0  0.21377374065E+03 -0.49168958544E+02  0.17019435404E+03  0.27767788320E+03  0.47000000000E+01 0. -1.
        -13    1    4    4    0    0  0.37502525467E+02  0.11345261973E+02  0.16479316056E+01  0.39215686456E+02  0.00000000000E+00 0.  1.
         14    1    4    4    0    0  0.16672680763E+02  0.11493219959E+02  0.10370225863E+03  0.10566092388E+03  0.00000000000E+00 0. -1.
         -5    1    5    5    0  502 -0.14404276946E+03  0.73285924319E+02  0.13189996606E+03  0.20865962039E+03  0.47000000000E+01 0.  1.
         13    1    6    6    0    0 -0.27385266433E+02  0.20562177544E+02  0.35629189753E+02  0.49418570653E+02  0.00000000000E+00 0. -1.
        -14    1    6    6    0    0 -0.96520910989E+02 -0.67517625250E+02  0.18953642580E+03  0.22315683427E+03  0.00000000000E+00 0.  1.
</event>
<event>
12    1  0.1039610E+000  0.2128400E+03  0.7818608E-02  0.1139381E+00
         21   -1    0    0  503  502  0.00000000000E+00  0.00000000000E+00  0.12825829925E+03  0.12825829925E+03  0.00000000000E+00 0. -1.
         21   -1    0    0  501  503 -0.00000000000E+00 -0.00000000000E+00 -0.41559471407E+03  0.41559471407E+03  0.00000000000E+00 0. -1.
          6    2    1    2  501    0 -0.93078150193E+02  0.82603020522E+02 -0.37919708171E+02  0.21596649411E+03  0.17238567594E+03 0.  0.
         24    2    3    3    0    0 -0.10629830929E+03  0.11587487006E+03 -0.29343573966E+02  0.17885276813E+03  0.80005945189E+02 0.  0.
         -6    2    1    2    0  502  0.93078150193E+02 -0.82603020522E+02 -0.24941670665E+03  0.32788651921E+03  0.17266752701E+03 0.  0.
        -24    2    5    5    0    0  0.79953834562E+02 -0.31481324004E+02 -0.60534375450E+02  0.13171236048E+03  0.79372828282E+02 0.  0.
          5    1    3    3  501    0  0.13220159100E+02 -0.33271849538E+02 -0.85761342042E+01  0.37113725981E+02  0.47000000000E+01 0. -1.
        -11    1    4    4    0    0 -0.77951687047E+02  0.26630653662E+02 -0.76111081774E+01  0.82725970503E+02  0.00000000000E+00 0.  1.
         12    1    4    4    0    0 -0.28346622245E+02  0.89244216398E+02 -0.21732465789E+02  0.96126797629E+02  0.00000000000E+00 0. -1.
         -5    1    5    5    0  502  0.13124315631E+02 -0.51121696517E+02 -0.18888233120E+03  0.19617415873E+03  0.47000000000E+01 0.  1.
         13    1    6    6    0    0  0.64086630659E+02 -0.28163903365E+02 -0.80051265415E+02  0.10634146311E+03  0.00000000000E+00 0. -1.
        -14    1    6    6    0    0  0.15867203903E+02 -0.33174206397E+01  0.19516889965E+02  0.25370897368E+02  0.00000000000E+00 0.  1.
</event>
<event>
12    1  0.1039610E+000  0.2649852E+03  0.7818608E-02  0.1104339E+00
         21   -1    0    0  503  502  0.00000000000E+00  0.00000000000E+00  0.30859367670E+03  0.30859367670E+03  0.00000000000E+00 0. -1.
         21   -1    0    0  501  503 -0.00000000000E+00 -0.00000000000E+00 -0.30789099091E+03  0.30789099091E+03  0.00000000000E+00 0. -1.
          6    2    1    2  501    0  0.51505935730E+02  0.19387823700E+03  0.15869961205E+03  0.30797178823E+03  0.17152091208E+03 0.  0.
         24    2    3    3    0    0  0.46258611643E+02  0.21063228717E+03  0.17055291615E+03  0.28627332226E+03  0.79738938313E+02 0.  0.
         -6    2    1    2    0  502 -0.51505935730E+02 -0.19387823700E+03 -0.15799692625E+03  0.30851287938E+03  0.17313444441E+03 0.  0.
        -24    2    5    5    0    0 -0.29858412801E+02 -0.16408766062E+03 -0.18603102670E+03  0.26199305052E+03  0.78844977286E+02 0.  0.
          5    1    3    3  501    0  0.52473240871E+01 -0.16754050163E+02 -0.11853304104E+02  0.21698465963E+02  0.47000000000E+01 0. -1.
        -11    1    4    4    0    0  0.25499444378E+02  0.15947910111E+03  0.80032167831E+02  0.18024692297E+03  0.00000000000E+00 0.  1.
         12    1    4    4    0    0  0.20759167264E+02  0.51153186058E+02  0.90520748323E+02  0.10602639929E+03  0.00000000000E+00 0. -1.
         -5    1    5    5    0  502 -0.21647522929E+02 -0.29790576385E+02  0.28034100443E+02  0.46519828868E+02  0.47000000000E+01 0.  1.
         11    1    6    6    0    0  0.23013241942E+02 -0.91055954192E+02 -0.10352134406E+03  0.13977648148E+03  0.00000000000E+00 0. -1.
        -12    1    6    6    0    0 -0.52871654743E+02 -0.73031706426E+02 -0.82509682638E+02  0.12221656904E+03  0.00000000000E+00 0.  1.
</event>
<event>
12    1  0.1039610E+000  0.2294272E+03  0.7818608E-02  0.1127239E+00
         21   -1    0    0  501  502  0.00000000000E+00  0.00000000000E+00  0.26279145972E+03  0.26279145972E+03  0.00000000000E+00 0. -1.
         21   -1    0    0  502  503 -0.00000000000E+00 -0.00000000000E+00 -0.41641734367E+03  0.41641734367E+03  0.00000000000E+00 0. -1.
         -6    2    1    2    0  503 -0.13829398825E+03 -0.62611686628E+02 -0.32210089570E+03  0.39545645492E+03  0.17202142377E+03 0.  0.
        -24    2    3    3    0    0 -0.93266493450E+01 -0.58949964862E+02 -0.12603685236E+03  0.16070300595E+03  0.79862902677E+02 0.  0.
          6    2    1    2  501    0  0.13829398825E+03  0.62611686628E+02  0.16847501174E+03  0.28375234847E+03  0.17054651914E+03 0.  0.
         24    2    5    5    0    0  0.95626995701E+02  0.30421107745E+02  0.25712057756E+02  0.13123986815E+03  0.80578079990E+02 0.  0.
          5    1    5    5  501    0  0.42666992552E+02  0.32190578884E+02  0.14276295399E+03  0.15251248032E+03  0.47000000000E+01 0. -1.
        -13    1    6    6    0    0  0.97565681150E+02  0.29250889996E+02  0.45332900730E+02  0.11148878236E+03  0.00000000000E+00 0.  1.
         14    1    6    6    0    0 -0.19386854494E+01  0.11702177485E+01 -0.19620842974E+02  0.19751085789E+02  0.00000000000E+00 0. -1.
         -5    1    3    3    0  503 -0.12896733891E+03 -0.36617217669E+01 -0.19606404333E+03  0.23475344896E+03  0.47000000000E+01 0.  1.
         13    1    4    4    0    0 -0.23066182562E+02 -0.64847589526E+02 -0.12828548449E+03  0.14558304907E+03  0.00000000000E+00 0. -1.
        -14    1    4    4    0    0  0.13739533217E+02  0.58976246644E+01  0.22486321291E+01  0.15119956884E+02  0.00000000000E+00 0.  1.
</event>
<event>
12    1  0.1039610E+000  0.2183426E+03  0.7818608E-02  0.1135135E+00
         21   -1    0    0  503  502  0.00000000000E+00  0.00000000000E+00  0.16258893068E+04  0.16258893068E+04  0.00000000000E+00 0. -1.
         21   -1    0    0  501  503 -0.00000000000E+00 -0.00000000000E+00 -0.31613102075E+02  0.31613102075E+02  0.00000000000E+00 0. -1.
          6    2    1    2  501    0 -0.13162366190E+03  0.28773205718E+02  0.10205237184E+04  0.10436087669E+04  0.17174956383E+03 0.  0.
         24    2    3    3    0    0 -0.40835426272E+02 -0.31453047110E+02  0.30230015632E+03  0.31715375765E+03  0.80896818651E+02 0.  0.
         -6    2    1    2    0  502  0.13162366190E+03 -0.28773205718E+02  0.57375248627E+03  0.61389364198E+03  0.17181618788E+03 0.  0.
        -24    2    5    5    0    0 -0.64695637276E+00 -0.80014754397E+01  0.26921497622E+03  0.28118931939E+03  0.80785442739E+02 0.  0.
          5    1    3    3  501    0 -0.90788235631E+02  0.60226252828E+02  0.71822356211E+03  0.72645500922E+03  0.47000000000E+01 0. -1.
        -13    1    4    4    0    0 -0.19951708110E+01  0.24540911030E+02  0.12076417936E+03  0.12324862692E+03  0.00000000000E+00 0.  1.
         14    1    4    4    0    0 -0.38840255461E+02 -0.55993958140E+02  0.18153597695E+03  0.19390513072E+03  0.00000000000E+00 0. -1.
         -5    1    5    5    0  502  0.13227061828E+03 -0.20771730278E+02  0.30453751006E+03  0.33270432259E+03  0.47000000000E+01 0.  1.
         11    1    6    6    0    0  0.20834623166E+02  0.29176653144E+02  0.15696243627E+03  0.16100486020E+03  0.00000000000E+00 0. -1.
        -12    1    6    6    0    0 -0.21481579538E+02 -0.37178128584E+02  0.11225253995E+03  0.12018445919E+03  0.00000000000E+00 0.  1.
</event>
<event>
12    1  0.1039610E+000  0.3270271E+03  0.7818608E-02  0.1072488E+00
         21   -1    0    0  501  502  0.00000000000E+00  0.00000000000E+00  0.73974447603E+02  0.73974447603E+02  0.00000000000E+00 0.  1.
         21   -1    0    0  502  503 -0.00000000000E+00 -0.00000000000E+00 -0.15796508925E+04  0.15796508925E+04  0.00000000000E+00 0.  1.
         -6    2    1    2    0  503 -0.51896562258E+02  0.27319330186E+03 -0.99483839295E+03  0.10472106452E+04  0.17210134794E+03 0.  0.
        -24    2    3    3    0    0 -0.24493986140E+02  0.22340232494E+03 -0.93288640516E+03  0.96300743058E+03  0.81226302846E+02 0.  0.
          6    2    1    2  501    0  0.51896562258E+02 -0.27319330186E+03 -0.51083805197E+03  0.60641469493E+03  0.17162585334E+03 0.  0.
         24    2    5    5    0    0  0.93639738532E+02 -0.23138007653E+03 -0.45446204585E+03  0.52461504552E+03  0.79875242859E+02 0.  0.
          5    1    5    5  501    0 -0.41743176274E+02 -0.41813225326E+02 -0.56376006118E+02  0.81799649409E+02  0.47000000000E+01 0. -1.
        -13    1    6    6    0    0  0.75853640747E+01 -0.40559757012E+02 -0.28962223734E+02  0.50412717053E+02  0.00000000000E+00 0.  1.
         14    1    6    6    0    0  0.86054374457E+02 -0.19082031952E+03 -0.42549982211E+03  0.47420232847E+03  0.00000000000E+00 0. -1.
         -5    1    3    3    0  503 -0.27402576118E+02  0.49790976914E+02 -0.61951987793E+02  0.84203214615E+02  0.47000000000E+01 0.  1.
         13    1    4    4    0    0  0.14570450352E+02  0.23792267498E+02 -0.52738952041E+02  0.59663783642E+02  0.00000000000E+00 0. -1.
        -14    1    4    4    0    0 -0.39064436492E+02  0.19961005744E+03 -0.88014745312E+03  0.90334364694E+03  0.00000000000E+00 0.  1.
</event>
<event>
12    1  0.1039610E+000  0.1877060E+03  0.7818608E-02  0.1161474E+00
         21   -1    0    0  501  502  0.00000000000E+00  0.00000000000E+00  0.56358578072E+03  0.56358578072E+03  0.00000000000E+00 0. -1.
         21   -1    0    0  502  503 -0.00000000000E+00 -0.00000000000E+00 -0.61792697876E+02  0.61792697876E+02  0.00000000000E+00 0. -1.
         -6    2    1    2    0  503 -0.22991072206E+02 -0.72673367732E+02  0.27905208810E+03  0.33409321469E+03  0.16714724184E+03 0.  0.
        -24    2    3    3    0    0 -0.95545860598E+00 -0.68330950310E+02  0.29016251916E+03  0.30859896957E+03  0.79806045033E+02 0.  0.
          6    2    1    2  501    0  0.22991072206E+02  0.72673367732E+02  0.22274099475E+03  0.29128526391E+03  0.17153293109E+03 0.  0.
         24    2    5    5    0    0  0.81596819957E+02  0.50642698446E+02  0.12720935467E+03  0.17696829966E+03  0.76894962352E+02 0.  0.
          5    1    5    5  501    0 -0.58605747751E+02  0.22030669286E+02  0.95531640076E+02  0.11431696425E+03  0.47000000000E+01 0. -1.
        -13    1    6    6    0    0  0.34378567491E+02  0.50104624161E+01  0.10004679029E+03  0.10590727494E+03  0.00000000000E+00 0.  1.
         14    1    6    6    0    0  0.47218252466E+02  0.45632236029E+02  0.27162564379E+02  0.71061024723E+02  0.00000000000E+00 0. -1.
         -5    1    3    3    0  503 -0.22035613600E+02 -0.43424174216E+01 -0.11110431065E+02  0.25494245120E+02  0.47000000000E+01 0.  1.
         13    1    4    4    0    0  0.23172776117E+02 -0.20437473717E+02  0.30353210594E+02  0.43312645708E+02  0.00000000000E+00 0. -1.
        -14    1    4    4    0    0 -0.24128234723E+02 -0.47893476594E+02  0.25980930857E+03  0.26528632387E+03  0.00000000000E+00 0.  1.
</event>
<event>
12    1  0.1039610E+000  0.1798810E+03  0.7818608E-02  0.1170563E+00
         21   -1    0    0  501  502  0.00000000000E+00  0.00000000000E+00  0.12230363168E+04  0.12230363168E+04  0.00000000000E+00 0. -1.
         21   -1    0    0  502  503 -0.00000000000E+00 -0.00000000000E+00 -0.25006049518E+02  0.25006049518E+02  0.00000000000E+00 0. -1.
         -6    2    1    2    0  503  0.21952638236E+02 -0.23787495987E+02  0.54520631548E+03  0.57088930070E+03  0.16618334430E+03 0.  0.
        -24    2    3    3    0    0  0.42196475011E+00  0.35474704094E+02  0.17486379279E+03  0.19518828610E+03  0.79135885139E+02 0.  0.
          6    2    1    2  501    0 -0.21952638236E+02  0.23787495987E+02  0.65282395177E+03  0.67715306558E+03  0.17694462110E+03 0.  0.
         24    2    5    5    0    0  0.52197988322E+02  0.14367361562E+02  0.47035444815E+03  0.47991142672E+03  0.78425885642E+02 0.  0.
          5    1    5    5  501    0 -0.74150626558E+02  0.94201344250E+01  0.18246950362E+03  0.19724163887E+03  0.47000000000E+01 0. -1.
        -11    1    6    6    0    0  0.61915239718E+02  0.16101448287E+02  0.21377885593E+03  0.22314603467E+03  0.00000000000E+00 0.  1.
         12    1    6    6    0    0 -0.97172513955E+01 -0.17340867251E+01  0.25657559222E+03  0.25676539205E+03  0.00000000000E+00 0. -1.
         -5    1    3    3    0  503  0.21530673485E+02 -0.59262200081E+02  0.37034252269E+03  0.37570101460E+03  0.47000000000E+01 0.  1.
         13    1    4    4    0    0  0.32154505595E+02 -0.73314121863E+01  0.76822619646E+02  0.83602492331E+02  0.00000000000E+00 0. -1.
        -14    1    4    4    0    0 -0.31732540844E+02  0.42806116281E+02  0.98041173144E+02  0.11158579377E+03  0.00000000000E+00 0.  1.
</event>
<event>
12    1  0.1039610E+000  0.2248617E+03  0.7818608E-02  0.1132176E+00
         21   -1    0    0  503  502  0.00000000000E+00  0.00000000000E+00  0.40450632716E+03  0.40450632716E+03  0.00000000000E+00 0.  1.
         21   -1    0    0  501  503 -0.00000000000E+00 -0.00000000000E+00 -0.13100475077E+03  0.13100475077E+03  0.00000000000E+00 0.  1.
          6    2    1    2  501    0 -0.11724883400E+03 -0.61662241130E+02  0.21902178672E+03  0.31390017263E+03  0.18169549874E+03 0.  0.
         24    2    3    3    0    0 -0.65392739454E+02 -0.10647722364E+03  0.95583812056E+02  0.17263283462E+03  0.71078976753E+02 0.  0.
         -6    2    1    2    0  502  0.11724883400E+03  0.61662241130E+02  0.54479789667E+02  0.22161090530E+03  0.16909708694E+03 0.  0.
        -24    2    5    5    0    0  0.31774218985E+02  0.79027143801E+02  0.60149585225E+02  0.13407984660E+03  0.84288446486E+02 0.  0.
          5    1    3    3  501    0 -0.51856094546E+02  0.44814982506E+02  0.12343797467E+03  0.14126733801E+03  0.47000000000E+01 0. -1.
        -13    1    4    4    0    0  0.87814472987E+01  0.45870168048E+01  0.95800314196E+01  0.13781565289E+02  0.00000000000E+00 0.  1.
         14    1    4    4    0    0 -0.74174186753E+02 -0.11106424044E+03  0.86003780637E+02  0.15885126933E+03  0.00000000000E+00 0. -1.
         -5    1    5    5    0  502  0.85474615015E+02 -0.17364902671E+02 -0.56697955577E+01  0.87531058707E+02  0.47000000000E+01 0.  1.
         13    1    6    6    0    0  0.18379146649E+02  0.66905827800E+02 -0.19441738259E+01  0.69411545416E+02  0.00000000000E+00 0. -1.
        -14    1    6    6    0    0  0.13395072336E+02  0.12121316001E+02  0.62093759051E+02  0.64668301180E+02  0.00000000000E+00 0.  1.
</event>
<event>
12    1  0.1039610E+000  0.1815776E+03  0.7818608E-02  0.1166643E+00
         21   -1    0    0  503  502  0.00000000000E+00  0.00000000000E+00  0.14647371877E+03  0.14647371877E+03  0.00000000000E+00 0. -1.
         21   -1    0    0  501  503 -0.00000000000E+00 -0.00000000000E+00 -0.58798985000E+03  0.58798985000E+03  0.00000000000E+00 0. -1.
          6    2    1    2  501    0  0.47714783100E+02 -0.22999704541E+02 -0.51033562951E+03  0.54167598282E+03  0.17367996050E+03 0.  0.
         24    2    3    3    0    0 -0.36558065312E+02 -0.28866047482E+02 -0.18945045667E+03  0.20982404127E+03  0.77232842282E+02 0.  0.
         -6    2    1    2    0  502 -0.47714783100E+02  0.22999704541E+02  0.68819498285E+02  0.19278758594E+03  0.17211985073E+03 0.  0.
        -24    2    5    5    0    0 -0.23354279889E+02  0.77129815932E+02  0.20043792547E+02  0.11581575638E+03  0.80728587947E+02 0.  0.
          5    1    3    3  501    0  0.84272848412E+02  0.58663429411E+01 -0.32088517284E+03  0.33185194155E+03  0.47000000000E+01 0. -1.
        -13    1    4    4    0    0  0.88393133235E+01 -0.18291856151E+02 -0.69602710222E+01  0.21474888455E+02  0.00000000000E+00 0.  1.
         14    1    4    4    0    0 -0.45397378635E+02 -0.10574191331E+02 -0.18249018565E+03  0.18834915282E+03  0.00000000000E+00 0. -1.
         -5    1    5    5    0  502 -0.24360503211E+02 -0.54130111391E+02  0.48775705738E+02  0.76971829562E+02  0.47000000000E+01 0.  1.
         13    1    6    6    0    0  0.25913956893E+02  0.53641662295E+01 -0.10935653161E+00  0.26463548516E+02  0.00000000000E+00 0. -1.
        -14    1    6    6    0    0 -0.49268236782E+02  0.71765649702E+02  0.20153149078E+02  0.89352207866E+02  0.00000000000E+00 0.  1.
</event>
<event>
12    1  0.1039610E+000  0.3885612E+03  0.7818608E-02  0.1048537E+00
         21   -1    0    0  501  502  0.00000000000E+00  0.00000000000E+00  0.29308747469E+03  0.29308747469E+03  0.00000000000E+00 0.  1.
         21   -1    0    0  502  503 -0.00000000000E+00 -0.00000000000E+00 -0.53982052953E+03  0.53982052953E+03  0.00000000000E+00 0.  1.
         -6    2    1    2    0  503 -0.20323676821E+03  0.27266497350E+03 -0.22848729264E+03  0.44391861325E+03  0.17089739777E+03 0.  0.
        -24    2    3    3    0    0 -0.20193132353E+03  0.18668580565E+03 -0.13396510707E+03  0.31604893328E+03  0.79450795224E+02 0.  0.
          6    2    1    2  501    0  0.20323676821E+03 -0.27266497350E+03 -0.18245762207E+02  0.38898939097E+03  0.18795868356E+03 0.  0.
         24    2    5    5    0    0  0.15552536485E+03 -0.13767353235E+03 -0.76058995987E+02  0.23451114916E+03  0.77899727781E+02 0.  0.
          5    1    5    5  501    0  0.47711403358E+02 -0.13499144114E+03  0.57813233780E+02  0.15447824181E+03  0.47000000000E+01 0. -1.
        -13    1    6    6    0    0  0.22673451107E+02 -0.31350413049E+02  0.15027337465E+02  0.41506079733E+02  0.00000000000E+00 0.  1.
         14    1    6    6    0    0  0.13285191374E+03 -0.10632311931E+03 -0.91086333452E+02  0.19300506943E+03  0.00000000000E+00 0. -1.
         -5    1    3    3    0  503 -0.13054446802E+01  0.85979167849E+02 -0.94522185572E+02  0.12786967997E+03  0.47000000000E+01 0.  1.
         11    1    4    4    0    0 -0.18523854891E+03  0.18997403004E+03 -0.13723275390E+03  0.29872442290E+03  0.00000000000E+00 0. -1.
        -12    1    4    4    0    0 -0.16692774614E+02 -0.32882243908E+01  0.32676468362E+01  0.17324510377E+02  0.00000000000E+00 0.  1.
</event>
<event>
12    1  0.1039610E+000  0.1769166E+03  0.7818608E-02  0.1173827E+00
         21   -1    0    0  503  502  0.00000000000E+00  0.00000000000E+00  0.21284278912E+03  0.21284278912E+03  0.00000000000E+00 0.  1.
         21   -1    0    0  501  503 -0.00000000000E+00 -0.00000000000E+00 -0.14164565234E+03  0.14164565234E+03  0.00000000000E+00 0.  1.
          6    2    1    2  501    0 -0.34886210899E+02  0.38422142367E+01  0.67149076274E+02  0.18923127540E+03  0.17340030803E+03 0.  0.
         24    2    3    3    0    0  0.11450591935E+02 -0.39719656680E+02  0.85359801987E+02  0.12291041574E+03  0.78178688403E+02 0.  0.
         -6    2    1    2    0  502  0.34886210899E+02 -0.38422142367E+01  0.40480605096E+01  0.16525716606E+03  0.16143646992E+03 0.  0.
        -24    2    5    5    0    0  0.36814287884E+01  0.28957106109E+02 -0.46355819776E+02  0.97344170330E+02  0.80467127189E+02 0.  0.
          5    1    3    3  501    0 -0.46336802834E+02  0.43561870917E+02 -0.18210725713E+02  0.66320859658E+02  0.47000000000E+01 0. -1.
        -13    1    4    4    0    0  0.29608298632E+02 -0.37652766411E+02  0.14966286842E+02  0.50183382789E+02  0.00000000000E+00 0.  1.
         14    1    4    4    0    0 -0.18157706697E+02 -0.20668902698E+01  0.70393515145E+02  0.72727032955E+02  0.00000000000E+00 0. -1.
         -5    1    5    5    0  502  0.31204782111E+02 -0.32799320346E+02  0.50403880286E+02  0.67912995735E+02  0.47000000000E+01 0.  1.
         13    1    6    6    0    0 -0.14877557899E+02 -0.24234673937E+02 -0.93246548815E+01  0.29926749549E+02  0.00000000000E+00 0. -1.
        -14    1    6    6    0    0  0.18558986687E+02  0.53191780047E+02 -0.37031164895E+02  0.67417420782E+02  0.00000000000E+00 0.  1.
</event>
<event>
12    1  0.1039610E+000  0.1985256E+03  0.7818608E-02  0.1151134E+00
         21   -1    0    0  503  502  0.00000000000E+00  0.00000000000E+00  0.96695920195E+02  0.96695920195E+02  0.00000000000E+00 0.  1.
         21   -1    0    0  501  503 -0.00000000000E+00 -0.00000000000E+00 -0.40623978464E+03  0.40623978464E+03  0.00000000000E+00 0.  1.
          6    2    1    2  501    0 -0.53974851909E+02  0.77824386067E+02 -0.15769515687E+03  0.25353537931E+03  0.17447781050E+03 0.  0.
         24    2    3    3    0    0 -0.85073325258E+02  0.20931378429E+02 -0.51772446835E+02  0.12925489064E+03  0.79692203070E+02 0.  0.
         -6    2    1    2    0  502  0.53974851909E+02 -0.77824386067E+02 -0.15184870757E+03  0.24940032552E+03  0.17370254078E+03 0.  0.
        -24    2    5    5    0    0 -0.29985106361E+02 -0.66615377863E+02 -0.11122023274E+03  0.15533822144E+03  0.80145540719E+02 0.  0.
          5    1    3    3  501    0  0.31098473349E+02  0.56893007638E+02 -0.10592271004E+03  0.12428048867E+03  0.47000000000E+01 0. -1.
        -13    1    4    4    0    0 -0.74014051901E+02  0.47422297409E+02 -0.48410317294E+02  0.10035194563E+03  0.00000000000E+00 0.  1.
         14    1    4    4    0    0 -0.11059273357E+02 -0.26490918980E+02 -0.33621295409E+01  0.28902945016E+02  0.00000000000E+00 0. -1.
         -5    1    5    5    0  502  0.83959958270E+02 -0.11209008204E+02 -0.40628474831E+02  0.94062104084E+02  0.47000000000E+01 0.  1.
         13    1    6    6    0    0 -0.11237544910E+02 -0.25137521409E+02  0.72087808725E+01  0.28463027243E+02  0.00000000000E+00 0. -1.
        -14    1    6    6    0    0 -0.18747561451E+02 -0.41477856454E+02 -0.11842901362E+03  0.12687519420E+03  0.00000000000E+00 0.  1.
</event>
<event>
12    1  0.1039610E+000  0.2370111E+03  0.7818608E-02  0.1121871E+00
         21   -1    0    0  501  502  0.00000000000E+00  0.00000000000E+00  0.55658491515E+03  0.55658491515E+03  0.00000000000E+00 0. -1.
         21   -1    0    0  502  503 -0.00000000000E+00 -0.00000000000E+00 -0.14341389465E+03  0.14341389465E+03  0.00000000000E+00 0. -1.
         -6    2    1    2    0  503 -0.52697400746E+02  0.15398421632E+03  0.39735936311E+03  0.46246083270E+03  0.17171896635E+03 0.  0.
        -24    2    3    3    0    0 -0.32073153861E+01  0.10124943280E+02  0.10449708742E+03  0.13240756198E+03  0.80618359208E+02 0.  0.
          6    2    1    2  501    0  0.52697400746E+02 -0.15398421632E+03  0.15811657383E+02  0.23753797710E+03  0.17229662543E+03 0.  0.
         24    2    5    5    0    0  0.11121537595E+02 -0.17390097594E+03  0.11981244214E+02  0.19104075379E+03  0.77380755773E+02 0.  0.
          5    1    5    5  501    0  0.41575863151E+02  0.19916759619E+02  0.38304131690E+01  0.46497223310E+02  0.47000000000E+01 0. -1.
        -13    1    6    6    0    0  0.41706676819E+02 -0.11424324785E+03 -0.55525357275E+01  0.12174480368E+03  0.00000000000E+00 0.  1.
         14    1    6    6    0    0 -0.30585139224E+02 -0.59657728093E+02  0.17533779941E+02  0.69295950109E+02  0.00000000000E+00 0. -1.
         -5    1    3    3    0  503 -0.49490085360E+02  0.14385927304E+03  0.29286227570E+03  0.33005327072E+03  0.47000000000E+01 0.  1.
         13    1    4    4    0    0  0.74920909020E+01  0.44555606628E+02  0.61006821681E+02  0.75915517516E+02  0.00000000000E+00 0. -1.
        -14    1    4    4    0    0 -0.10699406288E+02 -0.34430663348E+02  0.43490265737E+02  0.56492044461E+02  0.00000000000E+00 0.  1.
</event>
<event>
12    1  0.1039610E+000  0.3072097E+03  0.7818608E-02  0.1081883E+00
         21   -1    0    0  501  502  0.00000000000E+00  0.00000000000E+00  0.13307617681E+03  0.13307617681E+03  0.00000000000E+00 0.  1.
         21   -1    0    0  502  503 -0.00000000000E+00 -0.00000000000E+00 -0.86539167634E+03  0.86539167634E+03  0.00000000000E+00 0.  1.
         -6    2    1    2    0  503 -0.14388140216E+03 -0.20985822547E+03 -0.15237545951E+03  0.34292286333E+03  0.17214957697E+03 0.  0.
        -24    2    3    3    0    0 -0.20826235465E+02 -0.14609216183E+03 -0.71293675925E+02  0.18228342063E+03  0.79798529921E+02 0.  0.
          6    2    1    2  501    0  0.14388140216E+03  0.20985822547E+03 -0.57994004001E+03  0.65554498981E+03  0.16931169769E+03 0.  0.
         24    2    5    5    0    0  0.16813078881E+03  0.20629948773E+03 -0.50285755357E+03  0.57452340575E+03  0.79899835985E+02 0.  0.
          5    1    5    5  501    0 -0.24249386651E+02  0.35587377352E+01 -0.77082486445E+02  0.81021584061E+02  0.47000000000E+01 0. -1.
        -13    1    6    6    0    0  0.12409920339E+03  0.14524027026E+03 -0.42633405415E+03  0.46717884597E+03  0.00000000000E+00 0.  1.
         14    1    6    6    0    0  0.44031585423E+02  0.61059217467E+02 -0.76523499415E+02  0.10734455978E+03  0.00000000000E+00 0. -1.
         -5    1    3    3    0  503 -0.12305516670E+03 -0.63766063641E+02 -0.81081783590E+02  0.16063944271E+03  0.47000000000E+01 0.  1.
         13    1    4    4    0    0  0.13388023016E+02 -0.20472947406E+01 -0.22749058425E+02  0.26475464779E+02  0.00000000000E+00 0. -1.
        -14    1    4    4    0    0 -0.34214258481E+02 -0.14404486709E+03 -0.48544617500E+02  0.15580795585E+03  0.00000000000E+00 0.  1.
</event>
<event>
12    1  0.1039610E+000  0.2877494E+03  0.7818608E-02  0.1093538E+00
         21   -1    0    0  503  502  0.00000000000E+00  0.00000000000E+00  0.48620194815E+03  0.48620194815E+03  0.00000000000E+00 0. -1.
         21   -1    0    0  501  503 -0.00000000000E+00 -0.00000000000E+00 -0.18785198383E+03  0.18785198383E+03  0.00000000000E+00 0. -1.
          6    2    1    2  501    0 -0.21200238270E+03  0.17452290023E+02  0.27840055945E+03  0.40038305386E+03  0.19377854787E+03 0.  0.
         24    2    3    3    0    0 -0.18473922314E+03  0.78795637052E+02  0.20932273454E+03  0.30394591377E+03  0.90718125620E+02 0.  0.
         -6    2    1    2    0  502  0.21200238270E+03 -0.17452290023E+02  0.19949404861E+02  0.27367087812E+03  0.17102098726E+03 0.  0.
        -24    2    5    5    0    0  0.67383012228E+02  0.22011589265E+02 -0.36044510913E+02  0.11357850264E+03  0.81091855923E+02 0.  0.
          5    1    3    3  501    0 -0.27263159555E+02 -0.61343347029E+02  0.69077824917E+02  0.96437140090E+02  0.47000000000E+01 0. -1.
        -11    1    4    4    0    0 -0.15210683154E+03  0.51235506314E+02  0.10655176609E+03  0.19265213252E+03  0.00000000000E+00 0.  1.
         12    1    4    4    0    0 -0.32632391601E+02  0.27560130738E+02  0.10277096845E+03  0.11129378125E+03  0.00000000000E+00 0. -1.
         -5    1    5    5    0  502  0.14461937047E+03 -0.39463879288E+02  0.55993915774E+02  0.16009237548E+03  0.47000000000E+01 0.  1.
         11    1    6    6    0    0  0.41817210214E+02  0.48606972682E+02 -0.32228251132E+01  0.64200494275E+02  0.00000000000E+00 0. -1.
        -12    1    6    6    0    0  0.25565802015E+02 -0.26595383418E+02 -0.32821685800E+02  0.49378008369E+02  0.00000000000E+00 0.  1.
</event>
<event>
12    1  0.1039610E+000  0.1955188E+03  0.7818608E-02  0.1153623E+00
         21   -1    0    0  503  502  0.00000000000E+00  0.00000000000E+00  0.80978010276E+02  0.80978010276E+02  0.00000000000E+00 0. -1.
         21   -1    0    0  501  503 -0.00000000000E+00 -0.00000000000E+00 -0.47482166856E+03  0.47482166856E+03  0.00000000000E+00 0. -1.
          6    2    1    2  501    0  0.92480648060E+02 -0.10003712300E+02 -0.17376196600E+03  0.26141294380E+03  0.17172874491E+03 0.  0.
         24    2    3    3    0    0  0.38866913263E+02 -0.51990656251E+02 -0.39172436716E+02  0.11050314486E+03  0.80391541481E+02 0.  0.
         -6    2    1    2    0  502 -0.92480648060E+02  0.10003712300E+02 -0.22008169228E+03  0.29438673504E+03  0.17197341063E+03 0.  0.
        -24    2    5    5    0    0 -0.11941024032E+03 -0.87014645038E+01 -0.12764280262E+03  0.19619241290E+03  0.88680645243E+02 0.  0.
          5    1    3    3  501    0  0.53613734797E+02  0.41986943951E+02 -0.13458952929E+03  0.15090979894E+03  0.47000000000E+01 0. -1.
        -11    1    4    4    0    0  0.21707012023E+02  0.97015193785E+01  0.13718293138E+02  0.27450053112E+02  0.00000000000E+00 0.  1.
         12    1    4    4    0    0  0.17159901240E+02 -0.61692175629E+02 -0.52890729854E+02  0.83053091748E+02  0.00000000000E+00 0. -1.
         -5    1    5    5    0  502  0.26929592262E+02  0.18705176804E+02 -0.92438889661E+02  0.98194322140E+02  0.47000000000E+01 0.  1.
         11    1    6    6    0    0 -0.50456172190E+02 -0.32268611176E+02 -0.14514237656E+02  0.61625901000E+02  0.00000000000E+00 0. -1.
        -12    1    6    6    0    0 -0.68954068132E+02  0.23567146673E+02 -0.11312856496E+03  0.13456651190E+03  0.00000000000E+00 0.  1.
</event>
<event>
12    1  0.1039610E+000  0.2922695E+03  0.7818608E-02  0.1089186E+00
         21   -1    0    0  501  502  0.00000000000E+00  0.00000000000E+00  0.13721399904E+03  0.13721399904E+03  0.00000000000E+00 0. -1.
         21   -1    0    0  502  503 -0.00000000000E+00 -0.00000000000E+00 -0.62923428324E+03  0.62923428324E+03  0.00000000000E+00 0. -1.
         -6    2    1    2    0  503 -0.10750684291E+03  0.21027817847E+03 -0.20577167611E+03  0.35744015615E+03  0.17218260344E+03 0.  0.
        -24    2    3    3    0    0 -0.13837848553E+03  0.13254446972E+03 -0.15975519454E+03  0.26186194540E+03  0.79582124610E+02 0.  0.
          6    2    1    2  501    0  0.10750684291E+03 -0.21027817847E+03 -0.28624860808E+03  0.40900812613E+03  0.17197310254E+03 0.  0.
         24    2    5    5    0    0  0.13102569281E+03 -0.13938992728E+03 -0.25443685448E+03  0.32769171866E+03  0.77759022345E+02 0.  0.
          5    1    5    5  501    0 -0.23518849896E+02 -0.70888251186E+02 -0.31811753601E+02  0.81316407470E+02  0.47000000000E+01 0. -1.
        -11    1    6    6    0    0  0.11848640121E+03 -0.84876160382E+02 -0.14957829054E+03  0.20884600756E+03  0.00000000000E+00 0.  1.
         12    1    6    6    0    0  0.12539291601E+02 -0.54513766901E+02 -0.10485856393E+03  0.11884571110E+03  0.00000000000E+00 0. -1.
         -5    1    3    3    0  503  0.30871642615E+02  0.77733708752E+02 -0.46016481576E+02  0.95578210753E+02  0.47000000000E+01 0.  1.
         13    1    4    4    0    0 -0.40539847019E+02  0.35891745139E+02 -0.43179471314E+01  0.54317043668E+02  0.00000000000E+00 0. -1.
        -14    1    4    4    0    0 -0.97838638508E+02  0.96652724579E+02 -0.15543724741E+03  0.20754490173E+03  0.00000000000E+00 0.  1.
</event>
<event>
12    1  0.1039610E+000  0.3735782E+03  0.7818608E-02  0.1053382E+00
         21   -1    0    0  501  502  0.00000000000E+00  0.00000000000E+00  0.10614307974E+04  0.10614307974E+04  0.00000000000E+00 0. -1.
         21   -1    0    0  502  503 -0.00000000000E+00 -0.00000000000E+00 -0.13560479817E+03  0.13560479817E+03  0.00000000000E+00 0. -1.
         -6    2    1    2    0  503  0.45263334143E+00  0.33101284464E+03  0.56923911591E+03  0.68059112722E+03  0.17205058321E+03 0.  0.
        -24    2    3    3    0    0 -0.49167504098E+02  0.19907448820E+03  0.42978188446E+03  0.48224724064E+03  0.76169794469E+02 0.  0.
          6    2    1    2  501    0 -0.45263334143E+00 -0.33101284464E+03  0.35658688337E+03  0.51644446840E+03  0.17317902689E+03 0.  0.
         24    2    5    5    0    0 -0.48030292328E+02 -0.20432821830E+03  0.15159298760E+03  0.27076741312E+03  0.79231485825E+02 0.  0.
          5    1    5    5  501    0  0.47577658987E+02 -0.12668462634E+03  0.20499389577E+03  0.24567705527E+03  0.47000000000E+01 0. -1.
        -13    1    6    6    0    0 -0.37954356073E+02 -0.53618487208E+02  0.15595411401E+02  0.67518087740E+02  0.00000000000E+00 0.  1.
         14    1    6    6    0    0 -0.10075936256E+02 -0.15070973109E+03  0.13599757620E+03  0.20324932538E+03  0.00000000000E+00 0. -1.
         -5    1    3    3    0  503  0.49620137439E+02  0.13193835644E+03  0.13945723145E+03  0.19834388658E+03  0.47000000000E+01 0.  1.
         13    1    4    4    0    0  0.93284104177E+01  0.18142183101E+02  0.13144494925E+02  0.24267999412E+02  0.00000000000E+00 0. -1.
        -14    1    4    4    0    0 -0.58495914516E+02  0.18093230510E+03  0.41663738953E+03  0.45797924123E+03  0.00000000000E+00 0.  1.
</event>
<event>
12    1  0.1039610E+000  0.1808657E+03  0.7818608E-02  0.1167032E+00
         21   -1    0    0  501  502  0.00000000000E+00  0.00000000000E+00  0.10746149692E+03  0.10746149692E+03  0.00000000000E+00 0.  1.
         21   -1    0    0  502  503 -0.00000000000E+00 -0.00000000000E+00 -0.67839278414E+03  0.67839278414E+03  0.00000000000E+00 0.  1.
         -6    2    1    2    0  503 -0.56011825084E+02 -0.12512681594E+02  0.65422061634E+01  0.18071955388E+03  0.17123920387E+03 0.  0.
        -24    2    3    3    0    0  0.59891622032E+01 -0.89454388239E+01 -0.62522922231E+02  0.87719932345E+02  0.60578707370E+02 0.  0.
          6    2    1    2  501    0  0.56011825084E+02  0.12512681594E+02 -0.57747349338E+03  0.60513472718E+03  0.17151825187E+03 0.  0.
         24    2    5    5    0    0  0.10259596836E+03  0.20561451298E+02 -0.45950814641E+03  0.47796248891E+03  0.79697541915E+02 0.  0.
          5    1    5    5  501    0 -0.46584143276E+02 -0.80487697044E+01 -0.11796534698E+03  0.12717223827E+03  0.47000000000E+01 0. -1.
        -13    1    6    6    0    0  0.11159128496E+03  0.16396415548E+02 -0.34375766635E+03  0.36178832278E+03  0.00000000000E+00 0.  1.
         14    1    6    6    0    0 -0.89953166027E+01  0.41650357509E+01 -0.11575048005E+03  0.11617416613E+03  0.00000000000E+00 0. -1.
         -5    1    3    3    0  503 -0.62000987288E+02 -0.35672427702E+01  0.69065128395E+02  0.92999621536E+02  0.47000000000E+01 0.  1.
         13    1    4    4    0    0  0.21423191531E+02 -0.26028354701E+02 -0.19553075257E+02  0.38971157743E+02  0.00000000000E+00 0. -1.
        -14    1    4    4    0    0 -0.15434029328E+02  0.17082915877E+02 -0.42969846974E+02  0.48748774602E+02  0.00000000000E+00 0.  1.
</event>
<event>
12    1  0.1039610E+000  0.1722677E+03  0.7818608E-02  0.1175562E+00
         21   -1    0    0  503  502  0.00000000000E+00  0.00000000000E+00  0.15025074916E+04  0.15025074916E+04  0.00000000000E+00 0. -1.
         21   -1    0    0  501  503 -0.00000000000E+00 -0.00000000000E+00 -0.19889489516E+02  0.19889489516E+02  0.00000000000E+00 0. -1.
          6    2    1    2  501    0 -0.12885758976E+02 -0.89844952189E+01  0.67256752992E+03  0.69427894179E+03  0.17155000080E+03 0.  0.
         24    2    3    3    0    0  0.27859129738E+02 -0.18391349016E+02  0.62666224883E+03  0.63200519382E+03  0.74904059140E+02 0.  0.
         -6    2    1    2    0  502  0.12885758976E+02  0.89844952189E+01  0.81005047221E+03  0.82811803937E+03  0.17132120611E+03 0.  0.
        -24    2    5    5    0    0 -0.50019315562E+02 -0.23585260404E+02  0.55154622296E+03  0.56004272484E+03  0.79915087050E+02 0.  0.
          5    1    3    3  501    0 -0.40744888714E+02  0.94068537972E+01  0.45905281086E+02  0.62273747970E+02  0.47000000000E+01 0. -1.
        -13    1    4    4    0    0  0.12202758218E+01 -0.19688688990E+02  0.38692800374E+02  0.43431167933E+02  0.00000000000E+00 0.  1.
         14    1    4    4    0    0  0.26638853916E+02  0.12973399736E+01  0.58796944846E+03  0.58857402589E+03  0.00000000000E+00 0. -1.
         -5    1    5    5    0  502  0.62905074539E+02  0.32569755623E+02  0.25850424925E+03  0.26807531454E+03  0.47000000000E+01 0.  1.
         13    1    6    6    0    0  0.92128070189E+01 -0.13945522894E+02  0.33264115473E+03  0.33306079211E+03  0.00000000000E+00 0. -1.
        -14    1    6    6    0    0 -0.59232122581E+02 -0.96397375103E+01  0.21890506823E+03  0.22698193272E+03  0.00000000000E+00 0.  1.
</event>
<event>
12    1  0.1039610E+000  0.1868495E+03  0.7818608E-02  0.1161357E+00
         21   -1    0    0  501  502  0.00000000000E+00  0.00000000000E+00  0.18199926178E+03  0.18199926178E+03  0.00000000000E+00 0.  1.
         21   -1    0    0  502  503 -0.00000000000E+00 -0.00000000000E+00 -0.21330501800E+03  0.21330501800E+03  0.00000000000E+00 0.  1.
         -6    2    1    2    0  503  0.57683824300E+02 -0.44579920260E+02  0.47209774717E+02  0.19272127619E+03  0.17204050276E+03 0.  0.
        -24    2    3    3    0    0  0.21625286797E+02  0.41725322801E+02  0.15843349441E+02  0.93955109201E+02  0.79799092925E+02 0.  0.
          6    2    1    2  501    0 -0.57683824300E+02  0.44579920260E+02 -0.78515530944E+02  0.20258300359E+03  0.17193135802E+03 0.  0.
         24    2    5    5    0    0  0.17421256756E+02 -0.21729336198E+02 -0.21710165434E+02  0.87315357469E+02  0.79855971150E+02 0.  0.
          5    1    5    5  501    0 -0.75105081056E+02  0.66309256458E+02 -0.56805365510E+02  0.11526764613E+03  0.47000000000E+01 0. -1.
        -11    1    6    6    0    0 -0.25066548622E+02 -0.19262692539E+02 -0.30422047507E+02  0.43873501777E+02  0.00000000000E+00 0.  1.
         12    1    6    6    0    0  0.42487805378E+02 -0.24666436596E+01  0.87118820730E+01  0.43441855692E+02  0.00000000000E+00 0. -1.
         -5    1    3    3    0  503  0.36058537504E+02 -0.86305243061E+02  0.31366425277E+02  0.98766166987E+02  0.47000000000E+01 0.  1.
         11    1    4    4    0    0 -0.61342988406E+01  0.39987029162E+02 -0.22727387539E+02  0.46401791644E+02  0.00000000000E+00 0. -1.
        -12    1    4    4    0    0  0.27759585637E+02  0.17382936390E+01  0.38570736980E+02  0.47553317557E+02  0.00000000000E+00 0.  1.
</event>
<event>
12    1  0.1039610E+000  0.2263682E+03  0.7818608E-02  0.1129261E+00
         21   -1    0    0  503  502  0.00000000000E+00  0.00000000000E+00  0.32293813267E+03  0.32293813267E+03  0.00000000000E+00 0.  1.
         21   -1    0    0  501  503 -0.00000000000E+00 -0.00000000000E+00 -0.34096219082E+03  0.34096219082E+03  0.00000000000E+00 0. -1.
          6    2    1    2  501    0  0.18822115367E+02 -0.14592443047E+03  0.23380102787E+03  0.32543123181E+03  0.17203009784E+03 0.  0.
         24    2    3    3    0    0 -0.64444362844E+01 -0.29875848800E+02  0.32888687752E+02  0.91992738077E+02  0.80292596024E+02 0.  0.
         -6    2    1    2    0  502 -0.18822115367E+02  0.14592443047E+03 -0.25182508602E+03  0.33846909169E+03  0.17174760738E+03 0.  0.
        -24    2    5    5    0    0 -0.43506404008E+02  0.12497804759E+02 -0.10061823137E+03  0.13525102791E+03  0.78229212899E+02 0.  0.
          5    1    3    3  501    0  0.25266551652E+02 -0.11604858167E+03  0.20091234012E+03  0.23343849373E+03  0.47000000000E+01 0. -1.
        -11    1    4    4    0    0 -0.37880593512E+02  0.39609149786E+01  0.23826874404E+02  0.44926029828E+02  0.00000000000E+00 0.  1.
         12    1    4    4    0    0  0.31436157227E+02 -0.33836763779E+02  0.90618133478E+01  0.47066708249E+02  0.00000000000E+00 0. -1.
         -5    1    5    5    0  502  0.24684288641E+02  0.13342662572E+03 -0.15120685465E+03  0.20321806378E+03  0.47000000000E+01 0.  1.
         13    1    6    6    0    0 -0.26170616025E+02  0.48794601400E+00 -0.10933984176E+03  0.11242926768E+03  0.00000000000E+00 0. -1.
        -14    1    6    6    0    0 -0.17335787984E+02  0.12009858745E+02  0.87216103866E+01  0.22821760226E+02  0.00000000000E+00 0.  1.
</event>
<event>
12    1  0.1039610E+000  0.1804364E+03  0.7818608E-02  0.1168089E+00
         21   -1    0    0  503  502  0.00000000000E+00  0.00000000000E+00  0.51863923575E+03  0.51863923575E+03  0.00000000000E+00 0. -1.
         21   -1    0    0  501  503 -0.00000000000E+00 -0.00000000000E+00 -0.23875276932E+03  0.23875276932E+03  0.00000000000E+00 0. -1.
          6    2    1    2  501    0  0.46856364987E+01  0.50279847794E+02  0.46569813051E+03  0.49838760356E+03  0.17019235099E+03 0.  0.
         24    2    3    3    0    0  0.51187663667E+02  0.73820132188E+02  0.26227893591E+03  0.28834465021E+03  0.79264167522E+02 0.  0.
         -6    2    1    2    0  502 -0.46856364987E+01 -0.50279847794E+02 -0.18581166408E+03  0.25900440151E+03  0.17322611585E+03 0.  0.
        -24    2    5    5    0    0  0.24916118305E+02  0.23729573265E+02 -0.85645881176E+02  0.13090704652E+03  0.92830664472E+02 0.  0.
          5    1    3    3  501    0 -0.46502027168E+02 -0.23540284394E+02  0.20341919460E+03  0.21004295335E+03  0.47000000000E+01 0. -1.
        -11    1    4    4    0    0 -0.17853295290E+02  0.14996589278E+02  0.97526546793E+02  0.10027494788E+03  0.00000000000E+00 0.  1.
         12    1    4    4    0    0  0.69040958957E+02  0.58823542910E+02  0.16475238912E+03  0.18806970233E+03  0.00000000000E+00 0. -1.
         -5    1    5    5    0  502 -0.29601754804E+02 -0.74009421059E+02 -0.10016578290E+03  0.12809735500E+03  0.47000000000E+01 0.  1.
         11    1    6    6    0    0 -0.35563813072E+01  0.22281724419E+02  0.14474102453E+02  0.26807139588E+02  0.00000000000E+00 0. -1.
        -12    1    6    6    0    0  0.28472499612E+02  0.14478488454E+01 -0.10011998363E+03  0.10409990693E+03  0.00000000000E+00 0.  1.
</event>
<event>
12    1  0.1039610E+000  0.2322904E+03  0.7818608E-02  0.1125264E+00
         21   -1    0    0  501  502  0.00000000000E+00  0.00000000000E+00  0.54802535789E+02  0.54802535789E+02  0.00000000000E+00 0. -1.
         21   -1    0    0  502  503 -0.00000000000E+00 -0.00000000000E+00 -0.15717147225E+04  0.15717147225E+04  0.00000000000E+00 0. -1.
         -6    2    1    2    0  503  0.10025772614E+03 -0.11777614968E+03 -0.12591464038E+04  0.12803938768E+04  0.17330891613E+03 0.  0.
        -24    2    3    3    0    0  0.70642386227E+02 -0.74220389994E+02 -0.41309730362E+03  0.43269384583E+03  0.77945935996E+02 0.  0.
          6    2    1    2  501    0 -0.10025772614E+03  0.11777614968E+03 -0.25776578296E+03  0.34612338156E+03  0.17156737251E+03 0.  0.
         24    2    5    5    0    0 -0.73017368684E+02  0.15189029678E+03 -0.19571418847E+03  0.27010823514E+03  0.79070960128E+02 0.  0.
          5    1    5    5  501    0 -0.27240357460E+02 -0.34114147094E+02 -0.62051594490E+02  0.76015146420E+02  0.47000000000E+01 0. -1.
        -11    1    6    6    0    0 -0.42454557364E+02  0.64143673615E+02 -0.14527792345E+03  0.16438514333E+03  0.00000000000E+00 0.  1.
         12    1    6    6    0    0 -0.30562811320E+02  0.87746623162E+02 -0.50436265023E+02  0.10572309181E+03  0.00000000000E+00 0. -1.
         -5    1    3    3    0  503  0.29615339917E+02 -0.43555759689E+02 -0.84604910016E+03  0.84770003094E+03  0.47000000000E+01 0.  1.
         11    1    4    4    0    0  0.13767098318E+02 -0.15967748830E+02 -0.13838904354E+02  0.25219382873E+02  0.00000000000E+00 0. -1.
        -12    1    4    4    0    0  0.56875287908E+02 -0.58252641164E+02 -0.39925839927E+03  0.40747446296E+03  0.00000000000E+00 0.  1.
</event>
<event>
12    1  0.1039610E+000  0.1734024E+03  0.7818608E-02  0.1174571E+00
         21   -1    0    0  501  502  0.00000000000E+00  0.00000000000E+00  0.55735126909E+02  0.55735126909E+02  0.00000000000E+00 0.  1.
         21   -1    0    0  502  503 -0.00000000000E+00 -0.00000000000E+00 -0.57427027629E+03  0.57427027629E+03  0.00000000000E+00 0.  1.
         -6    2    1    2    0  503  0.13168651437E+02 -0.13165001808E+02 -0.17935221583E+03  0.24947068835E+03  0.17239975745E+03 0.  0.
        -24    2    3    3    0    0 -0.15449792250E+02 -0.26770896426E+02 -0.21400131944E+02  0.88302805412E+02  0.79900205384E+02 0.  0.
          6    2    1    2  501    0 -0.13168651437E+02  0.13165001808E+02 -0.33918293355E+03  0.38053471485E+03  0.17150765621E+03 0.  0.
         24    2    5    5    0    0 -0.38240330211E+02  0.67004564688E+02 -0.19328279351E+03  0.22293957383E+03  0.79949238705E+02 0.  0.
          5    1    5    5  501    0  0.25071678773E+02 -0.53839562880E+02 -0.14590014004E+03  0.15759514102E+03  0.47000000000E+01 0. -1.
        -11    1    6    6    0    0 -0.81500706970E+01  0.63785226905E+02 -0.66147262355E+02  0.92252041391E+02  0.00000000000E+00 0.  1.
         12    1    6    6    0    0 -0.30090259514E+02  0.32193377825E+01 -0.12713553115E+03  0.13068753244E+03  0.00000000000E+00 0. -1.
         -5    1    3    3    0  503  0.28618443687E+02  0.13605894618E+02 -0.15795208389E+03  0.16116788294E+03  0.47000000000E+01 0.  1.
         11    1    4    4    0    0  0.23513849531E+02 -0.25349272684E+02  0.12369741737E+02  0.36721890692E+02  0.00000000000E+00 0. -1.
        -12    1    4    4    0    0 -0.38963641781E+02 -0.14216237423E+01 -0.33769873682E+02  0.51580914720E+02  0.00000000000E+00 0.  1.
</event>
<event>
12    1  0.1039610E+000  0.2372377E+03  0.7818608E-02  0.1121675E+00
         21   -1    0    0  501  502  0.00000000000E+00  0.00000000000E+00  0.56344754525E+02  0.56344754525E+02  0.00000000000E+00 0. -1.
         21   -1    0    0  502  503 -0.00000000000E+00 -0.00000000000E+00 -0.10750596210E+04  0.10750596210E+04  0.00000000000E+00 0.  1.
         -6    2    1    2    0  503 -0.60469796500E+02  0.15203568199E+03 -0.66047319782E+03  0.70173143896E+03  0.17155384723E+03 0.  0.
        -24    2    3    3    0    0 -0.74351005321E+02  0.52291230052E+02 -0.23496662979E+03  0.26444483604E+03  0.80369829315E+02 0.  0.
          6    2    1    2  501    0  0.60469796500E+02 -0.15203568199E+03 -0.35824166865E+03  0.42967293656E+03  0.17178560582E+03 0.  0.
         24    2    5    5    0    0  0.70112391742E+02 -0.15215824086E+03 -0.37025848592E+03  0.41356428792E+03  0.76656350763E+02 0.  0.
          5    1    5    5  501    0 -0.96425952414E+01  0.12255887054E+00  0.12016817268E+02  0.16108648637E+02  0.47000000000E+01 0. -1.
        -11    1    6    6    0    0  0.22734711087E+02 -0.32286400048E+02 -0.17640250003E+03  0.18076814081E+03  0.00000000000E+00 0.  1.
         12    1    6    6    0    0  0.47377680655E+02 -0.11987184081E+03 -0.19385598590E+03  0.23279614712E+03  0.00000000000E+00 0. -1.
         -5    1    3    3    0  503  0.13881208820E+02  0.99744451939E+02 -0.42550656803E+03  0.43728660291E+03  0.47000000000E+01 0.  1.
         11    1    4    4    0    0 -0.99863413311E+01  0.53028316848E+02 -0.78523006169E+02  0.95276397385E+02  0.00000000000E+00 0. -1.
        -12    1    4    4    0    0 -0.64364663990E+02 -0.73708679526E+00 -0.15644362362E+03  0.16916843866E+03  0.00000000000E+00 0.  1.
</event>
<event>
12    1  0.1039610E+000  0.2203673E+03  0.7818608E-02  0.1133787E+00
         21   -1    0    0  501  502  0.00000000000E+00  0.00000000000E+00  0.10961155396E+04  0.10961155396E+04  0.00000000000E+00 0.  1.
         21   -1    0    0  502  503 -0.00000000000E+00 -0.00000000000E+00 -0.54172913353E+02  0.54172913353E+02  0.00000000000E+00 0.  1.
         -6    2    1    2    0  503 -0.85529994809E+02 -0.10747921662E+03  0.76974665452E+03  0.80066950382E+03  0.17232115416E+03 0.  0.
        -24    2    3    3    0    0 -0.11245534250E+03 -0.53214028959E+02  0.64743932072E+03  0.66410135657E+03  0.79843602398E+02 0.  0.
          6    2    1    2  501    0  0.85529994809E+02  0.10747921662E+03  0.27219597168E+03  0.34961894909E+03  0.17110114128E+03 0.  0.
         24    2    5    5    0    0  0.10132624204E+02  0.65653069195E+02  0.59733401526E+02  0.12027941081E+03  0.80536090289E+02 0.  0.
          5    1    5    5  501    0  0.75397370605E+02  0.41826147429E+02  0.21246257015E+03  0.22933953828E+03  0.47000000000E+01 0. -1.
        -13    1    6    6    0    0  0.15133150863E+02  0.84015427315E+02  0.48816512570E+02  0.98339494515E+02  0.00000000000E+00 0.  1.
         14    1    6    6    0    0 -0.50005266597E+01 -0.18362358120E+02  0.10916888956E+02  0.21939916296E+02  0.00000000000E+00 0. -1.
         -5    1    3    3    0  503  0.26925347696E+02 -0.54265187665E+02  0.12230733380E+03  0.13656814725E+03  0.47000000000E+01 0.  1.
         11    1    4    4    0    0 -0.11059592835E+01 -0.21604275446E+02  0.37638159980E+02  0.43411967822E+02  0.00000000000E+00 0. -1.
        -12    1    4    4    0    0 -0.11134938322E+03 -0.31609753513E+02  0.60980116074E+03  0.62068938875E+03  0.00000000000E+00 0.  1.
</event>
<event>
12    1  0.1039610E+000  0.1919912E+03  0.7818608E-02  0.1157058E+00
         21   -1    0    0  501  502  0.00000000000E+00  0.00000000000E+00  0.30912612850E+02  0.30912612850E+02  0.00000000000E+00 0.  1.
         21   -1    0    0  502  503 -0.00000000000E+00 -0.00000000000E+00 -0.12023073370E+04  0.12023073370E+04  0.00000000000E+00 0.  1.
         -6    2    1    2    0  503 -0.70035641647E+02  0.29619453151E+02 -0.66867803494E+03  0.69569456876E+03  0.17629042938E+03 0.  0.
        -24    2    3    3    0    0 -0.10970072498E+03  0.67884099358E+01 -0.38501198597E+03  0.40832182700E+03  0.80075923306E+02 0.  0.
          6    2    1    2  501    0  0.70035641647E+02 -0.29619453151E+02 -0.50271668925E+03  0.53752538112E+03  0.17443383444E+03 0.  0.
         24    2    5    5    0    0  0.71505951214E+02 -0.51101214492E+01 -0.15242627636E+03  0.18634404262E+03  0.79693902499E+02 0.  0.
          5    1    5    5  501    0 -0.14703095672E+01 -0.24509331702E+02 -0.35029041289E+03  0.35118133851E+03  0.47000000000E+01 0. -1.
        -13    1    6    6    0    0  0.59997910643E+02  0.25297966857E+02 -0.13397636419E+03  0.14896107736E+03  0.00000000000E+00 0.  1.
         14    1    6    6    0    0  0.11508040571E+02 -0.30408088307E+02 -0.18449912170E+02  0.37382965256E+02  0.00000000000E+00 0. -1.
         -5    1    3    3    0  503  0.39665083337E+02  0.22831043215E+02 -0.28366604897E+03  0.28737274176E+03  0.47000000000E+01 0.  1.
         11    1    4    4    0    0 -0.90567786911E+02  0.37217316820E+02 -0.24685283549E+03  0.26556350481E+03  0.00000000000E+00 0. -1.
        -12    1    4    4    0    0 -0.19132938072E+02 -0.30428906884E+02 -0.13815915049E+03  0.14275832220E+03  0.00000000000E+00 0.  1.
</event>
<event>
12    1  0.1039610E+000  0.1860640E+03  0.7818608E-02  0.1162501E+00
         21   -1    0    0  503  502  0.00000000000E+00  0.00000000000E+00  0.10141317235E+03  0.10141317235E+03  0.00000000000E+00 0.  1.
         21   -1    0    0  501  503 -0.00000000000E+00 -0.00000000000E+00 -0.36553005022E+03  0.36553005022E+03  0.00000000000E+00 0.  1.
          6    2    1    2  501    0 -0.14305173268E+02 -0.66224760038E+02 -0.68503285728E+02  0.19827384494E+03  0.17329010533E+03 0.  0.
         24    2    3    3    0    0  0.28570977899E+01  0.20694967433E+02 -0.62580239900E+02  0.10935390880E+03  0.87209783043E+02 0.  0.
         -6    2    1    2    0  502  0.14305173268E+02  0.66224760038E+02 -0.19561359214E+03  0.26866937764E+03  0.17125478161E+03 0.  0.
        -24    2    5    5    0    0  0.11123679815E+02  0.17093890445E+01 -0.18723066996E+03  0.20336456633E+03  0.78582216847E+02 0.  0.
          5    1    3    3  501    0 -0.17162271058E+02 -0.86919727470E+02 -0.59230458283E+01  0.88919936141E+02  0.47000000000E+01 0. -1.
        -13    1    4    4    0    0 -0.39043920487E+02 -0.64847984931E+01 -0.24497655423E+02  0.46546916759E+02  0.00000000000E+00 0.  1.
         14    1    4    4    0    0  0.41901018277E+02  0.27179765926E+02 -0.38082584477E+02  0.62806992038E+02  0.00000000000E+00 0. -1.
         -5    1    5    5    0  502  0.31814934535E+01  0.64515370993E+02 -0.83829221845E+01  0.65304811303E+02  0.47000000000E+01 0.  1.
         11    1    6    6    0    0 -0.13877403046E+02  0.34514413745E+02 -0.10446761397E+03  0.11089323442E+03  0.00000000000E+00 0. -1.
        -12    1    6    6    0    0  0.25001082861E+02 -0.32805024701E+02 -0.82763055984E+02  0.92471331913E+02  0.00000000000E+00 0.  1.
</event>
<event>
12    1  0.1039610E+000  0.1963694E+03  0.7818608E-02  0.1152943E+00
         21   -1    0    0  501  502  0.00000000000E+00  0.00000000000E+00  0.10141026998E+04  0.10141026998E+04  0.00000000000E+00 0.  1.
         21   -1    0    0  502  503 -0.00000000000E+00 -0.00000000000E+00 -0.60521550931E+02  0.60521550931E+02  0.00000000000E+00 0.  1.
         -6    2    1    2    0  503  0.11854778355E+02  0.92835032825E+02  0.14815301659E+03  0.24560348079E+03  0.17208391663E+03 0.  0.
        -24    2    3    3    0    0 -0.47282812168E+02  0.85623893180E+02  0.13461978078E+03  0.18432955796E+03  0.79295555681E+02 0.  0.
          6    2    1    2  501    0 -0.11854778355E+02 -0.92835032825E+02  0.80542813227E+03  0.82902076993E+03  0.17263279421E+03 0.  0.
         24    2    5    5    0    0  0.39847567130E+02 -0.96142811689E+02  0.42529466956E+03  0.44534432630E+03  0.81392531360E+02 0.  0.
          5    1    5    5  501    0 -0.51702345485E+02  0.33077788643E+01  0.38013346271E+03  0.38367644363E+03  0.47000000000E+01 0. -1.
        -13    1    6    6    0    0  0.28079871822E+02 -0.47732098812E+02  0.35436559953E+03  0.35866671240E+03  0.00000000000E+00 0.  1.
         14    1    6    6    0    0  0.11767695308E+02 -0.48410712877E+02  0.70929070036E+02  0.86677613894E+02  0.00000000000E+00 0. -1.
         -5    1    3    3    0  503  0.59137590523E+02  0.72111396448E+01  0.13533235813E+02  0.61273922834E+02  0.47000000000E+01 0.  1.
         13    1    4    4    0    0 -0.52156126217E+02  0.14929255599E+02  0.68788383851E+02  0.87606997024E+02  0.00000000000E+00 0. -1.
        -14    1    4    4    0    0  0.48733140487E+01  0.70694637581E+02  0.65831396930E+02  0.96722560937E+02  0.00000000000E+00 0.  1.
</event>
<event>
12    1  0.1039610E+000  0.2165750E+03  0.7818608E-02  0.1137068E+00
         21   -1    0    0  501  502  0.00000000000E+00  0.00000000000E+00  0.52556599387E+03  0.52556599387E+03  0.00000000000E+00 0.  1.
         21   -1    0    0  502  503 -0.00000000000E+00 -0.00000000000E+00 -0.21095205897E+03  0.21095205897E+03  0.00000000000E+00 0.  1.
         -6    2    1    2    0  503  0.95740969171E+02  0.81853268025E+02  0.43898843894E+03  0.48950545392E+03  0.17617732326E+03 0.  0.
        -24    2    3    3    0    0  0.59158891127E+02  0.12513967235E+03  0.33410192543E+03  0.37019396265E+03  0.79118653990E+02 0.  0.
          6    2    1    2  501    0 -0.95740969171E+02 -0.81853268025E+02 -0.12437450404E+03  0.24701259892E+03  0.17227860026E+03 0.  0.
         24    2    5    5    0    0 -0.49820053539E+02 -0.83402111324E+02 -0.14863177609E+03  0.19484331049E+03  0.80215714634E+02 0.  0.
          5    1    5    5  501    0 -0.45920915632E+02  0.15488432990E+01  0.24257272046E+02  0.52169288429E+02  0.47000000000E+01 0. -1.
        -13    1    6    6    0    0 -0.13748601055E+02  0.14231901426E+02 -0.38632636287E+02  0.43405663635E+02  0.00000000000E+00 0.  1.
         14    1    6    6    0    0 -0.36071452484E+02 -0.97634012749E+02 -0.10999913980E+03  0.15143764686E+03  0.00000000000E+00 0. -1.
         -5    1    3    3    0  503  0.36582078044E+02 -0.43286404329E+02  0.10488651351E+03  0.11931149127E+03  0.47000000000E+01 0.  1.
         11    1    4    4    0    0  0.67155746101E+02  0.12127386084E+03  0.25200033948E+03  0.28761330751E+03  0.00000000000E+00 0. -1.
        -12    1    4    4    0    0 -0.79968549738E+01  0.38658115152E+01  0.82101585947E+02  0.82580655139E+02  0.00000000000E+00 0.  1.
</event>
<event>
12    1  0.1039610E+000  0.2523784E+03  0.7818608E-02  0.1112298E+00
         21   -1    0    0  503  502  0.00000000000E+00  0.00000000000E+00  0.24708075524E+04  0.24708075524E+04  0.00000000000E+00 0. -1.
         21   -1    0    0  501  503 -0.00000000000E+00 -0.00000000000E+00 -0.81517340938E+02  0.81517340938E+02  0.00000000000E+00 0. -1.
          6    2    1    2  501    0  0.14865503578E+03  0.10233597007E+03  0.22551852916E+04  0.22692632207E+04  0.17641965668E+03 0.  0.
         24    2    3    3    0    0  0.91238687299E+02  0.11730348524E+03  0.11301792607E+04  0.11426837415E+04  0.79601294163E+02 0.  0.
         -6    2    1    2    0  502 -0.14865503578E+03 -0.10233597007E+03  0.13410491995E+03  0.28306167265E+03  0.17195583892E+03 0.  0.
        -24    2    5    5    0    0 -0.83817062804E+01 -0.12741681485E+02  0.29880382199E+02  0.86621891078E+02  0.79861826465E+02 0.  0.
          5    1    3    3  501    0  0.57416348483E+02 -0.14967515175E+02  0.11250060309E+04  0.11265794792E+04  0.47000000000E+01 0. -1.
        -11    1    4    4    0    0  0.64764543180E+02  0.12518362483E+03  0.93862492583E+03  0.94914811140E+03  0.00000000000E+00 0.  1.
         12    1    4    4    0    0  0.26474144119E+02 -0.78801395904E+01  0.19155433486E+03  0.19353563008E+03  0.00000000000E+00 0. -1.
         -5    1    5    5    0  502 -0.14027332950E+03 -0.89594288581E+02  0.10422453775E+03  0.19643978157E+03  0.47000000000E+01 0.  1.
         13    1    6    6    0    0 -0.13415577090E+02 -0.45680074956E+02  0.21643575036E+02  0.52298100319E+02  0.00000000000E+00 0. -1.
        -14    1    6    6    0    0  0.50338708099E+01  0.32938393471E+02  0.82368071632E+01  0.34323790759E+02  0.00000000000E+00 0.  1.
</event>
<event>
12    1  0.1039610E+000  0.1727315E+03  0.7818608E-02  0.1175410E+00
         21   -1    0    0  503  502  0.00000000000E+00  0.00000000000E+00  0.16102658263E+03  0.16102658263E+03  0.00000000000E+00 0. -1.
         21   -1    0    0  501  503 -0.00000000000E+00 -0.00000000000E+00 -0.18425157297E+03  0.18425157297E+03  0.00000000000E+00 0. -1.
          6    2    1    2  501    0 -0.27509058999E+02  0.56682524075E+00 -0.21002307697E+01  0.17125965437E+03  0.16902185843E+03 0.  0.
         24    2    3    3    0    0  0.39926411937E+01 -0.48845616865E+02 -0.39588870483E+02  0.10153566526E+03  0.79626485438E+02 0.  0.
         -6    2    1    2    0  502  0.27509058999E+02 -0.56682524075E+00 -0.21124759565E+02  0.17401850123E+03  0.17052599124E+03 0.  0.
        -24    2    5    5    0    0  0.33975297969E+02 -0.68239188531E+02 -0.12327773203E+02  0.10531014680E+03  0.71605483753E+02 0.  0.
          5    1    3    3  501    0 -0.31501700192E+02  0.49412442106E+02  0.37488639714E+02  0.69723989110E+02  0.47000000000E+01 0. -1.
        -11    1    4    4    0    0 -0.17662861319E+02 -0.23369623258E+02  0.18403331701E+02  0.34594776758E+02  0.00000000000E+00 0.  1.
         12    1    4    4    0    0  0.21655502513E+02 -0.25475993607E+02 -0.57992202185E+02  0.66940888503E+02  0.00000000000E+00 0. -1.
         -5    1    5    5    0  502 -0.64662389706E+01  0.67672363290E+02 -0.87969863621E+01  0.68708354432E+02  0.47000000000E+01 0.  1.
         11    1    6    6    0    0  0.47404394800E+02 -0.20129025722E+02  0.65431821245E+01  0.51915003180E+02  0.00000000000E+00 0. -1.
        -12    1    6    6    0    0 -0.13429096831E+02 -0.48110162809E+02 -0.18870955327E+02  0.53395143620E+02  0.00000000000E+00 0.  1.
</event>
<event>
12    1  0.1039610E+000  0.3211681E+03  0.7818608E-02  0.1075153E+00
         21   -1    0    0  501  502  0.00000000000E+00  0.00000000000E+00  0.17720422203E+03  0.17720422203E+03  0.00000000000E+00 0. -1.
         21   -1    0    0  502  503 -0.00000000000E+00 -0.00000000000E+00 -0.73235137627E+03  0.73235137627E+03  0.00000000000E+00 0. -1.
         -6    2    1    2    0  503 -0.24073439858E+03 -0.12515405869E+03 -0.71029422083E+02  0.32859181483E+03  0.17120400961E+03 0.  0.
        -24    2    3    3    0    0 -0.66971269001E+02 -0.64507489263E+02  0.18400585370E+02  0.12391781107E+03  0.79816510288E+02 0.  0.
          6    2    1    2  501    0  0.24073439858E+03  0.12515405869E+03 -0.48411773216E+03  0.58096378347E+03  0.17184978920E+03 0.  0.
         24    2    5    5    0    0  0.89805275652E+02  0.65664777105E+02 -0.11791299724E+03  0.18040595663E+03  0.79157967258E+02 0.  0.
          5    1    5    5  501    0  0.15092912292E+03  0.59489281585E+02 -0.36620473492E+03  0.40055782685E+03  0.47000000000E+01 0. -1.
        -13    1    6    6    0    0  0.41808258060E+02  0.74087403270E+02 -0.57005859679E+02  0.10240381733E+03  0.00000000000E+00 0.  1.
         14    1    6    6    0    0  0.47997017593E+02 -0.84226261645E+01 -0.60907137561E+02  0.78002139299E+02  0.00000000000E+00 0. -1.
         -5    1    3    3    0  503 -0.17376312957E+03 -0.60646569427E+02 -0.89430007453E+02  0.20467400376E+03  0.47000000000E+01 0.  1.
         13    1    4    4    0    0 -0.58996510988E+02 -0.23375083161E+02  0.41742020345E+02  0.75956428852E+02  0.00000000000E+00 0. -1.
        -14    1    4    4    0    0 -0.79747580128E+01 -0.41132406102E+02 -0.23341434975E+02  0.47961382213E+02  0.00000000000E+00 0.  1.
</event>
<event>
12    1  0.1039610E+000  0.3035855E+03  0.7818608E-02  0.1083496E+00
         21   -1    0    0  501  502  0.00000000000E+00  0.00000000000E+00  0.79249529947E+02  0.79249529947E+02  0.00000000000E+00 0.  1.
         21   -1    0    0  502  503 -0.00000000000E+00 -0.00000000000E+00 -0.11828332537E+04  0.11828332537E+04  0.00000000000E+00 0.  1.
         -6    2    1    2    0  503  0.63047341526E+02 -0.24318874196E+03 -0.63548414790E+03  0.70415683531E+03  0.16994415256E+03 0.  0.
        -24    2    3    3    0    0 -0.13072593398E+02 -0.64970186159E+02 -0.16362223909E+03  0.19402758785E+03  0.80513663036E+02 0.  0.
          6    2    1    2  501    0 -0.63047341526E+02  0.24318874196E+03 -0.46809957586E+03  0.55792594835E+03  0.17043596869E+03 0.  0.
         24    2    5    5    0    0 -0.92723976399E+02  0.10236005538E+03 -0.26462737221E+03  0.30865411022E+03  0.78513673323E+02 0.  0.
          5    1    5    5  501    0  0.29676634873E+02  0.14082868658E+03 -0.20347220366E+03  0.24927183813E+03  0.47000000000E+01 0. -1.
        -13    1    6    6    0    0 -0.59217273756E+02  0.88320990787E+02 -0.12371455384E+03  0.16313360707E+03  0.00000000000E+00 0.  1.
         14    1    6    6    0    0 -0.33506702644E+02  0.14039064595E+02 -0.14091281837E+03  0.14552050315E+03  0.00000000000E+00 0. -1.
         -5    1    3    3    0  503  0.76119934924E+02 -0.17821855580E+03 -0.47186190881E+03  0.51012924745E+03  0.47000000000E+01 0.  1.
         13    1    4    4    0    0  0.15465241234E+02  0.10391161432E+02 -0.11543512725E+02  0.21918088611E+02  0.00000000000E+00 0. -1.
        -14    1    4    4    0    0 -0.28537834633E+02 -0.75361347591E+02 -0.15207872637E+03  0.17210949924E+03  0.00000000000E+00 0.  1.
</event>
<event>
12    1  0.1039610E+000  0.6738224E+03  0.7818608E-02  0.9763085E-01
         21   -1    0    0  503  502  0.00000000000E+00  0.00000000000E+00  0.56393919812E+03  0.56393919812E+03  0.00000000000E+00 0.  1.
         21   -1    0    0  501  503 -0.00000000000E+00 -0.00000000000E+00 -0.11782442819E+04  0.11782442819E+04  0.00000000000E+00 0.  1.
          6    2    1    2  501    0 -0.91186531809E+02  0.64496942213E+03  0.18306030456E+03  0.69824616092E+03  0.17244154681E+03 0.  0.
         24    2    3    3    0    0 -0.12329853947E+03  0.48170455033E+03  0.16902660519E+03  0.53119636560E+03  0.79735700398E+02 0.  0.
         -6    2    1    2    0  502  0.91186531809E+02 -0.64496942213E+03 -0.79736538839E+03  0.10439373191E+04  0.17237466358E+03 0.  0.
        -24    2    5    5    0    0 -0.68018289181E+01 -0.20102754271E+03 -0.30990017651E+03  0.37735609084E+03  0.76819021660E+02 0.  0.
          5    1    3    3  501    0  0.32112007657E+02  0.16326487180E+03  0.14033699375E+02  0.16704979532E+03  0.47000000000E+01 0. -1.
        -11    1    4    4    0    0 -0.44047524839E+02  0.14430315209E+03  0.90125958978E+02  0.17574490783E+03  0.00000000000E+00 0.  1.
         12    1    4    4    0    0 -0.79251014628E+02  0.33740139824E+03  0.78900646211E+02  0.35545145776E+03  0.00000000000E+00 0. -1.
         -5    1    5    5    0  502  0.97988360727E+02 -0.44394187942E+03 -0.48746521188E+03  0.66658122831E+03  0.47000000000E+01 0.  1.
         11    1    6    6    0    0  0.12948648139E+02 -0.19337181592E+03 -0.27279336230E+03  0.33462896646E+03  0.00000000000E+00 0. -1.
        -12    1    6    6    0    0 -0.19750477057E+02 -0.76557267861E+01 -0.37106814211E+02  0.42727124376E+02  0.00000000000E+00 0.  1.
</event>
<event>
12    1  0.1039610E+000  0.2345599E+03  0.7818608E-02  0.1123524E+00
         21   -1    0    0  501  502  0.00000000000E+00  0.00000000000E+00  0.10944851181E+03  0.10944851181E+03  0.00000000000E+00 0. -1.
         21   -1    0    0  502  503 -0.00000000000E+00 -0.00000000000E+00 -0.50801957123E+03  0.50801957123E+03  0.00000000000E+00 0. -1.
         -6    2    1    2    0  503 -0.12990494375E+03  0.91754576568E+02 -0.16588494324E+03  0.28729110378E+03  0.17240698125E+03 0.  0.
        -24    2    3    3    0    0 -0.27615400224E+02  0.90981329745E+02 -0.12799432703E+03  0.17810531064E+03  0.79364609462E+02 0.  0.
          6    2    1    2  501    0  0.12990494375E+03 -0.91754576568E+02 -0.23268611617E+03  0.33017697926E+03  0.17198782586E+03 0.  0.
         24    2    5    5    0    0  0.47426735771E+01 -0.40455479323E+02 -0.53940049295E+02  0.10596851003E+03  0.81612850947E+02 0.  0.
          5    1    5    5  501    0  0.12516227018E+03 -0.51299097244E+02 -0.17874606687E+03  0.22420846923E+03  0.47000000000E+01 0. -1.
        -13    1    6    6    0    0  0.32754101672E+02  0.85407692708E+01 -0.27652341620E+02  0.43708442127E+02  0.00000000000E+00 0.  1.
         14    1    6    6    0    0 -0.28011428095E+02 -0.48996248594E+02 -0.26287707674E+02  0.62260067901E+02  0.00000000000E+00 0. -1.
         -5    1    3    3    0  503 -0.10228954353E+03  0.77324682293E+00 -0.37890616215E+02  0.10918579314E+03  0.47000000000E+01 0.  1.
         11    1    4    4    0    0  0.96379841960E+01  0.97117317038E+01  0.76299779087E+01  0.15666047202E+02  0.00000000000E+00 0. -1.
        -12    1    4    4    0    0 -0.37253384420E+02  0.81269598041E+02 -0.13562430494E+03  0.16243926344E+03  0.00000000000E+00 0.  1.
</event>
<event>
12    1  0.1039610E+000  0.2010807E+03  0.7818608E-02  0.1148896E+00
         21   -1    0    0  503  502  0.00000000000E+00  0.00000000000E+00  0.33755457257E+03  0.33755457257E+03  0.00000000000E+00 0.  1.
         21   -1    0    0  501  503 -0.00000000000E+00 -0.00000000000E+00 -0.14406175501E+03  0.14406175501E+03  0.00000000000E+00 0.  1.
          6    2    1    2  501    0 -0.10286457933E+03  0.10548742364E+02  0.19604368585E+03  0.28083195322E+03  0.17245596986E+03 0.  0.
         24    2    3    3    0    0 -0.21904813679E+02  0.51293818394E+02  0.47947065779E+02  0.10713870709E+03  0.77903175621E+02 0.  0.
         -6    2    1    2    0  502  0.10286457933E+03 -0.10548742364E+02 -0.25508682900E+01  0.20078437435E+03  0.17209143037E+03 0.  0.
        -24    2    5    5    0    0  0.16225399340E+02 -0.52406945750E+02 -0.45530830284E+02  0.95295873399E+02  0.63233657446E+02 0.  0.
          5    1    3    3  501    0 -0.80959765654E+02 -0.40745076030E+02  0.14809662008E+03  0.17369324614E+03  0.47000000000E+01 0. -1.
        -11    1    4    4    0    0  0.16475210029E+02 -0.11705836389E+02  0.21860329416E+01  0.20328253518E+02  0.00000000000E+00 0.  1.
         12    1    4    4    0    0 -0.38380023708E+02  0.62999654783E+02  0.45761032837E+02  0.86810453569E+02  0.00000000000E+00 0. -1.
         -5    1    5    5    0  502  0.86639179994E+02  0.41858203386E+02  0.42979961994E+02  0.10548850095E+03  0.47000000000E+01 0.  1.
         13    1    6    6    0    0  0.11623855460E+02  0.26374844420E+01 -0.37660336483E+02  0.39501535210E+02  0.00000000000E+00 0. -1.
        -14    1    6    6    0    0  0.46015438797E+01 -0.55044430192E+02 -0.78704938002E+01  0.55794338188E+02  0.00000000000E+00 0.  1.
</event>
<event>
12    1  0.1039610E+000  0.3664227E+03  0.7818608E-02  0.1056538E+00
         21   -1    0    0  501  502  0.00000000000E+00  0.00000000000E+00  0.73069597926E+03  0.73069597926E+03  0.00000000000E+00 0.  1.
         21   -1    0    0  502  503 -0.00000000000E+00 -0.00000000000E+00 -0.18559415929E+03  0.18559415929E+03  0.00000000000E+00 0.  1.
         -6    2    1    2    0  503 -0.14669936622E+03 -0.28302624797E+03  0.34009100885E+03  0.49641508755E+03  0.17070876884E+03 0.  0.
        -24    2    3    3    0    0 -0.93030624145E+02 -0.19027862895E+03  0.31288001398E+03  0.38575803648E+03  0.77811990702E+02 0.  0.
          6    2    1    2  501    0  0.14669936622E+03  0.28302624797E+03  0.20501081111E+03  0.41987505099E+03  0.18066838320E+03 0.  0.
         24    2    5    5    0    0  0.44328276075E+01  0.93204011535E+02  0.11293572021E+03  0.16537129499E+03  0.76723859277E+02 0.  0.
          5    1    5    5  501    0  0.14226653861E+03  0.18982223643E+03  0.92075090905E+02  0.25450375600E+03  0.47000000000E+01 0. -1.
        -11    1    6    6    0    0 -0.33343670664E+02  0.21675924331E+02  0.41030713136E+02  0.57141626590E+02  0.00000000000E+00 0.  1.
         12    1    6    6    0    0  0.37776498272E+02  0.71528087204E+02  0.71905007073E+02  0.10822966840E+03  0.00000000000E+00 0. -1.
         -5    1    3    3    0  503 -0.53668742076E+02 -0.92747619018E+02  0.27210994867E+02  0.11065705107E+03  0.47000000000E+01 0.  1.
         13    1    4    4    0    0 -0.89653825254E+02 -0.19522549232E+03  0.28310212666E+03  0.35538375786E+03  0.00000000000E+00 0. -1.
        -14    1    4    4    0    0 -0.33767988915E+01  0.49468633746E+01  0.29777887325E+02  0.30374278618E+02  0.00000000000E+00 0.  1.
</event>
<event>
12    1  0.1039610E+000  0.7855561E+03  0.7818608E-02  0.9581417E-01
         21   -1    0    0  501  502  0.00000000000E+00  0.00000000000E+00  0.10239614692E+04  0.10239614692E+04  0.00000000000E+00 0. -1.
         21   -1    0    0  502  503 -0.00000000000E+00 -0.00000000000E+00 -0.19969443853E+04  0.19969443853E+04  0.00000000000E+00 0. -1.
         -6    2    1    2    0  503 -0.70438885144E+03  0.30057438550E+03  0.77593027839E+03  0.11036693705E+04  0.17178378044E+03 0.  0.
        -24    2    3    3    0    0 -0.55434619937E+03  0.29525935649E+03  0.59935563287E+03  0.87184671758E+03  0.80073266086E+02 0.  0.
          6    2    1    2  501    0  0.70438885144E+03 -0.30057438550E+03 -0.17489131944E+04  0.19172364840E+04  0.17489928103E+03 0.  0.
         24    2    5    5    0    0  0.21969694511E+03 -0.53049600358E+02 -0.59516563286E+03  0.64156007940E+03  0.79348579993E+02 0.  0.
          5    1    5    5  501    0  0.48469190633E+03 -0.24752478515E+03 -0.11537475616E+04  0.12756764046E+04  0.47000000000E+01 0. -1.
        -11    1    6    6    0    0  0.51442574040E+02 -0.27277742306E+01 -0.64247269808E+02  0.82349807856E+02  0.00000000000E+00 0.  1.
         12    1    6    6    0    0  0.16825437107E+03 -0.50321826127E+02 -0.53091836305E+03  0.55921027154E+03  0.00000000000E+00 0. -1.
         -5    1    3    3    0  503 -0.15004265207E+03  0.53150290167E+01  0.17657464552E+03  0.23182265293E+03  0.47000000000E+01 0.  1.
         13    1    4    4    0    0 -0.38484520133E+03  0.24382209766E+03  0.41674274784E+03  0.61743790147E+03  0.00000000000E+00 0. -1.
        -14    1    4    4    0    0 -0.16950099805E+03  0.51437258826E+02  0.18261288503E+03  0.25440881611E+03  0.00000000000E+00 0.  1.
</event>
<event>
12    1  0.1039610E+000  0.2632855E+03  0.7818608E-02  0.1105766E+00
         21   -1    0    0  503  502  0.00000000000E+00  0.00000000000E+00  0.55819171988E+02  0.55819171988E+02  0.00000000000E+00 0.  1.
         21   -1    0    0  501  503 -0.00000000000E+00 -0.00000000000E+00 -0.16587670077E+04  0.16587670077E+04  0.00000000000E+00 0.  1.
          6    2    1    2  501    0  0.47162504211E+01 -0.19947310242E+03 -0.12450142788E+04  0.12725485587E+04  0.17177752496E+03 0.  0.
         24    2    3    3    0    0  0.43584768447E+02 -0.84615171879E+02 -0.38845022541E+03  0.40743170326E+03  0.77766675701E+02 0.  0.
         -6    2    1    2    0  502 -0.47162504211E+01  0.19947310242E+03 -0.35793355687E+03  0.44203762101E+03  0.16573794268E+03 0.  0.
        -24    2    5    5    0    0  0.36493563003E+01  0.22061836889E+03 -0.30259053737E+03  0.38202057778E+03  0.75451348894E+02 0.  0.
          5    1    3    3  501    0 -0.38868518026E+02 -0.11485793054E+03 -0.85656405343E+03  0.86511685542E+03  0.47000000000E+01 0. -1.
        -11    1    4    4    0    0  0.26992216847E+02 -0.62118218706E+01 -0.33114680675E+02  0.43171154461E+02  0.00000000000E+00 0.  1.
         12    1    4    4    0    0  0.16592551599E+02 -0.78403350009E+02 -0.35533554473E+03  0.36426054880E+03  0.00000000000E+00 0. -1.
         -5    1    5    5    0  502 -0.83656067213E+01 -0.21145266469E+02 -0.55343019500E+02  0.60017043223E+02  0.47000000000E+01 0.  1.
         11    1    6    6    0    0  0.39106619647E+02  0.11918497756E+03 -0.15323518904E+03  0.19802881037E+03  0.00000000000E+00 0. -1.
        -12    1    6    6    0    0 -0.35457263347E+02  0.10143339133E+03 -0.14935534833E+03  0.18399176742E+03  0.00000000000E+00 0.  1.
</event>
<event>
12    1  0.1039610E+000  0.1926333E+03  0.7818608E-02  0.1156137E+00
         21   -1    0    0  503  502  0.00000000000E+00  0.00000000000E+00  0.27954959417E+03  0.27954959417E+03  0.00000000000E+00 0. -1.
         21   -1    0    0  501  503 -0.00000000000E+00 -0.00000000000E+00 -0.15319939355E+03  0.15319939355E+03  0.00000000000E+00 0. -1.
          6    2    1    2  501    0 -0.83635119279E+02 -0.24453999246E+02  0.14244521877E+03  0.23957931331E+03  0.17179864890E+03 0.  0.
         24    2    3    3    0    0  0.18585984947E+02 -0.28323981774E+02  0.93010902659E+02  0.12586927628E+03  0.77745481652E+02 0.  0.
         -6    2    1    2    0  502  0.83635119279E+02  0.24453999246E+02 -0.16095018146E+02  0.19316967440E+03  0.17164685329E+03 0.  0.
        -24    2    5    5    0    0  0.87818908268E+00  0.52287023207E+02  0.22785845139E+02  0.97476423605E+02  0.79042737859E+02 0.  0.
          5    1    3    3  501    0 -0.10222110423E+03  0.38699825284E+01  0.49434316109E+02  0.11371003704E+03  0.47000000000E+01 0. -1.
        -13    1    4    4    0    0 -0.22259620208E+02 -0.36153876951E+02  0.55381355765E+02  0.69783150378E+02  0.00000000000E+00 0.  1.
         14    1    4    4    0    0  0.40845605155E+02  0.78298951766E+01  0.37629546894E+02  0.56086125900E+02  0.00000000000E+00 0. -1.
         -5    1    5    5    0  502  0.82756930196E+02 -0.27833023961E+02 -0.38880863285E+02  0.95693250797E+02  0.47000000000E+01 0.  1.
         11    1    6    6    0    0  0.27236470912E+02  0.14849998594E+02  0.38160251304E+02  0.49178781864E+02  0.00000000000E+00 0. -1.
        -12    1    6    6    0    0 -0.26358281829E+02  0.37437024613E+02 -0.15374406166E+02  0.48297641742E+02  0.00000000000E+00 0.  1.
</event>
<event>
12    1  0.1039610E+000  0.2181982E+03  0.7818608E-02  0.1135267E+00
         21   -1    0    0  501  502  0.00000000000E+00  0.00000000000E+00  0.79187319024E+02  0.79187319024E+02  0.00000000000E+00 0.  1.
         21   -1    0    0  502  503 -0.00000000000E+00 -0.00000000000E+00 -0.62056083507E+03  0.62056083507E+03  0.00000000000E+00 0. -1.
         -6    2    1    2    0  503  0.24030195100E+02 -0.13172518824E+03 -0.33308969343E+03  0.39809834784E+03  0.17205980121E+03 0.  0.
        -24    2    3    3    0    0  0.76512957182E+02 -0.65552968168E+02 -0.23639714810E+03  0.26962756771E+03  0.81633261537E+02 0.  0.
          6    2    1    2  501    0 -0.24030195100E+02  0.13172518824E+03 -0.20828382262E+03  0.30164980626E+03  0.17228313718E+03 0.  0.
         24    2    5    5    0    0  0.50909717575E+02  0.10516473033E+03 -0.13227558257E+03  0.19155534231E+03  0.74466096814E+02 0.  0.
          5    1    5    5  501    0 -0.74939912675E+02  0.26560457906E+02 -0.76008240050E+02  0.11009446394E+03  0.47000000000E+01 0. -1.
        -13    1    6    6    0    0  0.57767000077E+02  0.35129691810E+02 -0.56134592825E+02  0.87876129047E+02  0.00000000000E+00 0.  1.
         14    1    6    6    0    0 -0.68572825024E+01  0.70035038520E+02 -0.76140989746E+02  0.10367921327E+03  0.00000000000E+00 0. -1.
         -5    1    3    3    0  503 -0.52482762082E+02 -0.66172220067E+02 -0.96692545327E+02  0.12847078013E+03  0.47000000000E+01 0.  1.
         13    1    4    4    0    0 -0.68600087858E+01  0.29492883643E+01 -0.75674283693E+02  0.76041799261E+02  0.00000000000E+00 0. -1.
        -14    1    4    4    0    0  0.83372965968E+02 -0.68502256532E+02 -0.16072286441E+03  0.19358576845E+03  0.00000000000E+00 0.  1.
</event>
<event>
12    1  0.1039610E+000  0.2359445E+03  0.7818608E-02  0.1122904E+00
         21   -1    0    0  501  502  0.00000000000E+00  0.00000000000E+00  0.61619647722E+03  0.61619647722E+03  0.00000000000E+00 0.  1.
         21   -1    0    0  502  503 -0.00000000000E+00 -0.00000000000E+00 -0.89589266716E+02  0.89589266716E+02  0.00000000000E+00 0.  1.
         -6    2    1    2    0  503  0.15824391000E+03  0.28465190881E+02  0.25325332182E+03  0.34613155706E+03  0.17268007306E+03 0.  0.
        -24    2    3    3    0    0  0.18009216442E+03  0.35613051738E+02  0.25211194049E+03  0.32264047603E+03  0.82673871899E+02 0.  0.
          6    2    1    2  501    0 -0.15824391000E+03 -0.28465190881E+02  0.27335388868E+03  0.35965418688E+03  0.16963898001E+03 0.  0.
         24    2    5    5    0    0 -0.36016448558E+02  0.22956012533E+02  0.16556198153E+03  0.18870133450E+03  0.79832705295E+02 0.  0.
          5    1    5    5  501    0 -0.12222746144E+03 -0.51421203414E+02  0.10779190715E+03  0.17095285238E+03  0.47000000000E+01 0. -1.
        -13    1    6    6    0    0  0.60658385144E+01 -0.13956881137E+02  0.10552434485E+03  0.10661602264E+03  0.00000000000E+00 0.  1.
         14    1    6    6    0    0 -0.42082287073E+02  0.36912893671E+02  0.60037636684E+02  0.82085311859E+02  0.00000000000E+00 0. -1.
         -5    1    3    3    0  503 -0.21848254427E+02 -0.71478608568E+01  0.11413813318E+01  0.23491081024E+02  0.47000000000E+01 0.  1.
         13    1    4    4    0    0  0.74593360932E+02  0.50758897859E+02  0.14996470253E+03  0.17501442001E+03  0.00000000000E+00 0. -1.
        -14    1    4    4    0    0  0.10549880349E+03 -0.15145846122E+02  0.10214723796E+03  0.14762605602E+03  0.00000000000E+00 0.  1.
</event>
<event>
12    1  0.1039610E+000  0.1865847E+03  0.7818608E-02  0.1161621E+00
         21   -1    0    0  501  502  0.00000000000E+00  0.00000000000E+00  0.38854812796E+03  0.38854812796E+03  0.00000000000E+00 0. -1.
         21   -1    0    0  502  503 -0.00000000000E+00 -0.00000000000E+00 -0.24917116701E+03  0.24917116701E+03  0.00000000000E+00 0. -1.
         -6    2    1    2    0  503  0.54807350127E+02 -0.45529083498E+02 -0.18553886547E+03  0.26313210496E+03  0.17244445769E+03 0.  0.
        -24    2    3    3    0    0  0.58618368611E+00  0.35704800235E+02 -0.10223617911E+03  0.13467858687E+03  0.80068152657E+02 0.  0.
          6    2    1    2  501    0 -0.54807350127E+02  0.45529083498E+02  0.32491582643E+03  0.37458719000E+03  0.17224553864E+03 0.  0.
         24    2    5    5    0    0  0.15011441514E+02  0.27839576886E+02  0.27581302760E+03  0.28729024181E+03  0.73908534228E+02 0.  0.
          5    1    5    5  501    0 -0.69818791641E+02  0.17689506611E+02  0.49102798831E+02  0.87296948190E+02  0.47000000000E+01 0. -1.
        -11    1    6    6    0    0  0.38889069331E+02 -0.53801742900E+01  0.12442483668E+03  0.13047162899E+03  0.00000000000E+00 0.  1.
         12    1    6    6    0    0 -0.23877627817E+02  0.33219751176E+02  0.15138819092E+03  0.15681861283E+03  0.00000000000E+00 0. -1.
         -5    1    3    3    0  503  0.54221166441E+02 -0.81233883732E+02 -0.83302686364E+02  0.12845351810E+03  0.47000000000E+01 0.  1.
         13    1    4    4    0    0 -0.30014011866E+02 -0.10178058087E+02 -0.28679751019E+02  0.42742974782E+02  0.00000000000E+00 0. -1.
        -14    1    4    4    0    0  0.30600195552E+02  0.45882858322E+02 -0.73556428091E+02  0.91935612083E+02  0.00000000000E+00 0.  1.
</event>
<event>
12    1  0.1039610E+000  0.2523190E+03  0.7818608E-02  0.1112042E+00
         21   -1    0    0  501  502  0.00000000000E+00  0.00000000000E+00  0.26070617458E+03  0.26070617458E+03  0.00000000000E+00 0.  1.
         21   -1    0    0  502  503 -0.00000000000E+00 -0.00000000000E+00 -0.37752499125E+03  0.37752499125E+03  0.00000000000E+00 0.  1.
         -6    2    1    2    0  503 -0.10897455436E+03 -0.14850217215E+03  0.13217445137E+03  0.28374203752E+03  0.17061978089E+03 0.  0.
        -24    2    3    3    0    0  0.26252041495E+01 -0.10243198700E+03  0.62474140333E+02  0.14425300062E+03  0.80041903514E+02 0.  0.
          6    2    1    2  501    0  0.10897455436E+03  0.14850217215E+03 -0.24899326803E+03  0.35448912831E+03  0.17244287730E+03 0.  0.
         24    2    5    5    0    0  0.30970670588E+02  0.10788555758E+03 -0.22265445335E+03  0.26256449384E+03  0.82259539625E+02 0.  0.
          5    1    5    5  501    0  0.78003883772E+02  0.40616614569E+02 -0.26338814683E+02  0.91924634464E+02  0.47000000000E+01 0. -1.
        -13    1    6    6    0    0 -0.22453817132E+02  0.70262975581E+02 -0.12166392805E+03  0.14227849813E+03  0.00000000000E+00 0.  1.
         14    1    6    6    0    0  0.53424487720E+02  0.37622581996E+02 -0.10099052530E+03  0.12028599571E+03  0.00000000000E+00 0. -1.
         -5    1    3    3    0  503 -0.11159975851E+03 -0.46070185143E+02  0.69700311039E+02  0.13948903691E+03  0.47000000000E+01 0.  1.
         13    1    4    4    0    0 -0.59014662312E+01 -0.11077999996E+03  0.69007501248E+02  0.13064865451E+03  0.00000000000E+00 0. -1.
        -14    1    4    4    0    0  0.85266703807E+01  0.83480129624E+01 -0.65333609151E+01  0.13604346109E+02  0.00000000000E+00 0.  1.
</event>
<event>
12    1  0.1039610E+000  0.1851449E+03  0.7818608E-02  0.1163087E+00
         21   -1    0    0  503  502  0.00000000000E+00  0.00000000000E+00  0.76381085453E+02  0.76381085453E+02  0.00000000000E+00 0. -1.
         21   -1    0    0  501  503 -0.00000000000E+00 -0.00000000000E+00 -0.45203636126E+03  0.45203636126E+03  0.00000000000E+00 0. -1.
          6    2    1    2  501    0  0.21001826478E+02 -0.64130940003E+02 -0.21610406762E+03  0.28456916601E+03  0.17240878174E+03 0.  0.
         24    2    3    3    0    0  0.97823298831E+01 -0.44385694378E+02 -0.23685826746E+03  0.25344716993E+03  0.77896374975E+02 0.  0.
         -6    2    1    2    0  502 -0.21001826478E+02  0.64130940003E+02 -0.15955120819E+03  0.24384828070E+03  0.17161451508E+03 0.  0.
        -24    2    5    5    0    0  0.24568691200E+02  0.13948440247E+02 -0.15038371024E+02  0.84157938261E+02  0.77834609247E+02 0.  0.
          5    1    3    3  501    0  0.11219496595E+02 -0.19745245626E+02  0.20754199850E+02  0.31121996081E+02  0.47000000000E+01 0. -1.
        -13    1    4    4    0    0 -0.18518876518E+02  0.12903917491E+02 -0.98397505338E+02  0.10095310263E+03  0.00000000000E+00 0.  1.
         14    1    4    4    0    0  0.28301206401E+02 -0.57289611868E+02 -0.13846076213E+03  0.15249406730E+03  0.00000000000E+00 0. -1.
         -5    1    5    5    0  502 -0.45570517678E+02  0.50182499756E+02 -0.14451283717E+03  0.15969034244E+03  0.47000000000E+01 0.  1.
         11    1    6    6    0    0  0.42062855222E+02 -0.13341402306E+02 -0.24390635510E+02  0.50420034763E+02  0.00000000000E+00 0. -1.
        -12    1    6    6    0    0 -0.17494164022E+02  0.27289842554E+02  0.93522644857E+01  0.33737903498E+02  0.00000000000E+00 0.  1.
</event>
<event>
12    1  0.1039610E+000  0.2535300E+03  0.7818608E-02  0.1111337E+00
         21   -1    0    0  501  502  0.00000000000E+00  0.00000000000E+00  0.89423560396E+03  0.89423560396E+03  0.00000000000E+00 0.  1.
         21   -1    0    0  502  503 -0.00000000000E+00 -0.00000000000E+00 -0.72021385400E+02  0.72021385400E+02  0.00000000000E+00 0. -1.
         -6    2    1    2    0  503  0.87664721120E+02  0.16187555090E+03  0.45335501586E+03  0.51866950627E+03  0.17204211409E+03 0.  0.
        -24    2    3    3    0    0  0.11614525079E+03  0.16714855947E+03  0.36283352602E+03  0.42351082137E+03  0.79277285500E+02 0.  0.
          6    2    1    2  501    0 -0.87664721120E+02 -0.16187555090E+03  0.36885920270E+03  0.44758748309E+03  0.17432339571E+03 0.  0.
         24    2    5    5    0    0 -0.10212854514E+02 -0.49281268142E+02  0.24763321969E+03  0.26484697552E+03  0.79301722302E+02 0.  0.
          5    1    5    5  501    0 -0.77451866606E+02 -0.11259428276E+03  0.12122598301E+03  0.18274050757E+03  0.47000000000E+01 0. -1.
        -11    1    6    6    0    0 -0.43699633418E+02 -0.22809929473E+02  0.10561575355E+03  0.11655315629E+03  0.00000000000E+00 0.  1.
         12    1    6    6    0    0  0.33486778904E+02 -0.26471338669E+02  0.14201746614E+03  0.14829381923E+03  0.00000000000E+00 0. -1.
         -5    1    3    3    0  503 -0.28480529675E+02 -0.52730085676E+01  0.90521489841E+02  0.95158684905E+02  0.47000000000E+01 0.  1.
         13    1    4    4    0    0  0.92695327630E+02  0.64044881098E+02  0.18375827009E+03  0.21554877032E+03  0.00000000000E+00 0. -1.
        -14    1    4    4    0    0  0.23449923165E+02  0.10310367837E+03  0.17907525593E+03  0.20796205105E+03  0.00000000000E+00 0.  1.
</event>
<event>
12    1  0.1039610E+000  0.1710023E+03  0.7818608E-02  0.1177455E+00
         21   -1    0    0  503  502  0.00000000000E+00  0.00000000000E+00  0.19894958795E+04  0.19894958795E+04  0.00000000000E+00 0. -1.
         21   -1    0    0  501  503 -0.00000000000E+00 -0.00000000000E+00 -0.19045736915E+02  0.19045736915E+02  0.00000000000E+00 0. -1.
          6    2    1    2  501    0 -0.67798297226E+00 -0.76230663080E+01  0.48832429314E+03  0.51658357047E+03  0.16834309970E+03 0.  0.
         24    2    3    3    0    0  0.17791824343E+02 -0.32327638721E+02  0.47418454325E+03  0.48232758987E+03  0.80170428799E+02 0.  0.
         -6    2    1    2    0  502  0.67798297226E+00  0.76230663080E+01  0.14821258494E+04  0.14919580459E+04  0.17083092941E+03 0.  0.
        -24    2    5    5    0    0  0.66165821873E+02  0.13016396286E+02  0.94685412717E+03  0.95264769770E+03  0.80358915074E+02 0.  0.
          5    1    3    3  501    0 -0.18469807315E+02  0.24704572412E+02  0.14139749889E+02  0.34255980606E+02  0.47000000000E+01 0. -1.
        -13    1    4    4    0    0  0.39520361614E+01  0.24900193121E+02  0.83240323789E+02  0.86974649823E+02  0.00000000000E+00 0.  1.
         14    1    4    4    0    0  0.13839788182E+02 -0.57227831841E+02  0.39094421946E+03  0.39535294005E+03  0.00000000000E+00 0. -1.
         -5    1    5    5    0  502 -0.65487838900E+02 -0.53933299779E+01  0.53527172226E+03  0.53931034823E+03  0.47000000000E+01 0.  1.
         13    1    6    6    0    0  0.44164798490E+02  0.33653299132E+02  0.83353641974E+03  0.83538376631E+03  0.00000000000E+00 0. -1.
        -14    1    6    6    0    0  0.22001023382E+02 -0.20636902847E+02  0.11331770743E+03  0.11726393140E+03  0.00000000000E+00 0.  1.
</event>
<event>
12    1  0.1039610E+000  0.2438821E+03  0.7818608E-02  0.1117327E+00
         21   -1    0    0  503  502  0.00000000000E+00  0.00000000000E+00  0.13109419672E+04  0.13109419672E+04  0.00000000000E+00 0.  1.
         21   -1    0    0  501  503 -0.00000000000E+00 -0.00000000000E+00 -0.85797574788E+02  0.85797574788E+02  0.00000000000E+00 0. -1.
          6    2    1    2  501    0  0.16593294050E+03  0.49635043511E+02  0.10922069886E+04  0.11189791235E+04  0.17088240039E+03 0.  0.
         24    2    3    3    0    0  0.11585960333E+03 -0.28539902305E+02  0.78557315810E+03  0.79856523927E+03  0.79644716923E+02 0.  0.
         -6    2    1    2    0  502 -0.16593294050E+03 -0.49635043511E+02  0.13293740384E+03  0.27776041844E+03  0.17170066519E+03 0.  0.
        -24    2    5    5    0    0 -0.15024556780E+03 -0.27655508783E+02  0.33927312584E+02  0.17502638426E+03  0.78387593649E+02 0.  0.
          5    1    3    3  501    0  0.50073337163E+02  0.78174945816E+02  0.30663383046E+03  0.32041388427E+03  0.47000000000E+01 0. -1.
        -13    1    4    4    0    0  0.10235455075E+02 -0.25350449462E+02  0.31927217594E+03  0.32044052827E+03  0.00000000000E+00 0.  1.
         14    1    4    4    0    0  0.10562414826E+03 -0.31894528426E+01  0.46630098216E+03  0.47812471100E+03  0.00000000000E+00 0. -1.
         -5    1    5    5    0  502 -0.15687372696E+02 -0.21979534729E+02  0.99010091256E+02  0.10273403418E+03  0.47000000000E+01 0.  1.
         11    1    6    6    0    0 -0.79242433021E+02  0.25215452195E+02  0.14987450089E+02  0.84497372034E+02  0.00000000000E+00 0. -1.
        -12    1    6    6    0    0 -0.71003134778E+02 -0.52870960977E+02  0.18939862495E+02  0.90529012225E+02  0.00000000000E+00 0.  1.
</event>
<event>
12    1  0.1039610E+000  0.2357147E+03  0.7818608E-02  0.1122704E+00
         21   -1    0    0  501  502  0.00000000000E+00  0.00000000000E+00  0.75150659354E+02  0.75150659354E+02  0.00000000000E+00 0. -1.
         21   -1    0    0  502  503 -0.00000000000E+00 -0.00000000000E+00 -0.17643778303E+04  0.17643778303E+04  0.00000000000E+00 0. -1.
         -6    2    1    2    0  503 -0.11879691011E+03  0.10865219249E+03 -0.14331524968E+03  0.27574938044E+03  0.17198969515E+03 0.  0.
        -24    2    3    3    0    0 -0.14488227163E+03  0.10313028885E+03 -0.15211187501E+03  0.24728171242E+03  0.79896768840E+02 0.  0.
          6    2    1    2  501    0  0.11879691011E+03 -0.10865219249E+03 -0.15459119213E+04  0.15637791092E+04  0.17217267295E+03 0.  0.
         24    2    5    5    0    0  0.13537914430E+03 -0.93989351497E+02 -0.94401175751E+03  0.96145372661E+03  0.77933042981E+02 0.  0.
          5    1    5    5  501    0 -0.16582234190E+02 -0.14662840997E+02 -0.60190016379E+03  0.60232538264E+03  0.47000000000E+01 0. -1.
        -11    1    6    6    0    0  0.85704898478E+02 -0.19501507435E+02 -0.35743322404E+03  0.36808171383E+03  0.00000000000E+00 0.  1.
         12    1    6    6    0    0  0.49674245822E+02 -0.74487844062E+02 -0.58657853347E+03  0.59337201277E+03  0.00000000000E+00 0. -1.
         -5    1    3    3    0  503  0.26085361515E+02  0.55219036428E+01  0.87966253292E+01  0.28467668018E+02  0.47000000000E+01 0.  1.
         13    1    4    4    0    0  0.68457899947E+01  0.19902782592E+02 -0.24278988722E+02  0.32131836065E+02  0.00000000000E+00 0. -1.
        -14    1    4    4    0    0 -0.15172806162E+03  0.83227506259E+02 -0.12783288629E+03  0.21514987636E+03  0.00000000000E+00 0.  1.
</event>
<event>
12    1  0.1039610E+000  0.2932106E+03  0.7818608E-02  0.1088890E+00
         21   -1    0    0  503  502  0.00000000000E+00  0.00000000000E+00  0.73200341797E+03  0.73200341797E+03  0.00000000000E+00 0. -1.
         21   -1    0    0  501  503 -0.00000000000E+00 -0.00000000000E+00 -0.11700395556E+03  0.11700395556E+03  0.00000000000E+00 0.  1.
          6    2    1    2  501    0 -0.60155707876E+02 -0.22925349887E+03  0.29117725467E+03  0.41322712465E+03  0.17261687918E+03 0.  0.
         24    2    3    3    0    0  0.63197867217E+01 -0.13596709953E+03  0.23839853016E+03  0.28701687370E+03  0.83772517858E+02 0.  0.
         -6    2    1    2    0  502  0.60155707876E+02  0.22925349887E+03  0.32382220773E+03  0.43578024888E+03  0.16990505336E+03 0.  0.
        -24    2    5    5    0    0  0.68889566592E+02  0.12771363417E+03  0.27817447858E+03  0.32401071105E+03  0.80903371985E+02 0.  0.
          5    1    3    3  501    0 -0.66475494598E+02 -0.93286399345E+02  0.52778724510E+02  0.12621025095E+03  0.47000000000E+01 0. -1.
        -13    1    4    4    0    0 -0.37714568490E+02 -0.65322040631E+02  0.96213704141E+02  0.12225561146E+03  0.00000000000E+00 0.  1.
         14    1    4    4    0    0  0.44034355212E+02 -0.70645058895E+02  0.14218482602E+03  0.16476126224E+03  0.00000000000E+00 0. -1.
         -5    1    5    5    0  502 -0.87338587161E+01  0.10153986470E+03  0.45647729151E+02  0.11176953783E+03  0.47000000000E+01 0.  1.
         11    1    6    6    0    0  0.66665574315E+02  0.38689605370E+02  0.12754823747E+03  0.14902931673E+03  0.00000000000E+00 0. -1.
        -12    1    6    6    0    0  0.22239922779E+01  0.89024028804E+02  0.15062624111E+03  0.17498139432E+03  0.00000000000E+00 0.  1.
</event>
<event>
12    1  0.1039610E+000  0.2217513E+03  0.7818608E-02  0.1132668E+00
         21   -1    0    0  503  502  0.00000000000E+00  0.00000000000E+00  0.86450755631E+03  0.86450755631E+03  0.00000000000E+00 0.  1.
         21   -1    0    0  501  503 -0.00000000000E+00 -0.00000000000E+00 -0.91120363372E+02  0.91120363372E+02  0.00000000000E+00 0.  1.
          6    2    1    2  501    0 -0.13052504109E+03 -0.49998442588E+02  0.67984117580E+03  0.71495283923E+03  0.17157187237E+03 0.  0.
         24    2    3    3    0    0 -0.14291447531E+03  0.37872518404E+00  0.43815758807E+03  0.46771933888E+03  0.79715853487E+02 0.  0.
         -6    2    1    2    0  502  0.13052504109E+03  0.49998442588E+02  0.93546017139E+02  0.24067508046E+03  0.17215401946E+03 0.  0.
        -24    2    5    5    0    0 -0.53425304680E+01  0.27183878650E+02  0.38164943664E+02  0.92116490574E+02  0.79128876022E+02 0.  0.
          5    1    3    3  501    0  0.12389434215E+02 -0.50377167772E+02  0.24168358773E+03  0.24723350034E+03  0.47000000000E+01 0. -1.
        -13    1    4    4    0    0 -0.89839816133E+01  0.11070854672E+02  0.65630746873E+01  0.15695531152E+02  0.00000000000E+00 0.  1.
         14    1    4    4    0    0 -0.13393049369E+03 -0.10692129488E+02  0.43159451338E+03  0.45202380773E+03  0.00000000000E+00 0. -1.
         -5    1    5    5    0  502  0.13586757156E+03  0.22814563938E+02  0.55381073475E+02  0.14855858988E+03  0.47000000000E+01 0.  1.
         13    1    6    6    0    0  0.33937247368E+02  0.21978271248E+02  0.55800382961E+01  0.40815658679E+02  0.00000000000E+00 0. -1.
        -14    1    6    6    0    0 -0.39279777836E+02  0.52056074021E+01  0.32584905368E+02  0.51300831895E+02  0.00000000000E+00 0.  1.
</event>
<event>
12    1  0.1039610E+000  0.2248288E+03  0.7818608E-02  0.1130734E+00
         21   -1    0    0  503  502  0.00000000000E+00  0.00000000000E+00  0.61814050420E+03  0.61814050420E+03  0.00000000000E+00 0. -1.
         21   -1    0    0  501  503 -0.00000000000E+00 -0.00000000000E+00 -0.82983329536E+02  0.82983329536E+02  0.00000000000E+00 0. -1.
          6    2    1    2  501    0 -0.98161432380E+02 -0.10195818111E+03  0.32338893023E+03  0.39386343210E+03  0.17469077092E+03 0.  0.
         24    2    3    3    0    0 -0.67746893593E+02 -0.13723309784E+03  0.21271163069E+03  0.27369305906E+03  0.78987897915E+02 0.  0.
         -6    2    1    2    0  502  0.98161432380E+02  0.10195818111E+03  0.21176824443E+03  0.30726040164E+03  0.17184885093E+03 0.  0.
        -24    2    5    5    0    0  0.53649141243E+02  0.13072412339E+03  0.11696360157E+03  0.19854594167E+03  0.75980129450E+02 0.  0.
          5    1    3    3  501    0 -0.30414538786E+02  0.35274916730E+02  0.11067729955E+03  0.12017037303E+03  0.47000000000E+01 0. -1.
        -11    1    4    4    0    0 -0.47743291530E+02 -0.18088557723E+02  0.55299828056E+02  0.75264126844E+02  0.00000000000E+00 0.  1.
         12    1    4    4    0    0 -0.20003602063E+02 -0.11914454011E+03  0.15741180263E+03  0.19842893222E+03  0.00000000000E+00 0. -1.
         -5    1    5    5    0  502  0.44512291136E+02 -0.28765942280E+02  0.94804642864E+02  0.10871445997E+03  0.47000000000E+01 0.  1.
         11    1    6    6    0    0  0.19538914647E+02  0.53370670989E+02  0.33548587421E+01  0.56933757865E+02  0.00000000000E+00 0. -1.
        -12    1    6    6    0    0  0.34110226596E+02  0.77353452399E+02  0.11360874282E+03  0.14161218381E+03  0.00000000000E+00 0.  1.
</event>
<event>
12    1  0.1039610E+000  0.2200692E+03  0.7818608E-02  0.1134513E+00
         21   -1    0    0  503  502  0.00000000000E+00  0.00000000000E+00  0.35659261781E+03  0.35659261781E+03  0.00000000000E+00 0.  1.
         21   -1    0    0  501  503 -0.00000000000E+00 -0.00000000000E+00 -0.16955295539E+03  0.16955295539E+03  0.00000000000E+00 0.  1.
          6    2    1    2  501    0  0.11873550612E+03  0.55574739051E+02  0.21529291260E+03  0.30786604694E+03  0.17675913728E+03 0.  0.
         24    2    3    3    0    0 -0.10754899042E+02  0.21680650412E+02  0.10741321276E+03  0.13588728689E+03  0.79636913587E+02 0.  0.
         -6    2    1    2    0  502 -0.11873550612E+03 -0.55574739051E+02 -0.28253250178E+02  0.21827952626E+03  0.17222378873E+03 0.  0.
        -24    2    5    5    0    0 -0.66395883088E+02 -0.36766099291E+02 -0.84802550000E+02  0.13882441706E+03  0.79502119068E+02 0.  0.
          5    1    3    3  501    0  0.12949040516E+03  0.33894088640E+02  0.10787969983E+03  0.17197876005E+03  0.47000000000E+01 0. -1.
        -13    1    4    4    0    0  0.25210257814E+02 -0.54358305555E+01  0.77848257565E+02  0.82008880975E+02  0.00000000000E+00 0.  1.
         14    1    4    4    0    0 -0.35965156856E+02  0.27116480967E+02  0.29564955196E+02  0.53878405911E+02  0.00000000000E+00 0. -1.
         -5    1    5    5    0  502 -0.52339623030E+02 -0.18808639760E+02  0.56549299822E+02  0.79455109206E+02  0.47000000000E+01 0.  1.
         13    1    6    6    0    0 -0.36328357952E+02 -0.11036359857E+02  0.72247853495E+01  0.38649040787E+02  0.00000000000E+00 0. -1.
        -14    1    6    6    0    0 -0.30067525136E+02 -0.25729739434E+02 -0.92027335350E+02  0.10017537627E+03  0.00000000000E+00 0.  1.
</event>
<event>
12    1  0.1039610E+000  0.1776873E+03  0.7818608E-02  0.1170923E+00
         21   -1    0    0  501  502  0.00000000000E+00  0.00000000000E+00  0.10783881856E+03  0.10783881856E+03  0.00000000000E+00 0. -1.
         21   -1    0    0  502  503 -0.00000000000E+00 -0.00000000000E+00 -0.31965766334E+03  0.31965766334E+03  0.00000000000E+00 0. -1.
         -6    2    1    2    0  503 -0.34044362677E+02  0.29287058333E+01 -0.36744457038E+02  0.17804943821E+03  0.17083281703E+03 0.  0.
        -24    2    3    3    0    0 -0.38974363079E+02  0.51486071227E+02 -0.63643793550E+02  0.12212281715E+03  0.81814628913E+02 0.  0.
          6    2    1    2  501    0  0.34044362677E+02 -0.29287058333E+01 -0.17507438774E+03  0.24944704369E+03  0.17437084164E+03 0.  0.
         24    2    5    5    0    0  0.50139012620E+02 -0.26910224392E+02 -0.30353331972E+02  0.10179737396E+03  0.78761029827E+02 0.  0.
          5    1    5    5  501    0 -0.16094649943E+02  0.23981518559E+02 -0.14472105577E+03  0.14764966973E+03  0.47000000000E+01 0. -1.
        -11    1    6    6    0    0 -0.83622796328E+01  0.13500575737E+02 -0.26121445331E+02  0.30569971738E+02  0.00000000000E+00 0.  1.
         12    1    6    6    0    0  0.58501292253E+02 -0.40410800129E+02 -0.42318866406E+01  0.71227402219E+02  0.00000000000E+00 0. -1.
         -5    1    3    3    0  503  0.49300004014E+01 -0.48557365394E+02  0.26899336512E+02  0.55926621056E+02  0.47000000000E+01 0.  1.
         11    1    4    4    0    0 -0.39870330371E+02  0.72631772411E+02 -0.47512892604E+02  0.95511740488E+02  0.00000000000E+00 0. -1.
        -12    1    4    4    0    0  0.89596729212E+00 -0.21145701184E+02 -0.16130900946E+02  0.26611076665E+02  0.00000000000E+00 0.  1.
</event>
<event>
12    1  0.1039610E+000  0.2191411E+03  0.7818608E-02  0.1135020E+00
         21   -1    0    0  501  502  0.00000000000E+00  0.00000000000E+00  0.40460611904E+03  0.40460611904E+03  0.00000000000E+00 0. -1.
         21   -1    0    0  502  503 -0.00000000000E+00 -0.00000000000E+00 -0.11762797177E+03  0.11762797177E+03  0.00000000000E+00 0. -1.
         -6    2    1    2    0  503 -0.12768114619E+03  0.34166613990E+02  0.12826854086E+03  0.25165771903E+03  0.17149039731E+03 0.  0.
        -24    2    3    3    0    0 -0.95304599528E+01  0.47358463447E+01  0.90958972201E+01  0.81217219930E+02  0.80001522232E+02 0.  0.
          6    2    1    2  501    0  0.12768114619E+03 -0.34166613990E+02  0.15870960641E+03  0.27057637178E+03  0.17479416808E+03 0.  0.
         24    2    5    5    0    0  0.11256578270E+03 -0.87942748176E+02  0.11382297997E+03  0.19876240340E+03  0.78395407027E+02 0.  0.
          5    1    5    5  501    0  0.15115363485E+02  0.53776134185E+02  0.44886626445E+02  0.71813968382E+02  0.47000000000E+01 0. -1.
        -13    1    6    6    0    0  0.14561646006E+02 -0.56984798228E+02  0.53981257022E+02  0.79832855850E+02  0.00000000000E+00 0.  1.
         14    1    6    6    0    0  0.98004136694E+02 -0.30957949948E+02  0.59841722947E+02  0.11892954755E+03  0.00000000000E+00 0. -1.
         -5    1    3    3    0  503 -0.11815068623E+03  0.29430767646E+02  0.11917264364E+03  0.17044049910E+03  0.47000000000E+01 0.  1.
         11    1    4    4    0    0 -0.78739583582E+01  0.24735093854E+02 -0.28531506713E+02  0.38572930450E+02  0.00000000000E+00 0. -1.
        -12    1    4    4    0    0 -0.16565015946E+01 -0.19999247510E+02  0.37627403933E+02  0.42644289480E+02  0.00000000000E+00 0.  1.
</event>
<event>
12    1  0.1039610E+000  0.2670961E+03  0.7818608E-02  0.1105133E+00
         21   -1    0    0  503  502  0.00000000000E+00  0.00000000000E+00  0.56393503112E+02  0.56393503112E+02  0.00000000000E+00 0. -1.
         21   -1    0    0  501  503 -0.00000000000E+00 -0.00000000000E+00 -0.14473956987E+04  0.14473956987E+04  0.00000000000E+00 0. -1.
          6    2    1    2  501    0  0.10181303926E+03 -0.15487739293E+03 -0.39895688901E+03  0.48011136402E+03  0.19232113967E+03 0.  0.
         24    2    3    3    0    0  0.53060199887E+02 -0.12019525895E+03 -0.12038661566E+03  0.19514965262E+03  0.79549761805E+02 0.  0.
         -6    2    1    2    0  502 -0.10181303926E+03  0.15487739293E+03 -0.99204530663E+03  0.10236778378E+04  0.17149205080E+03 0.  0.
        -24    2    5    5    0    0 -0.17372303301E+02  0.67623302262E+02 -0.69089505454E+03  0.69893628128E+03  0.79380356326E+02 0.  0.
          5    1    3    3  501    0  0.48752839375E+02 -0.34682133983E+02 -0.27857027335E+03  0.28496171139E+03  0.47000000000E+01 0. -1.
        -13    1    4    4    0    0  0.42626006256E+02 -0.12407589278E+03 -0.12667091502E+03  0.18236590770E+03  0.00000000000E+00 0.  1.
         14    1    4    4    0    0  0.10434193631E+02  0.38806338352E+01  0.62842993643E+01  0.12783744920E+02  0.00000000000E+00 0. -1.
         -5    1    5    5    0  502 -0.84440735961E+02  0.87254090670E+02 -0.30115025209E+03  0.32474155657E+03  0.47000000000E+01 0.  1.
         11    1    6    6    0    0 -0.24473693524E+02  0.80178151939E+02 -0.65351587350E+03  0.65887062057E+03  0.00000000000E+00 0. -1.
        -12    1    6    6    0    0  0.71013902231E+01 -0.12554849677E+02 -0.37379181032E+02  0.40065660710E+02  0.00000000000E+00 0.  1.
</event>
<event>
12    1  0.1039610E+000  0.2386039E+03  0.7818608E-02  0.1122451E+00
         21   -1    0    0  503  502  0.00000000000E+00  0.00000000000E+00  0.22353190383E+03  0.22353190383E+03  0.00000000000E+00 0.  1.
         21   -1    0    0  501  503 -0.00000000000E+00 -0.00000000000E+00 -0.34333906207E+03  0.34333906207E+03  0.00000000000E+00 0.  1.
          6    2    1    2  501    0 -0.10506126708E+03 -0.11556066247E+03 -0.21318998922E+03  0.31997153733E+03  0.18038757344E+03 0.  0.
         24    2    3    3    0    0 -0.99720835655E+02 -0.14087281313E+03 -0.12508123178E+03  0.22802335456E+03  0.80993463546E+02 0.  0.
         -6    2    1    2    0  502  0.10506126708E+03  0.11556066247E+03  0.93382830974E+02  0.24689942857E+03  0.16687371920E+03 0.  0.
        -24    2    5    5    0    0  0.14045347330E+03  0.89901099947E+02  0.79674663029E+02  0.20084483838E+03  0.78620679490E+02 0.  0.
          5    1    3    3  501    0 -0.53404314275E+01  0.25312150661E+02 -0.88108757436E+02  0.91948182776E+02  0.47000000000E+01 0. -1.
        -11    1    4    4    0    0 -0.56670266911E+02 -0.16637147849E+02 -0.35219204292E+02  0.68765588715E+02  0.00000000000E+00 0.  1.
         12    1    4    4    0    0 -0.43050568743E+02 -0.12423566528E+03 -0.89862027488E+02  0.15925776584E+03  0.00000000000E+00 0. -1.
         -5    1    5    5    0  502 -0.35392206213E+02  0.25659562521E+02  0.13708167946E+02  0.46054590193E+02  0.47000000000E+01 0.  1.
         11    1    6    6    0    0  0.12977359438E+03  0.49663912600E+02  0.77623915979E+02  0.15916394800E+03  0.00000000000E+00 0. -1.
        -12    1    6    6    0    0  0.10679878920E+02  0.40237187347E+02  0.20507470497E+01  0.41680890379E+02  0.00000000000E+00 0.  1.
</event>
<event>
12    1  0.1039610E+000  0.1761319E+03  0.7818608E-02  0.1171915E+00
         21   -1    0    0  501  502  0.00000000000E+00  0.00000000000E+00  0.83235936989E+02  0.83235936989E+02  0.00000000000E+00 0. -1.
         21   -1    0    0  502  503 -0.00000000000E+00 -0.00000000000E+00 -0.15519668964E+04  0.15519668964E+04  0.00000000000E+00 0. -1.
         -6    2    1    2    0  503 -0.27366145152E+02  0.24229802269E+02 -0.21493327567E+02  0.17743851055E+03  0.17229762818E+03 0.  0.
        -24    2    3    3    0    0 -0.48972276446E+02  0.65902607477E+02  0.18420841803E+02  0.11564305344E+03  0.79325600299E+02 0.  0.
          6    2    1    2  501    0  0.27366145152E+02 -0.24229802269E+02 -0.14472376319E+04  0.14577643229E+04  0.17100897256E+03 0.  0.
         24    2    5    5    0    0 -0.55870038474E+01 -0.45284465047E+02 -0.13483225441E+04  0.13512960485E+04  0.77106617260E+02 0.  0.
          5    1    5    5  501    0  0.32953149000E+02  0.21054662777E+02 -0.98915087765E+02  0.10646827434E+03  0.47000000000E+01 0. -1.
        -11    1    6    6    0    0  0.31535512506E+02 -0.18254097461E+02 -0.34404097641E+03  0.34596516309E+03  0.00000000000E+00 0.  1.
         12    1    6    6    0    0 -0.37122516354E+02 -0.27030367586E+02 -0.10042815677E+04  0.10053308854E+04  0.00000000000E+00 0. -1.
         -5    1    3    3    0  503  0.21606131294E+02 -0.41672805208E+02 -0.39914169371E+02  0.61795457114E+02  0.47000000000E+01 0.  1.
         13    1    4    4    0    0 -0.31364723347E+02 -0.76170953383E+01 -0.11605714910E+02  0.34299542717E+02  0.00000000000E+00 0. -1.
        -14    1    4    4    0    0 -0.17607553099E+02  0.73519702815E+02  0.30026556713E+02  0.81343510720E+02  0.00000000000E+00 0.  1.
</event>
<event>
12    1  0.1039610E+000  0.2462928E+03  0.7818608E-02  0.1115736E+00
         21   -1    0    0  501  502  0.00000000000E+00  0.00000000000E+00  0.43563608185E+03  0.43563608185E+03  0.00000000000E+00 0. -1.
         21   -1    0    0  502  503 -0.00000000000E+00 -0.00000000000E+00 -0.21552179424E+03  0.21552179424E+03  0.00000000000E+00 0. -1.
         -6    2    1    2    0  503  0.87930357724E+02 -0.15485817451E+03 -0.83867590670E+02  0.26018058258E+03  0.17013923935E+03 0.  0.
        -24    2    3    3    0    0  0.18179590832E+02 -0.77696027792E+02 -0.10353800729E+03  0.15421746797E+03  0.81827490585E+02 0.  0.
          6    2    1    2  501    0 -0.87930357724E+02  0.15485817451E+03  0.30398187829E+03  0.39097729350E+03  0.16954486040E+03 0.  0.
         24    2    5    5    0    0 -0.71756082352E+02  0.20749500973E+02  0.12853144978E+03  0.16950114046E+03  0.81429883288E+02 0.  0.
          5    1    5    5  501    0 -0.16174275372E+02  0.13410867354E+03  0.17545042851E+03  0.22147615304E+03  0.47000000000E+01 0. -1.
        -13    1    6    6    0    0 -0.31250588633E+01  0.22204868574E+02 -0.14875613238E+01  0.22472984225E+02  0.00000000000E+00 0.  1.
         14    1    6    6    0    0 -0.68631023489E+02 -0.14553676010E+01  0.13001901110E+03  0.14702815624E+03  0.00000000000E+00 0. -1.
         -5    1    3    3    0  503  0.69750766892E+02 -0.77162146716E+02  0.19670416624E+02  0.10596311461E+03  0.47000000000E+01 0.  1.
         13    1    4    4    0    0 -0.24289556428E+02 -0.43973774034E+02 -0.81378363718E+02  0.95635314794E+02  0.00000000000E+00 0. -1.
        -14    1    4    4    0    0  0.42469147260E+02 -0.33722253758E+02 -0.22159643576E+02  0.58582153178E+02  0.00000000000E+00 0.  1.
</event>
<event>
12    1  0.1039610E+000  0.3183952E+03  0.7818608E-02  0.1076474E+00
         21   -1    0    0  503  502  0.00000000000E+00  0.00000000000E+00  0.10386661878E+04  0.10386661878E+04  0.00000000000E+00 0.  1.
         21   -1    0    0  501  503 -0.00000000000E+00 -0.00000000000E+00 -0.97387585095E+02  0.97387585095E+02  0.00000000000E+00 0.  1.
          6    2    1    2  501    0  0.26694310735E+03  0.20481269054E+02  0.47617563074E+03  0.57281651497E+03  0.17232940425E+03 0.  0.
         24    2    3    3    0    0  0.57474479230E+02 -0.10965470652E+02  0.21679768747E+03  0.23790606267E+03  0.78577987084E+02 0.  0.
         -6    2    1    2    0  502 -0.26694310735E+03 -0.20481269054E+02  0.46510297197E+03  0.56323725793E+03  0.17098926645E+03 0.  0.
        -24    2    5    5    0    0 -0.18812357246E+03  0.27856610080E+02  0.40051270211E+03  0.45035208353E+03  0.78994337422E+02 0.  0.
          5    1    3    3  501    0  0.20946862812E+03  0.31446739706E+02  0.25937794327E+03  0.33491045230E+03  0.47000000000E+01 0. -1.
        -11    1    4    4    0    0  0.67046234783E+01  0.22022695843E+02  0.15631889309E+02  0.27826373669E+02  0.00000000000E+00 0.  1.
         12    1    4    4    0    0  0.50769855752E+02 -0.32988166495E+02  0.20116579816E+03  0.21007968900E+03  0.00000000000E+00 0. -1.
         -5    1    5    5    0  502 -0.78819534890E+02 -0.48337879134E+02  0.64590269855E+02  0.11288517440E+03  0.47000000000E+01 0.  1.
         13    1    6    6    0    0 -0.38202711986E+02 -0.24433503924E+02  0.11572636542E+03  0.12429414696E+03  0.00000000000E+00 0. -1.
        -14    1    6    6    0    0 -0.14992086047E+03  0.52290114004E+02  0.28478633670E+03  0.32605793656E+03  0.00000000000E+00 0.  1.
</event>
<event>
12    1  0.1039610E+000  0.2233636E+03  0.7818608E-02  0.1131447E+00
         21   -1    0    0  501  502  0.00000000000E+00  0.00000000000E+00  0.92244957194E+03  0.92244957194E+03  0.00000000000E+00 0. -1.
         21   -1    0    0  502  503 -0.00000000000E+00 -0.00000000000E+00 -0.54688484290E+02  0.54688484290E+02  0.00000000000E+00 0. -1.
         -6    2    1    2    0  503  0.10128779472E+02  0.14329596534E+03  0.48752877999E+03  0.53615290531E+03  0.17070237460E+03 0.  0.
        -24    2    3    3    0    0 -0.26723091511E+02  0.12657469021E+02  0.25477556438E+03  0.26667076027E+03  0.72995691915E+02 0.  0.
          6    2    1    2  501    0 -0.10128779472E+02 -0.14329596534E+03  0.38023230766E+03  0.44098515092E+03  0.17104084216E+03 0.  0.
         24    2    5    5    0    0  0.15441276389E+02 -0.61455970973E+02  0.32164459975E+03  0.33703217139E+03  0.78231493793E+02 0.  0.
          5    1    5    5  501    0 -0.25570055861E+02 -0.81839994367E+02  0.58587707911E+02  0.10395297953E+03  0.47000000000E+01 0. -1.
        -11    1    6    6    0    0 -0.21428471708E+02 -0.99382232502E+01  0.18397967697E+03  0.18548980894E+03  0.00000000000E+00 0.  1.
         12    1    6    6    0    0  0.36869748097E+02 -0.51517747723E+02  0.13766492278E+03  0.15154236246E+03  0.00000000000E+00 0. -1.
         -5    1    3    3    0  503  0.36851870982E+02  0.13063849632E+03  0.23275321561E+03  0.26948214504E+03  0.47000000000E+01 0.  1.
         13    1    4    4    0    0 -0.96934500577E+01  0.16647440267E+02  0.24662135952E+03  0.24737258379E+03  0.00000000000E+00 0. -1.
        -14    1    4    4    0    0 -0.17029641453E+02 -0.39899712465E+01  0.81542048604E+01  0.19298176480E+02  0.00000000000E+00 0.  1.
</event>
<event>
12    1  0.1039610E+000  0.2069129E+03  0.7818608E-02  0.1144616E+00
         21   -1    0    0  501  502  0.00000000000E+00  0.00000000000E+00  0.75661779619E+02  0.75661779619E+02  0.00000000000E+00 0.  1.
         21   -1    0    0  502  503 -0.00000000000E+00 -0.00000000000E+00 -0.57674120772E+03  0.57674120772E+03  0.00000000000E+00 0.  1.
         -6    2    1    2    0  503 -0.10345934589E+03 -0.39253644502E+02 -0.19013396671E+03  0.27890597355E+03  0.17144366984E+03 0.  0.
        -24    2    3    3    0    0 -0.31988804555E+02 -0.75597900202E+02 -0.70874717141E+02  0.13512210169E+03  0.80600438604E+02 0.  0.
          6    2    1    2  501    0  0.10345934589E+03  0.39253644502E+02 -0.31094546139E+03  0.37349701379E+03  0.17483779479E+03 0.  0.
         24    2    5    5    0    0  0.30286055360E+02  0.70661378867E+02 -0.24848689837E+03  0.27218591706E+03  0.80182037710E+02 0.  0.
          5    1    5    5  501    0  0.73173290529E+02 -0.31407734365E+02 -0.62458563018E+02  0.10131109672E+03  0.47000000000E+01 0. -1.
        -13    1    6    6    0    0  0.28334670527E+02  0.38210614340E+02 -0.42939578868E+02  0.64083633132E+02  0.00000000000E+00 0.  1.
         14    1    6    6    0    0  0.19513848333E+01  0.32450764528E+02 -0.20554731951E+03  0.20810228393E+03  0.00000000000E+00 0. -1.
         -5    1    3    3    0  503 -0.71470541334E+02  0.36344255700E+02 -0.11925924957E+03  0.14378387187E+03  0.47000000000E+01 0.  1.
         13    1    4    4    0    0  0.13527890541E+02 -0.20971082084E+01 -0.41683308206E+02  0.43873680816E+02  0.00000000000E+00 0. -1.
        -14    1    4    4    0    0 -0.45516695096E+02 -0.73500791994E+02 -0.29191408935E+02  0.91248420873E+02  0.00000000000E+00 0.  1.
</event>
<event>
12    1  0.1039610E+000  0.2231065E+03  0.7818608E-02  0.1131684E+00
         21   -1    0    0  503  502  0.00000000000E+00  0.00000000000E+00  0.16527442554E+03  0.16527442554E+03  0.00000000000E+00 0. -1.
         21   -1    0    0  501  503 -0.00000000000E+00 -0.00000000000E+00 -0.32486360716E+03  0.32486360716E+03  0.00000000000E+00 0. -1.
          6    2    1    2  501    0  0.12774437631E+03 -0.61207658174E+02 -0.12722565715E+02  0.22346897203E+03  0.17237028365E+03 0.  0.
         24    2    3    3    0    0  0.13181059650E+03 -0.10110042779E+03  0.88455450422E+01  0.17769517367E+03  0.62466000597E+02 0.  0.
         -6    2    1    2    0  502 -0.12774437631E+03  0.61207658174E+02 -0.14686661591E+03  0.26666906067E+03  0.17169036651E+03 0.  0.
        -24    2    5    5    0    0 -0.10964383417E+03  0.85602717118E+02 -0.16558305584E+03  0.23068095638E+03  0.80289225347E+02 0.  0.
          5    1    3    3  501    0 -0.40662201948E+01  0.39892769615E+02 -0.21568110757E+02  0.45773798355E+02  0.47000000000E+01 0. -1.
        -13    1    4    4    0    0 -0.58079613540E+01 -0.87309369905E+01 -0.45083668027E+01  0.11414335156E+02  0.00000000000E+00 0.  1.
         14    1    4    4    0    0  0.13761855786E+03 -0.92369490799E+02  0.13353911845E+02  0.16628083852E+03  0.00000000000E+00 0. -1.
         -5    1    5    5    0  502 -0.18100542139E+02 -0.24395058943E+02  0.18716439933E+02  0.35988104289E+02  0.47000000000E+01 0.  1.
         11    1    6    6    0    0 -0.62752491034E+02  0.32107536643E+02 -0.28100127275E+02  0.75884031212E+02  0.00000000000E+00 0. -1.
        -12    1    6    6    0    0 -0.46891343135E+02  0.53495180475E+02 -0.13748292856E+03  0.15479692517E+03  0.00000000000E+00 0.  1.
</event>
<event>
12    1  0.1039610E+000  0.2307323E+03  0.7818608E-02  0.1126177E+00
         21   -1    0    0  503  502  0.00000000000E+00  0.00000000000E+00  0.16836509788E+03  0.16836509788E+03  0.00000000000E+00 0. -1.
         21   -1    0    0  501  503 -0.00000000000E+00 -0.00000000000E+00 -0.43729217814E+03  0.43729217814E+03  0.00000000000E+00 0. -1.
          6    2    1    2  501    0 -0.65442031342E+02  0.13937958145E+03  0.25092786053E+02  0.23209277431E+03  0.17183736725E+03 0.  0.
         24    2    3    3    0    0 -0.10368259143E+03  0.63009845143E+02  0.22457717283E+02  0.14651409328E+03  0.79004494260E+02 0.  0.
         -6    2    1    2    0  502  0.65442031342E+02 -0.13937958145E+03 -0.29401986631E+03  0.37356450171E+03  0.17144511647E+03 0.  0.
        -24    2    5    5    0    0  0.94700494324E+02 -0.93108638275E+02 -0.14095296256E+03  0.21093416978E+03  0.83594761687E+02 0.  0.
          5    1    3    3  501    0  0.38240560087E+02  0.76369736311E+02  0.26350687702E+01  0.85578681033E+02  0.47000000000E+01 0. -1.
        -13    1    4    4    0    0 -0.85621624553E+02  0.79812239241E+02  0.29783229190E+02  0.12078119417E+03  0.00000000000E+00 0.  1.
         14    1    4    4    0    0 -0.18060966876E+02 -0.16802394098E+02 -0.73255119067E+01  0.25732899110E+02  0.00000000000E+00 0. -1.
         -5    1    5    5    0  502 -0.29258462981E+02 -0.46270943179E+02 -0.15306690375E+03  0.16263033193E+03  0.47000000000E+01 0.  1.
         13    1    6    6    0    0  0.16507201128E+02 -0.74704485286E+02 -0.65217639955E+02  0.10053152924E+03  0.00000000000E+00 0. -1.
        -14    1    6    6    0    0  0.78193293196E+02 -0.18404152990E+02 -0.75735322602E+02  0.11040264054E+03  0.00000000000E+00 0.  1.
</event>
<event>
12    1  0.1039610E+000  0.3295059E+03  0.7818608E-02  0.1071372E+00
         21   -1    0    0  501  502  0.00000000000E+00  0.00000000000E+00  0.15396261669E+04  0.15396261669E+04  0.00000000000E+00 0. -1.
         21   -1    0    0  502  503 -0.00000000000E+00 -0.00000000000E+00 -0.76262670957E+02  0.76262670957E+02  0.00000000000E+00 0. -1.
         -6    2    1    2    0  503 -0.24350298348E+03  0.14052710993E+03  0.50923512287E+03  0.60646570677E+03  0.17157701343E+03 0.  0.
        -24    2    3    3    0    0 -0.20638724311E+03  0.11060320055E+03  0.49987980236E+03  0.55765350996E+03  0.79176121902E+02 0.  0.
          6    2    1    2  501    0  0.24350298348E+03 -0.14052710993E+03  0.95412837303E+03  0.10094231310E+04  0.17185032348E+03 0.  0.
         24    2    5    5    0    0  0.24300241795E+03 -0.79847520456E+02  0.80069587636E+03  0.84435985779E+03  0.80024254855E+02 0.  0.
          5    1    5    5  501    0  0.50056552230E+00 -0.60679589474E+02  0.15343249666E+03  0.16506327325E+03  0.47000000000E+01 0. -1.
        -13    1    6    6    0    0  0.18729315676E+02 -0.11212058773E+02  0.17127817604E+03  0.17266357785E+03  0.00000000000E+00 0.  1.
         14    1    6    6    0    0  0.22427310228E+03 -0.68635461683E+02  0.62941770032E+03  0.67169627994E+03  0.00000000000E+00 0. -1.
         -5    1    3    3    0  503 -0.37115740371E+02  0.29923909378E+02  0.93553205193E+01  0.48812196813E+02  0.47000000000E+01 0.  1.
         11    1    4    4    0    0 -0.73652955596E+02  0.51251550910E+01  0.19960155930E+03  0.21281871994E+03  0.00000000000E+00 0. -1.
        -12    1    4    4    0    0 -0.13273428751E+03  0.10547804546E+03  0.30027824306E+03  0.34483479002E+03  0.00000000000E+00 0.  1.
</event>
<event>
12    1  0.1039610E+000  0.2730438E+03  0.7818608E-02  0.1099675E+00
         21   -1    0    0  501  502  0.00000000000E+00  0.00000000000E+00  0.16305454052E+03  0.16305454052E+03  0.00000000000E+00 0.  1.
         21   -1    0    0  502  503 -0.00000000000E+00 -0.00000000000E+00 -0.69518300806E+03  0.69518300806E+03  0.00000000000E+00 0.  1.
         -6    2    1    2    0  503  0.15210601489E+02  0.21024948265E+03 -0.14510508469E+02  0.27342911654E+03  0.17354169401E+03 0.  0.
        -24    2    3    3    0    0  0.41271294389E+02  0.20857109182E+03  0.21254812076E+02  0.22889570364E+03  0.82074697851E+02 0.  0.
          6    2    1    2  501    0 -0.15210601489E+02 -0.21024948265E+03 -0.51761795907E+03  0.58480843205E+03  0.17215209346E+03 0.  0.
         24    2    5    5    0    0 -0.55195528310E+02 -0.21028274376E+03 -0.42820360773E+03  0.48674818676E+03  0.79373099800E+02 0.  0.
          5    1    5    5  501    0  0.39984926821E+02  0.33261109900E-01 -0.89414351343E+02  0.98060245284E+02  0.47000000000E+01 0. -1.
        -11    1    6    6    0    0  0.19170960269E+02 -0.58681486050E+02 -0.96897997048E+02  0.11489240338E+03  0.00000000000E+00 0.  1.
         12    1    6    6    0    0 -0.74366488579E+02 -0.15160125771E+03 -0.33130561068E+03  0.37185578338E+03  0.00000000000E+00 0. -1.
         -5    1    3    3    0  503 -0.26060692900E+02  0.16783908334E+01 -0.35765320546E+02  0.44533412894E+02  0.47000000000E+01 0.  1.
         13    1    4    4    0    0  0.15638348696E+02  0.65207491141E+02 -0.31384392816E+02  0.74037524022E+02  0.00000000000E+00 0. -1.
        -14    1    4    4    0    0  0.25632945693E+02  0.14336360068E+03  0.52639204893E+02  0.15485817962E+03  0.00000000000E+00 0.  1.
</event>
<event>
12    1  0.1039610E+000  0.1986436E+03  0.7818608E-02  0.1151665E+00
         21   -1    0    0  501  502  0.00000000000E+00  0.00000000000E+00  0.10798764330E+04  0.10798764330E+04  0.00000000000E+00 0.  1.
         21   -1    0    0  502  503 -0.00000000000E+00 -0.00000000000E+00 -0.73968472852E+02  0.73968472852E+02  0.00000000000E+00 0.  1.
         -6    2    1    2    0  503  0.88578464148E+02  0.34411661912E+02  0.91204748012E+02  0.21858080296E+03  0.17443897092E+03 0.  0.
        -24    2    3    3    0    0  0.48059863651E+02 -0.46770854345E+02  0.29309434743E+02  0.10864683306E+03  0.80298368970E+02 0.  0.
          6    2    1    2  501    0 -0.88578464148E+02 -0.34411661912E+02  0.91470321216E+03  0.93526410292E+03  0.17031344364E+03 0.  0.
         24    2    5    5    0    0 -0.66364936663E+02 -0.37601679050E+02  0.28855682150E+03  0.30869805728E+03  0.78811548947E+02 0.  0.
          5    1    5    5  501    0 -0.22213527485E+02  0.31900171380E+01  0.62614639066E+03  0.62656604564E+03  0.47000000000E+01 0. -1.
        -11    1    6    6    0    0  0.28140616325E+01  0.19669319925E+02  0.52240480145E+02  0.55891581253E+02  0.00000000000E+00 0.  1.
         12    1    6    6    0    0 -0.69178998296E+02 -0.57270998975E+02  0.23631634136E+03  0.25280647603E+03  0.00000000000E+00 0. -1.
         -5    1    3    3    0  503  0.40518600497E+02  0.81182516257E+02  0.61895313269E+02  0.10993396989E+03  0.47000000000E+01 0.  1.
         13    1    4    4    0    0  0.45810767370E+01 -0.54976007840E+02  0.32938884677E+02  0.64251986941E+02  0.00000000000E+00 0. -1.
        -14    1    4    4    0    0  0.43478786914E+02  0.82051534946E+01 -0.36294499337E+01  0.44394846122E+02  0.00000000000E+00 0.  1.
</event>
<event>
12    1  0.1039610E+000  0.1928019E+03  0.7818608E-02  0.1156082E+00
         21   -1    0    0  503  502  0.00000000000E+00  0.00000000000E+00  0.37353293412E+02  0.37353293412E+02  0.00000000000E+00 0. -1.
         21   -1    0    0  501  503 -0.00000000000E+00 -0.00000000000E+00 -0.11193179542E+04  0.11193179542E+04  0.00000000000E+00 0. -1.
          6    2    1    2  501    0  0.20561256082E+02  0.82361650304E+02 -0.73651467530E+03  0.76133202241E+03  0.17310798572E+03 0.  0.
         24    2    3    3    0    0  0.65027497913E+02  0.95655323390E+02 -0.64081110552E+03  0.65486497738E+03  0.69503591818E+02 0.  0.
         -6    2    1    2    0  502 -0.20561256082E+02 -0.82361650304E+02 -0.34544998546E+03  0.39533922517E+03  0.17248537276E+03 0.  0.
        -24    2    5    5    0    0 -0.78622949190E+02 -0.42030152695E+02 -0.19978169184E+03  0.23335425158E+03  0.81199633367E+02 0.  0.
          5    1    3    3  501    0 -0.44466241831E+02 -0.13293673086E+02 -0.95703569785E+02  0.10646704502E+03  0.47000000000E+01 0. -1.
        -11    1    4    4    0    0 -0.74023522221E+01  0.32989612949E+02 -0.97980608065E+02  0.10364993458E+03  0.00000000000E+00 0.  1.
         12    1    4    4    0    0  0.72429850135E+02  0.62665710441E+02 -0.54283049745E+03  0.55121504281E+03  0.00000000000E+00 0. -1.
         -5    1    5    5    0  502  0.58061693108E+02 -0.40331497609E+02 -0.14566829361E+03  0.16198497359E+03  0.47000000000E+01 0.  1.
         11    1    6    6    0    0 -0.47155832889E+02  0.17870115047E+01 -0.15864206442E+03  0.16551184426E+03  0.00000000000E+00 0. -1.
        -12    1    6    6    0    0 -0.31467116301E+02 -0.43817164199E+02 -0.41139627424E+02  0.67842407323E+02  0.00000000000E+00 0.  1.
</event>
<event>
12    1  0.1039610E+000  0.3442967E+03  0.7818608E-02  0.1065030E+00
         21   -1    0    0  503  502  0.00000000000E+00  0.00000000000E+00  0.12558187207E+04  0.12558187207E+04  0.00000000000E+00 0. -1.
         21   -1    0    0  501  503 -0.00000000000E+00 -0.00000000000E+00 -0.12898528548E+03  0.12898528548E+03  0.00000000000E+00 0.  1.
          6    2    1    2  501    0 -0.21157794966E+03 -0.21016248681E+03  0.92237766660E+03  0.98437630216E+03  0.17112172500E+03 0.  0.
         24    2    3    3    0    0 -0.13030255406E+03 -0.15474019943E+03  0.42387491460E+03  0.47623812841E+03  0.78800550835E+02 0.  0.
         -6    2    1    2    0  502  0.21157794966E+03  0.21016248681E+03  0.20445576860E+03  0.40042770399E+03  0.17206593262E+03 0.  0.
        -24    2    5    5    0    0  0.70254688666E+02  0.15911255474E+03  0.90432404524E+02  0.21174337180E+03  0.80029428055E+02 0.  0.
          5    1    3    3  501    0 -0.81275395601E+02 -0.55422287382E+02  0.49850275200E+03  0.50813817375E+03  0.47000000000E+01 0. -1.
        -13    1    4    4    0    0 -0.10681604292E+03 -0.69942962097E+02  0.22357090278E+03  0.25745996493E+03  0.00000000000E+00 0.  1.
         14    1    4    4    0    0 -0.23486511136E+02 -0.84797237332E+02  0.20030401183E+03  0.21877816348E+03  0.00000000000E+00 0. -1.
         -5    1    5    5    0  502  0.14132326099E+03  0.51049932067E+02  0.11402336408E+03  0.18868433220E+03  0.47000000000E+01 0.  1.
         11    1    6    6    0    0 -0.10961062182E+02  0.54597334871E+02  0.91954549761E+01  0.56440856225E+02  0.00000000000E+00 0. -1.
        -12    1    6    6    0    0  0.81215750848E+02  0.10451521987E+03  0.81236949547E+02  0.15530251557E+03  0.00000000000E+00 0.  1.
</event>
<event>
12    1  0.1039610E+000  0.2049353E+03  0.7818608E-02  0.1145686E+00
         21   -1    0    0  503  502  0.00000000000E+00  0.00000000000E+00  0.39937223685E+03  0.39937223685E+03  0.00000000000E+00 0. -1.
         21   -1    0    0  501  503 -0.00000000000E+00 -0.00000000000E+00 -0.12123589674E+03  0.12123589674E+03  0.00000000000E+00 0. -1.
          6    2    1    2  501    0  0.75324170117E+02  0.82341508987E+02  0.23412385260E+03  0.31100001261E+03  0.17161927276E+03 0.  0.
         24    2    3    3    0    0  0.64895107435E+02  0.12245490403E+03  0.17291978542E+03  0.23693330180E+03  0.83842464327E+02 0.  0.
         -6    2    1    2    0  502 -0.75324170117E+02 -0.82341508987E+02  0.44012487506E+02  0.20960812098E+03  0.17188545784E+03 0.  0.
        -24    2    5    5    0    0 -0.77022177420E+02 -0.38431929836E+02  0.90034487090E+02  0.14580334987E+03  0.75782444693E+02 0.  0.
          5    1    3    3  501    0  0.10429062682E+02 -0.40113395043E+02  0.61204067181E+02  0.74066710807E+02  0.47000000000E+01 0. -1.
        -13    1    4    4    0    0  0.52074332841E+02  0.29634380116E+02  0.32619532922E+02  0.68219986469E+02  0.00000000000E+00 0.  1.
         14    1    4    4    0    0  0.12820774594E+02  0.92820523914E+02  0.14030025250E+03  0.16871331533E+03  0.00000000000E+00 0. -1.
         -5    1    5    5    0  502  0.16980073026E+01 -0.43909579151E+02 -0.46021999584E+02  0.63804771104E+02  0.47000000000E+01 0.  1.
         11    1    6    6    0    0  0.68174095668E+01 -0.45788500555E+01  0.43206661291E+02  0.43980206013E+02  0.00000000000E+00 0. -1.
        -12    1    6    6    0    0 -0.83839586987E+02 -0.33853079781E+02  0.46827825799E+02  0.10182314386E+03  0.00000000000E+00 0.  1.
</event>
<event>
12    1  0.1039610E+000  0.2941045E+03  0.7818608E-02  0.1088504E+00
         21   -1    0    0  503  502  0.00000000000E+00  0.00000000000E+00  0.29828863703E+03  0.29828863703E+03  0.00000000000E+00 0.  1.
         21   -1    0    0  501  503 -0.00000000000E+00 -0.00000000000E+00 -0.28992090653E+03  0.28992090653E+03  0.00000000000E+00 0. -1.
          6    2    1    2  501    0  0.23703537326E+03 -0.12627076996E+00  0.29053442111E+02  0.29553610294E+03  0.17410256035E+03 0.  0.
         24    2    3    3    0    0  0.54212864263E+02 -0.12549213533E+02  0.53632840743E+02  0.11059114859E+03  0.79103749139E+02 0.  0.
         -6    2    1    2    0  502 -0.23703537326E+03  0.12627076996E+00 -0.20685711607E+02  0.29267344062E+03  0.17042317934E+03 0.  0.
        -24    2    5    5    0    0 -0.21895640673E+03  0.54308789447E+01 -0.68149327336E+02  0.24139115599E+03  0.75192798052E+02 0.  0.
          5    1    3    3  501    0  0.18282250900E+03  0.12422942763E+02 -0.24579398632E+02  0.18494495435E+03  0.47000000000E+01 0. -1.
        -11    1    4    4    0    0  0.14882497833E+02  0.22326244659E+02 -0.94775468495E+01  0.28456525378E+02  0.00000000000E+00 0.  1.
         12    1    4    4    0    0  0.39330366431E+02 -0.34875458192E+02  0.63110387593E+02  0.82134623210E+02  0.00000000000E+00 0. -1.
         -5    1    5    5    0  502 -0.18078966527E+02 -0.53046081748E+01  0.47463615728E+02  0.51282284627E+02  0.47000000000E+01 0.  1.
         11    1    6    6    0    0 -0.76909666091E+02 -0.12967245094E+02 -0.59127702343E+02  0.97874058707E+02  0.00000000000E+00 0. -1.
        -12    1    6    6    0    0 -0.14204674064E+03  0.18398124039E+02 -0.90216249930E+01  0.14351709728E+03  0.00000000000E+00 0.  1.
</event>
<event>
12    1  0.1039610E+000  0.3472619E+03  0.7818608E-02  0.1063775E+00
         21   -1    0    0  501  502  0.00000000000E+00  0.00000000000E+00  0.37174726395E+03  0.37174726395E+03  0.00000000000E+00 0.  1.
         21   -1    0    0  502  503 -0.00000000000E+00 -0.00000000000E+00 -0.40188612523E+03  0.40188612523E+03  0.00000000000E+00 0.  1.
         -6    2    1    2    0  503  0.10684518809E+03 -0.28139728420E+03  0.15508623003E+03  0.38031902589E+03  0.17317764561E+03 0.  0.
        -24    2    3    3    0    0  0.73484028814E+02 -0.14536147250E+03  0.15847796087E+03  0.24013235445E+03  0.77578498274E+02 0.  0.
          6    2    1    2  501    0 -0.10684518809E+03  0.28139728420E+03 -0.18522509131E+03  0.39331436329E+03  0.17259063748E+03 0.  0.
         24    2    5    5    0    0 -0.67480187738E+02  0.58296963124E+02 -0.51719917728E+02  0.13031421521E+03  0.79716580142E+02 0.  0.
          5    1    5    5  501    0 -0.39365000356E+02  0.22310032107E+03 -0.13350517359E+03  0.26300014808E+03  0.47000000000E+01 0. -1.
        -13    1    6    6    0    0 -0.48679615582E+02  0.25591308260E+02 -0.69485261878E+02  0.88616147794E+02  0.00000000000E+00 0.  1.
         14    1    6    6    0    0 -0.18800572156E+02  0.32705654865E+02  0.17765344150E+02  0.41698067417E+02  0.00000000000E+00 0. -1.
         -5    1    3    3    0  503  0.33361159280E+02 -0.13603581170E+03 -0.33917308363E+01  0.14018667144E+03  0.47000000000E+01 0.  1.
         11    1    4    4    0    0 -0.34575120011E+01 -0.61274705047E+02  0.83800526102E+02  0.10387045799E+03  0.00000000000E+00 0. -1.
        -12    1    4    4    0    0  0.76941540815E+02 -0.84086767458E+02  0.74677434764E+02  0.13626189646E+03  0.00000000000E+00 0.  1.
</event>
<event>
12    1  0.1039610E+000  0.2248202E+03  0.7818608E-02  0.1130520E+00
         21   -1    0    0  501  502  0.00000000000E+00  0.00000000000E+00  0.97019274206E+03  0.97019274206E+03  0.00000000000E+00 0.  1.
         21   -1    0    0  502  503 -0.00000000000E+00 -0.00000000000E+00 -0.61016250705E+02  0.61016250705E+02  0.00000000000E+00 0.  1.
         -6    2    1    2    0  503 -0.10379303416E+03  0.98713440730E+02  0.65510139629E+03  0.69260521297E+03  0.17328244077E+03 0.  0.
        -24    2    3    3    0    0 -0.10613280993E+03  0.13051003212E+03  0.48536361555E+03  0.51983512879E+03  0.79709974258E+02 0.  0.
          6    2    1    2  501    0  0.10379303416E+03 -0.98713440730E+02  0.25407509506E+03  0.33860377980E+03  0.17199136154E+03 0.  0.
         24    2    5    5    0    0  0.38262936436E+02 -0.10030793171E+03  0.87777614267E+02  0.15979192832E+03  0.79390284812E+02 0.  0.
          5    1    5    5  501    0  0.65530097728E+02  0.15944909790E+01  0.16629748080E+03  0.17881185148E+03  0.47000000000E+01 0. -1.
        -11    1    6    6    0    0 -0.21820643105E+02 -0.16782768792E+02  0.55534778394E+01  0.28082786720E+02  0.00000000000E+00 0.  1.
         12    1    6    6    0    0  0.60083579541E+02 -0.83525162916E+02  0.82224136427E+02  0.13170914160E+03  0.00000000000E+00 0. -1.
         -5    1    3    3    0  503  0.23397757636E+01 -0.31796591389E+02  0.16973778075E+03  0.17277008418E+03  0.47000000000E+01 0.  1.
         13    1    4    4    0    0 -0.67721119516E+02  0.23684362820E+02  0.16384503809E+03  0.17886390239E+03  0.00000000000E+00 0. -1.
        -14    1    4    4    0    0 -0.38411690412E+02  0.10682566930E+03  0.32151857746E+03  0.34097122640E+03  0.00000000000E+00 0.  1.
</event>
<event>
12    1  0.1039610E+000  0.3050740E+03  0.7818608E-02  0.1084081E+00
         21   -1    0    0  503  502  0.00000000000E+00  0.00000000000E+00  0.34257357967E+03  0.34257357967E+03  0.00000000000E+00 0. -1.
         21   -1    0    0  501  503 -0.00000000000E+00 -0.00000000000E+00 -0.75499762470E+03  0.75499762470E+03  0.00000000000E+00 0.  1.
          6    2    1    2  501    0 -0.11366011610E+03  0.21020730189E+03 -0.64829506577E+03  0.71194796327E+03  0.17169064720E+03 0.  0.
         24    2    3    3    0    0 -0.12645175811E+03  0.21992228511E+03 -0.64053938882E+03  0.69350216349E+03  0.79364245893E+02 0.  0.
         -6    2    1    2    0  502  0.11366011610E+03 -0.21020730189E+03  0.23587102073E+03  0.38562324110E+03  0.18964285880E+03 0.  0.
        -24    2    5    5    0    0  0.12838817418E+03 -0.10584182457E+03  0.89318523288E+02  0.20504419176E+03  0.79870563259E+02 0.  0.
          5    1    3    3  501    0  0.12791642016E+02 -0.97149832127E+01 -0.77556769521E+01  0.18445799773E+02  0.47000000000E+01 0. -1.
        -13    1    4    4    0    0 -0.43980033430E+02  0.18126435229E+02 -0.10375346678E+03  0.11413848108E+03  0.00000000000E+00 0.  1.
         14    1    4    4    0    0 -0.82471724681E+02  0.20179584988E+03 -0.53678592204E+03  0.57936368241E+03  0.00000000000E+00 0. -1.
         -5    1    5    5    0  502 -0.14728058085E+02 -0.10436547733E+03  0.14655249745E+03  0.18057904934E+03  0.47000000000E+01 0.  1.
         11    1    6    6    0    0  0.39490513195E+02 -0.36893447918E+02  0.73808010630E+02  0.91478137086E+02  0.00000000000E+00 0. -1.
        -12    1    6    6    0    0  0.88897660987E+02 -0.68948376648E+02  0.15510512658E+02  0.11356605467E+03  0.00000000000E+00 0.  1.
</event>
<event>
12    1  0.1039610E+000  0.1854024E+03  0.7818608E-02  0.1163338E+00
         21   -1    0    0  503  502  0.00000000000E+00  0.00000000000E+00  0.11264803947E+03  0.11264803947E+03  0.00000000000E+00 0. -1.
         21   -1    0    0  501  503 -0.00000000000E+00 -0.00000000000E+00 -0.45855757256E+03  0.45855757256E+03  0.00000000000E+00 0. -1.
          6    2    1    2  501    0 -0.25956955796E+02 -0.52600385095E+02 -0.44163587354E+01  0.18262917095E+03  0.17289692244E+03 0.  0.
         24    2    3    3    0    0 -0.26112141949E+01  0.22185022620E+02  0.37457663636E+02  0.93671851927E+02  0.82899611641E+02 0.  0.
         -6    2    1    2    0  502  0.25956955796E+02  0.52600385095E+02 -0.34149317435E+03  0.38857644107E+03  0.17587921526E+03 0.  0.
        -24    2    5    5    0    0  0.39246827526E+02  0.22055779667E+02 -0.71758631507E+02  0.11675221990E+03  0.80343069201E+02 0.  0.
          5    1    3    3  501    0 -0.23345741601E+02 -0.74785407715E+02 -0.41874022371E+02  0.88957319021E+02  0.47000000000E+01 0. -1.
        -11    1    4    4    0    0 -0.42512059588E+02  0.89018300467E+01  0.23363710980E+02  0.49319172533E+02  0.00000000000E+00 0.  1.
         12    1    4    4    0    0  0.39900845393E+02  0.13283192573E+02  0.14093952656E+02  0.44352679394E+02  0.00000000000E+00 0. -1.
         -5    1    5    5    0  502 -0.13289871730E+02  0.30544605427E+02 -0.26973454285E+03  0.27182422117E+03  0.47000000000E+01 0.  1.
         13    1    6    6    0    0 -0.19605707061E+01 -0.19911880401E+02 -0.50317956501E+02  0.54150009834E+02  0.00000000000E+00 0. -1.
        -14    1    6    6    0    0  0.41207398232E+02  0.41967660068E+02 -0.21440675006E+02  0.62602210068E+02  0.00000000000E+00 0.  1.
</event>
<event>
12    1  0.1039610E+000  0.2056801E+03  0.7818608E-02  0.1145204E+00
         21   -1    0    0  501  502  0.00000000000E+00  0.00000000000E+00  0.69307455051E+03  0.69307455051E+03  0.00000000000E+00 0.  1.
         21   -1    0    0  502  503 -0.00000000000E+00 -0.00000000000E+00 -0.64023042180E+02  0.64023042180E+02  0.00000000000E+00 0.  1.
         -6    2    1    2    0  503 -0.10839124347E+03  0.24019671284E+02  0.23007209134E+03  0.30860565845E+03  0.17314352122E+03 0.  0.
        -24    2    3    3    0    0 -0.68290029755E+01  0.57583757055E+02  0.10999837396E+03  0.14772923335E+03  0.79760640373E+02 0.  0.
          6    2    1    2  501    0  0.10839124347E+03 -0.24019671284E+02  0.39897941699E+03  0.44849193424E+03  0.17214770876E+03 0.  0.
         24    2    5    5    0    0  0.11598798122E+03 -0.21192111716E+02  0.18161078402E+03  0.23092144425E+03  0.80249106878E+02 0.  0.
          5    1    5    5  501    0 -0.75967377539E+01 -0.28275595672E+01  0.21736863297E+03  0.21757048999E+03  0.47000000000E+01 0. -1.
        -13    1    6    6    0    0  0.11178986976E+03 -0.35586937988E+02  0.12120843803E+03  0.16868577470E+03  0.00000000000E+00 0.  1.
         14    1    6    6    0    0  0.41981114626E+01  0.14394826272E+02  0.60402345989E+02  0.62235669549E+02  0.00000000000E+00 0. -1.
         -5    1    3    3    0  503 -0.10156224049E+03 -0.33564085771E+02  0.12007371738E+03  0.16087642510E+03  0.47000000000E+01 0.  1.
         11    1    4    4    0    0  0.28449523109E+02  0.30117921391E+00  0.50286572391E+02  0.57777205166E+02  0.00000000000E+00 0. -1.
        -12    1    4    4    0    0 -0.35278526085E+02  0.57282577841E+02  0.59711801574E+02  0.89952028182E+02  0.00000000000E+00 0.  1.
</event>
<event>
12    1  0.1039610E+000  0.1916140E+03  0.7818608E-02  0.1158011E+00
         21   -1    0    0  503  502  0.00000000000E+00  0.00000000000E+00  0.38332752338E+03  0.38332752338E+03  0.00000000000E+00 0. -1.
         21   -1    0    0  501  503 -0.00000000000E+00 -0.00000000000E+00 -0.98793766287E+02  0.98793766287E+02  0.00000000000E+00 0. -1.
          6    2    1    2  501    0 -0.79606360162E+01 -0.73043493232E+02  0.85360846713E+02  0.20574154275E+03  0.17217544724E+03 0.  0.
         24    2    3    3    0    0  0.53019712167E+02 -0.76347368853E+01  0.56856112231E+02  0.11176538535E+03  0.79934377955E+02 0.  0.
         -6    2    1    2    0  502  0.79606360162E+01  0.73043493232E+02  0.19917291038E+03  0.27637974692E+03  0.17696664275E+03 0.  0.
        -24    2    5    5    0    0  0.63594570807E+02  0.83418328173E+02  0.11598088113E+03  0.17565350589E+03  0.79998140186E+02 0.  0.
          5    1    3    3  501    0 -0.60980348183E+02 -0.65408756347E+02  0.28504734483E+02  0.93976157398E+02  0.47000000000E+01 0. -1.
        -13    1    4    4    0    0  0.20100576203E+02  0.20794540368E+02  0.61560575213E+02  0.68015810613E+02  0.00000000000E+00 0.  1.
         14    1    4    4    0    0  0.32919135964E+02 -0.28429277253E+02 -0.47044629825E+01  0.43749574738E+02  0.00000000000E+00 0. -1.
         -5    1    5    5    0  502 -0.55633934791E+02 -0.10374834941E+02  0.83192029252E+02  0.10072624103E+03  0.47000000000E+01 0.  1.
         13    1    6    6    0    0  0.15178147567E+02 -0.15098967802E+02  0.26252898969E+02  0.33875798094E+02  0.00000000000E+00 0. -1.
        -14    1    6    6    0    0  0.48416423240E+02  0.98517295976E+02  0.89727982160E+02  0.14177770780E+03  0.00000000000E+00 0.  1.
</event>
<event>
12    1  0.1039610E+000  0.3460172E+03  0.7818608E-02  0.1064358E+00
         21   -1    0    0  503  502  0.00000000000E+00  0.00000000000E+00  0.12331665723E+03  0.12331665723E+03  0.00000000000E+00 0.  1.
         21   -1    0    0  501  503 -0.00000000000E+00 -0.00000000000E+00 -0.14113030489E+04  0.14113030489E+04  0.00000000000E+00 0. -1.
          6    2    1    2  501    0 -0.29730357732E+03 -0.27008556342E+02 -0.21350394779E+03  0.40579711746E+03  0.17311408266E+03 0.  0.
         24    2    3    3    0    0 -0.20681244492E+03 -0.63737597179E+02 -0.88679226164E+02  0.24723807921E+03  0.80179760464E+02 0.  0.
         -6    2    1    2    0  502  0.29730357732E+03  0.27008556342E+02 -0.10744824439E+04  0.11288225887E+04  0.17495438055E+03 0.  0.
        -24    2    5    5    0    0  0.25971290123E+03  0.60897654178E+02 -0.10041753778E+04  0.10420660130E+04  0.79837777578E+02 0.  0.
          5    1    3    3  501    0 -0.90491132398E+02  0.36729040838E+02 -0.12482472162E+03  0.15855903825E+03  0.47000000000E+01 0. -1.
        -13    1    4    4    0    0 -0.24159791747E+02 -0.39013280352E+02 -0.24821127167E+02  0.52171064153E+02  0.00000000000E+00 0.  1.
         14    1    4    4    0    0 -0.18265265317E+03 -0.24724316828E+02 -0.63858098998E+02  0.19506701505E+03  0.00000000000E+00 0. -1.
         -5    1    5    5    0  502  0.37590676087E+02 -0.33889097836E+02 -0.70307066131E+02  0.86756575709E+02  0.47000000000E+01 0.  1.
         11    1    6    6    0    0  0.38579198262E+02  0.23443215133E+02 -0.88821946276E+02  0.99635721579E+02  0.00000000000E+00 0. -1.
        -12    1    6    6    0    0  0.22113370297E+03  0.37454439045E+02 -0.91535343152E+03  0.94243029142E+03  0.00000000000E+00 0.  1.
</event>
<event>
12    1  0.1039610E+000  0.1927710E+03  0.7818608E-02  0.1156338E+00
         21   -1    0    0  501  502  0.00000000000E+00  0.00000000000E+00  0.44288992376E+03  0.44288992376E+03  0.00000000000E+00 0. -1.
         21   -1    0    0  502  503 -0.00000000000E+00 -0.00000000000E+00 -0.83226845820E+02  0.83226845820E+02  0.00000000000E+00 0. -1.
         -6    2    1    2    0  503 -0.47453470293E+02 -0.69785711926E+02  0.18196529099E+03  0.26393905372E+03  0.17155343051E+03 0.  0.
        -24    2    3    3    0    0  0.65440598060E+01 -0.10004060349E+03  0.13021740867E+03  0.18312429613E+03  0.80789771910E+02 0.  0.
          6    2    1    2  501    0  0.47453470293E+02  0.69785711926E+02  0.17769778695E+03  0.26217771586E+03  0.17331697486E+03 0.  0.
         24    2    5    5    0    0  0.53699457378E+02  0.10673022847E+03  0.99994286025E+02  0.17578423397E+03  0.81401881327E+02 0.  0.
          5    1    5    5  501    0 -0.62459870852E+01 -0.36944516541E+02  0.77703500927E+02  0.86393481892E+02  0.47000000000E+01 0. -1.
        -13    1    6    6    0    0  0.19436352260E+02 -0.10609457473E+02  0.18671511497E+02  0.28964766849E+02  0.00000000000E+00 0.  1.
         14    1    6    6    0    0  0.34263105118E+02  0.11733968594E+03  0.81322774528E+02  0.14681946712E+03  0.00000000000E+00 0. -1.
         -5    1    3    3    0  503 -0.53997530099E+02  0.30254891563E+02  0.51747882313E+02  0.80814757589E+02  0.47000000000E+01 0.  1.
         13    1    4    4    0    0 -0.15101357306E+02 -0.88564529791E+02  0.13072280926E+03  0.15861960720E+03  0.00000000000E+00 0. -1.
        -14    1    4    4    0    0  0.21645417112E+02 -0.11476073698E+02 -0.50540058366E+00  0.24504688923E+02  0.00000000000E+00 0.  1.
</event>
<event>
12    1  0.1039610E+000  0.2022606E+03  0.7818608E-02  0.1148595E+00
         21   -1    0    0  501  502  0.00000000000E+00  0.00000000000E+00  0.44707647583E+02  0.44707647583E+02  0.00000000000E+00 0. -1.
         21   -1    0    0  502  503 -0.00000000000E+00 -0.00000000000E+00 -0.93722872344E+03  0.93722872344E+03  0.00000000000E+00 0. -1.
         -6    2    1    2    0  503 -0.84199513798E+02  0.58630108453E+02 -0.35087404706E+03  0.40499625543E+03  0.17430525600E+03 0.  0.
        -24    2    3    3    0    0 -0.70680607561E+02 -0.19152095978E+02 -0.27469420242E+03  0.29518600599E+03  0.79469001660E+02 0.  0.
          6    2    1    2  501    0  0.84199513798E+02 -0.58630108453E+02 -0.54164702880E+03  0.57694011560E+03  0.17015094897E+03 0.  0.
         24    2    5    5    0    0  0.59488014271E+02  0.30096553149E+02 -0.32652599808E+03  0.34288408268E+03  0.80657550041E+02 0.  0.
          5    1    5    5  501    0  0.24711499527E+02 -0.88726661602E+02 -0.21512103071E+03  0.23405603291E+03  0.47000000000E+01 0. -1.
        -13    1    6    6    0    0 -0.28134073654E+01 -0.22595801922E+02 -0.82035953324E+02  0.85137436908E+02  0.00000000000E+00 0.  1.
         14    1    6    6    0    0  0.62301421636E+02  0.52692355072E+02 -0.24449004476E+03  0.25774664577E+03  0.00000000000E+00 0. -1.
         -5    1    3    3    0  503 -0.13518906237E+02  0.77782204431E+02 -0.76179844643E+02  0.10981024944E+03  0.47000000000E+01 0.  1.
         13    1    4    4    0    0 -0.55577815832E+02 -0.16742269529E+02 -0.74665243539E+02  0.94573229798E+02  0.00000000000E+00 0. -1.
        -14    1    4    4    0    0 -0.15102791729E+02 -0.24098264492E+01 -0.20002895888E+03  0.20061277619E+03  0.00000000000E+00 0.  1.
</event>
<event>
12    1  0.1039610E+000  0.2913146E+03  0.7818608E-02  0.1089752E+00
         21   -1    0    0  501  502  0.00000000000E+00  0.00000000000E+00  0.43891713666E+02  0.43891713666E+02  0.00000000000E+00 0.  1.
         21   -1    0    0  502  503 -0.00000000000E+00 -0.00000000000E+00 -0.21938113744E+04  0.21938113744E+04  0.00000000000E+00 0.  1.
         -6    2    1    2    0  503 -0.13568573057E+03 -0.19067161913E+03 -0.68516187116E+03  0.74425755709E+03  0.17235497604E+03 0.  0.
        -24    2    3    3    0    0 -0.13117272541E+03 -0.21359680751E+03 -0.65658898940E+03  0.70704961372E+03  0.77331592410E+02 0.  0.
          6    2    1    2  501    0  0.13568573057E+03  0.19067161913E+03 -0.14647577896E+04  0.14934455310E+04  0.17348742913E+03 0.  0.
         24    2    5    5    0    0  0.10215370171E+03  0.16976361638E+03 -0.14094079230E+04  0.14252748682E+04  0.75648477842E+02 0.  0.
          5    1    5    5  501    0  0.33532028866E+02  0.20908002750E+02 -0.55349866592E+02  0.68170662830E+02  0.47000000000E+01 0. -1.
        -13    1    6    6    0    0  0.70197823749E+02  0.82966098028E+02 -0.98066267259E+03  0.98666629886E+03  0.00000000000E+00 0.  1.
         14    1    6    6    0    0  0.31955877958E+02  0.86797518350E+02 -0.42874525040E+03  0.43860856931E+03  0.00000000000E+00 0. -1.
         -5    1    3    3    0  503 -0.45130051621E+01  0.22925188378E+02 -0.28572881760E+02  0.37207943370E+02  0.47000000000E+01 0.  1.
         11    1    4    4    0    0 -0.62923230482E+02 -0.83839230604E+02 -0.37763777716E+03  0.39191662412E+03  0.00000000000E+00 0. -1.
        -12    1    4    4    0    0 -0.68249494929E+02 -0.12975757690E+03 -0.27895121224E+03  0.31513298960E+03  0.00000000000E+00 0.  1.
</event>
<event>
12    1  0.1039610E+000  0.2224370E+03  0.7818608E-02  0.1132245E+00
         21   -1    0    0  503  502  0.00000000000E+00  0.00000000000E+00  0.31163589576E+03  0.31163589576E+03  0.00000000000E+00 0.  1.
         21   -1    0    0  501  503 -0.00000000000E+00 -0.00000000000E+00 -0.35872339855E+03  0.35872339855E+03  0.00000000000E+00 0.  1.
          6    2    1    2  501    0  0.48264198182E+02 -0.13305783974E+03  0.22712136027E+03  0.31727472219E+03  0.17042686263E+03 0.  0.
         24    2    3    3    0    0  0.94748172625E+02 -0.93365487014E+02  0.19034738117E+03  0.24578585394E+03  0.80524717303E+02 0.  0.
         -6    2    1    2    0  502 -0.48264198182E+02  0.13305783974E+03 -0.27420886305E+03  0.35308457212E+03  0.17159368563E+03 0.  0.
        -24    2    5    5    0    0 -0.95192815095E+02  0.65848384000E+02 -0.16926997554E+03  0.21984168811E+03  0.79248731785E+02 0.  0.
          5    1    3    3  501    0 -0.46483974443E+02 -0.39692352729E+02  0.36773979098E+02  0.71488868251E+02  0.47000000000E+01 0. -1.
        -13    1    4    4    0    0  0.47077257697E+02 -0.68166129880E+01  0.10479630612E+03  0.11508692445E+03  0.00000000000E+00 0.  1.
         14    1    4    4    0    0  0.47670914928E+02 -0.86548874026E+02  0.85551075054E+02  0.13069892948E+03  0.00000000000E+00 0. -1.
         -5    1    5    5    0  502  0.46928616913E+02  0.67209455743E+02 -0.10493888751E+03  0.13324288401E+03  0.47000000000E+01 0.  1.
         13    1    6    6    0    0 -0.18198142044E+02  0.39389116867E+02 -0.15916628634E+02  0.46217031152E+02  0.00000000000E+00 0. -1.
        -14    1    6    6    0    0 -0.76994673051E+02  0.26459267132E+02 -0.15335334691E+03  0.17362465696E+03  0.00000000000E+00 0.  1.
</event>
<event>
12    1  0.1039610E+000  0.1989537E+03  0.7818608E-02  0.1150680E+00
         21   -1    0    0  501  502  0.00000000000E+00  0.00000000000E+00  0.13405933455E+03  0.13405933455E+03  0.00000000000E+00 0.  1.
         21   -1    0    0  502  503 -0.00000000000E+00 -0.00000000000E+00 -0.30150074144E+03  0.30150074144E+03  0.00000000000E+00 0.  1.
         -6    2    1    2    0  503  0.92875785489E+02  0.37407661831E+02 -0.51488590608E+02  0.20550831675E+03  0.17192250753E+03 0.  0.
        -24    2    3    3    0    0  0.76404132175E+02  0.45952779659E+02 -0.98720228103E+02  0.15454507527E+03  0.78671770554E+02 0.  0.
          6    2    1    2  501    0 -0.92875785489E+02 -0.37407661831E+02 -0.11595281628E+03  0.23005175924E+03  0.17162025415E+03 0.  0.
         24    2    5    5    0    0 -0.30391103994E+02 -0.26996520740E+02 -0.13719252591E+03  0.16307457995E+03  0.78224664437E+02 0.  0.
          5    1    5    5  501    0 -0.62484681495E+02 -0.10411141090E+02  0.21239709637E+02  0.66977179291E+02  0.47000000000E+01 0. -1.
        -11    1    6    6    0    0  0.12791442232E+01 -0.42649669284E+02 -0.35780650334E+02  0.55685594531E+02  0.00000000000E+00 0.  1.
         12    1    6    6    0    0 -0.31670248217E+02  0.15653148543E+02 -0.10141187558E+03  0.10738898542E+03  0.00000000000E+00 0. -1.
         -5    1    3    3    0  503  0.16471653314E+02 -0.85451178281E+01  0.47231637495E+02  0.50963241479E+02  0.47000000000E+01 0.  1.
         13    1    4    4    0    0  0.15325826054E+02  0.52692370159E+02 -0.30704130685E+02  0.62881717997E+02  0.00000000000E+00 0. -1.
        -14    1    4    4    0    0  0.61078306121E+02 -0.67395905001E+01 -0.68016097418E+02  0.91663357274E+02  0.00000000000E+00 0.  1.
</event>
<event>
12    1  0.1039610E+000  0.3263526E+03  0.7818608E-02  0.1072837E+00
         21   -1    0    0  503  502  0.00000000000E+00  0.00000000000E+00  0.49049280199E+03  0.49049280199E+03  0.00000000000E+00 0.  1.
         21   -1    0    0  501  503 -0.00000000000E+00 -0.00000000000E+00 -0.34812641776E+03  0.34812641776E+03  0.00000000000E+00 0.  1.
          6    2    1    2  501    0  0.24039431592E+02 -0.27604913778E+03  0.32886468453E+03  0.46331195953E+03  0.17240931055E+03 0.  0.
         24    2    3    3    0    0 -0.47883186160E+02 -0.11525740917E+03  0.12672511359E+03  0.19515279210E+03  0.80301232638E+02 0.  0.
         -6    2    1    2    0  502 -0.24039431592E+02  0.27604913778E+03 -0.18649830031E+03  0.37530726023E+03  0.17115169534E+03 0.  0.
        -24    2    5    5    0    0 -0.64274740223E+02  0.23091358372E+03 -0.96537560694E+02  0.26681245402E+03  0.66460963129E+02 0.  0.
          5    1    3    3  501    0  0.71922617752E+02 -0.16079172861E+03  0.20213957095E+03  0.26815916743E+03  0.47000000000E+01 0. -1.
        -13    1    4    4    0    0 -0.51783239228E+02 -0.24171972706E+02  0.52216417274E+02  0.77410221305E+02  0.00000000000E+00 0.  1.
         14    1    4    4    0    0  0.39000530682E+01 -0.91085436468E+02  0.74508696313E+02  0.11774257079E+03  0.00000000000E+00 0. -1.
         -5    1    5    5    0  502  0.40235308631E+02  0.45135554066E+02 -0.89960739614E+02  0.10849480620E+03  0.47000000000E+01 0.  1.
         11    1    6    6    0    0  0.83027557336E+01  0.88277450584E+02 -0.36381277281E+02  0.95840708318E+02  0.00000000000E+00 0. -1.
        -12    1    6    6    0    0 -0.72577495956E+02  0.14263613314E+03 -0.60156283413E+02  0.17097174570E+03  0.00000000000E+00 0.  1.
</event>
<event>
12    1  0.1039610E+000  0.1905854E+03  0.7818608E-02  0.1157945E+00
         21   -1    0    0  501  502  0.00000000000E+00  0.00000000000E+00  0.10623893094E+03  0.10623893094E+03  0.00000000000E+00 0.  1.
         21   -1    0    0  502  503 -0.00000000000E+00 -0.00000000000E+00 -0.43003712211E+03  0.43003712211E+03  0.00000000000E+00 0.  1.
         -6    2    1    2    0  503 -0.82167833048E+02  0.54719251793E+01 -0.28336884241E+03  0.34149772533E+03  0.17187582961E+03 0.  0.
        -24    2    3    3    0    0  0.11465805634E+02 -0.26921422980E+01 -0.66220701745E+02  0.10483485269E+03  0.80414256638E+02 0.  0.
          6    2    1    2  501    0  0.82167833048E+02 -0.54719251793E+01 -0.40429348751E+02  0.19477832771E+03  0.17182133149E+03 0.  0.
         24    2    5    5    0    0  0.11697760695E+03  0.36432765026E+01 -0.46725838813E+02  0.15794704960E+03  0.95220441469E+02 0.  0.
          5    1    5    5  501    0 -0.34809773898E+02 -0.91152016819E+01  0.62964900623E+01  0.36831278115E+02  0.47000000000E+01 0. -1.
        -11    1    6    6    0    0  0.14243084478E+02 -0.25335492328E+02  0.16957840452E+02  0.33649977411E+02  0.00000000000E+00 0.  1.
         12    1    6    6    0    0  0.10273452247E+03  0.28978768830E+02 -0.63683679265E+02  0.12429707219E+03  0.00000000000E+00 0. -1.
         -5    1    3    3    0  503 -0.93633638682E+02  0.81640674773E+01 -0.21714814067E+03  0.23666287264E+03  0.47000000000E+01 0.  1.
         13    1    4    4    0    0  0.12794978177E+02  0.30835364426E+02 -0.62780631758E+02  0.71105125622E+02  0.00000000000E+00 0. -1.
        -14    1    4    4    0    0 -0.13291725425E+01 -0.33527506724E+02 -0.34400699878E+01  0.33729727072E+02  0.00000000000E+00 0.  1.
</event>
<event>
12    1  0.1039610E+000  0.1939976E+03  0.7818608E-02  0.1156786E+00
         21   -1    0    0  503  502  0.00000000000E+00  0.00000000000E+00  0.11312043515E+04  0.11312043515E+04  0.00000000000E+00 0. -1.
         21   -1    0    0  501  503 -0.00000000000E+00 -0.00000000000E+00 -0.48757849648E+02  0.48757849648E+02  0.00000000000E+00 0. -1.
          6    2    1    2  501    0  0.77496743352E+02 -0.34788151013E+02  0.88080133528E+03  0.90014822518E+03  0.16504506769E+03 0.  0.
         24    2    3    3    0    0  0.71133515103E+02  0.22315667243E+02  0.74331111040E+03  0.75106104038E+03  0.77610009347E+02 0.  0.
         -6    2    1    2    0  502 -0.77496743352E+02  0.34788151013E+02  0.20164516654E+03  0.27981397594E+03  0.17441080030E+03 0.  0.
        -24    2    5    5    0    0  0.17516342452E+02  0.30370813375E+02  0.14272661406E+03  0.16782966824E+03  0.81035193727E+02 0.  0.
          5    1    3    3  501    0  0.63632282489E+01 -0.57103818257E+02  0.13749022488E+03  0.14908718480E+03  0.47000000000E+01 0. -1.
        -11    1    4    4    0    0  0.35639447730E+02 -0.28039429506E+02  0.35694858542E+03  0.35981755443E+03  0.00000000000E+00 0.  1.
         12    1    4    4    0    0  0.35494067374E+02  0.50355096749E+02  0.38636252498E+03  0.39124348595E+03  0.00000000000E+00 0. -1.
         -5    1    5    5    0  502 -0.95013085804E+02  0.44173376384E+01  0.58918552486E+02  0.11198430771E+03  0.47000000000E+01 0.  1.
         13    1    6    6    0    0 -0.17383665199E+02 -0.18148253246E+02  0.65649174001E+02  0.70294843045E+02  0.00000000000E+00 0. -1.
        -14    1    6    6    0    0  0.34900007651E+02  0.48519066621E+02  0.77077440054E+02  0.97534825191E+02  0.00000000000E+00 0.  1.
</event>
<event>
12    1  0.1039610E+000  0.3483334E+03  0.7818608E-02  0.1063333E+00
         21   -1    0    0  503  502  0.00000000000E+00  0.00000000000E+00  0.85958787002E+03  0.85958787002E+03  0.00000000000E+00 0. -1.
         21   -1    0    0  501  503 -0.00000000000E+00 -0.00000000000E+00 -0.22574673848E+03  0.22574673848E+03  0.00000000000E+00 0. -1.
          6    2    1    2  501    0 -0.12079150107E+03  0.27745355780E+03  0.64926379361E+03  0.73665991273E+03  0.17191070319E+03 0.  0.
         24    2    3    3    0    0  0.22984200122E+01  0.12575232186E+03  0.33594842472E+03  0.36739983631E+03  0.79387445249E+02 0.  0.
         -6    2    1    2    0  502  0.12079150107E+03 -0.27745355780E+03 -0.15422662068E+02  0.34867469577E+03  0.17252571256E+03 0.  0.
        -24    2    5    5    0    0  0.12653852678E+03 -0.12347194708E+03 -0.23327264551E+02  0.19431169021E+03  0.77172217825E+02 0.  0.
          5    1    3    3  501    0 -0.12308992108E+03  0.15170123594E+03  0.31331536889E+03  0.36926007642E+03  0.47000000000E+01 0. -1.
        -13    1    4    4    0    0 -0.29032882316E+02  0.23832996292E+02  0.13226417419E+03  0.13749447895E+03  0.00000000000E+00 0.  1.
         14    1    4    4    0    0  0.31331302328E+02  0.10191932557E+03  0.20368425053E+03  0.22990535736E+03  0.00000000000E+00 0. -1.
         -5    1    5    5    0  502 -0.57470257141E+01 -0.15398161072E+03  0.79046024837E+01  0.15436300556E+03  0.47000000000E+01 0.  1.
         13    1    6    6    0    0  0.34750218548E+02 -0.22885902463E+02  0.26475982235E+02  0.49318554885E+02  0.00000000000E+00 0. -1.
        -14    1    6    6    0    0  0.91788308232E+02 -0.10058604462E+03 -0.49803246786E+02  0.14499313532E+03  0.00000000000E+00 0.  1.
</event>
<event>
12    1  0.1039610E+000  0.2211470E+03  0.7818608E-02  0.1133100E+00
         21   -1    0    0  503  502  0.00000000000E+00  0.00000000000E+00  0.30148712705E+02  0.30148712705E+02  0.00000000000E+00 0.  1.
         21   -1    0    0  501  503 -0.00000000000E+00 -0.00000000000E+00 -0.19184968862E+04  0.19184968862E+04  0.00000000000E+00 0.  1.
          6    2    1    2  501    0 -0.89980078274E+02 -0.10471238842E+03 -0.13295285424E+04  0.13477952850E+04  0.17275672649E+03 0.  0.
         24    2    3    3    0    0 -0.52257813921E+02 -0.76339499297E+02 -0.43040627683E+03  0.44742262413E+03  0.79867660437E+02 0.  0.
         -6    2    1    2    0  502  0.89980078274E+02  0.10471238842E+03 -0.55881963113E+03  0.60085031390E+03  0.17228064546E+03 0.  0.
        -24    2    5    5    0    0  0.50317845375E+02 -0.14650309512E+02 -0.26210935288E+03  0.27854669060E+03  0.78360888471E+02 0.  0.
          5    1    3    3  501    0 -0.37722264353E+02 -0.28372889121E+02 -0.89912226553E+03  0.90037266087E+03  0.47000000000E+01 0. -1.
        -13    1    4    4    0    0  0.91677068321E+01  0.11692433994E+02 -0.54809898308E+02  0.56788069291E+02  0.00000000000E+00 0.  1.
         14    1    4    4    0    0 -0.61425520753E+02 -0.88031933290E+02 -0.37559637852E+03  0.39063455484E+03  0.00000000000E+00 0. -1.
         -5    1    5    5    0  502  0.39662232899E+02  0.11936269793E+03 -0.29671027824E+03  0.32230362330E+03  0.47000000000E+01 0.  1.
         13    1    6    6    0    0 -0.15006740096E+01  0.22313234370E+02 -0.12992356272E+03  0.13183423152E+03  0.00000000000E+00 0. -1.
        -14    1    6    6    0    0  0.51818519385E+02 -0.36963543881E+02 -0.13218579016E+03  0.14671245907E+03  0.00000000000E+00 0.  1.
</event>
<event>
12    1  0.1039610E+000  0.3650993E+03  0.7818608E-02  0.1056627E+00
         21   -1    0    0  501  502  0.00000000000E+00  0.00000000000E+00  0.26532883046E+03  0.26532883046E+03  0.00000000000E+00 0. -1.
         21   -1    0    0  502  503 -0.00000000000E+00 -0.00000000000E+00 -0.53393643149E+03  0.53393643149E+03  0.00000000000E+00 0. -1.
         -6    2    1    2    0  503 -0.12553380448E+03  0.29656587543E+03 -0.36285483131E+02  0.36689803638E+03  0.17201011097E+03 0.  0.
        -24    2    3    3    0    0 -0.73152473581E+02  0.12488052607E+03  0.41465314211E+02  0.17122754934E+03  0.81566360637E+02 0.  0.
          6    2    1    2  501    0  0.12553380448E+03 -0.29656587543E+03 -0.23232211790E+03  0.43236722558E+03  0.17104910626E+03 0.  0.
         24    2    5    5    0    0  0.15822794281E+03 -0.24135193636E+03 -0.18730947072E+03  0.35384516401E+03  0.82672384710E+02 0.  0.
          5    1    5    5  501    0 -0.32694138329E+02 -0.55213939062E+02 -0.45012647174E+02  0.78522061571E+02  0.47000000000E+01 0. -1.
        -11    1    6    6    0    0  0.72571475712E+02 -0.17895531905E+03 -0.10613503435E+03  0.22035487474E+03  0.00000000000E+00 0.  1.
         12    1    6    6    0    0  0.85656467101E+02 -0.62396617310E+02 -0.81174436370E+02  0.13349028926E+03  0.00000000000E+00 0. -1.
         -5    1    3    3    0  503 -0.52381330903E+02  0.17168534935E+03 -0.77750797342E+02  0.19567048703E+03  0.47000000000E+01 0.  1.
         11    1    4    4    0    0 -0.31052458066E+02 -0.81529689406E+00 -0.34774133728E+01  0.31257195407E+02  0.00000000000E+00 0. -1.
        -12    1    4    4    0    0 -0.42100015515E+02  0.12569582297E+03  0.44942727584E+02  0.13997035394E+03  0.00000000000E+00 0.  1.
</event>
<event>
12    1  0.1039610E+000  0.1846330E+03  0.7818608E-02  0.1163532E+00
         21   -1    0    0  501  502  0.00000000000E+00  0.00000000000E+00  0.16500213779E+03  0.16500213779E+03  0.00000000000E+00 0. -1.
         21   -1    0    0  502  503 -0.00000000000E+00 -0.00000000000E+00 -0.20899972591E+03  0.20899972591E+03  0.00000000000E+00 0. -1.
         -6    2    1    2    0  503 -0.63868157487E+02 -0.19590727915E+02  0.66588032150E+00  0.18404356736E+03  0.17148951318E+03 0.  0.
        -24    2    3    3    0    0 -0.83806045537E+02 -0.12710978851E+02 -0.46042717921E+02  0.13257869121E+03  0.90951389426E+02 0.  0.
          6    2    1    2  501    0  0.63868157487E+02  0.19590727915E+02 -0.44663468442E+02  0.18995829635E+03  0.17212318489E+03 0.  0.
         24    2    5    5    0    0  0.95808425981E+02  0.32585484896E+02  0.49966281615E+01  0.12931788362E+03  0.80355960680E+02 0.  0.
          5    1    5    5  501    0 -0.31940268494E+02 -0.12994756982E+02 -0.49660096603E+02  0.60640412722E+02  0.47000000000E+01 0. -1.
        -11    1    6    6    0    0  0.77477799685E+02  0.17044055126E+02 -0.31718869030E+02  0.85436502221E+02  0.00000000000E+00 0.  1.
         12    1    6    6    0    0  0.18330626296E+02  0.15541429770E+02  0.36715497192E+02  0.43881381402E+02  0.00000000000E+00 0. -1.
         -5    1    3    3    0  503  0.19937888050E+02 -0.68797490642E+01  0.46708598242E+02  0.51464876147E+02  0.47000000000E+01 0.  1.
         11    1    4    4    0    0  0.86244271181E+01 -0.28331715604E+02 -0.41580555380E+01  0.29905790042E+02  0.00000000000E+00 0. -1.
        -12    1    4    4    0    0 -0.92430472655E+02  0.15620736754E+02 -0.41884662383E+02  0.10267290117E+03  0.00000000000E+00 0.  1.
</event>
<event>
12    1  0.1039610E+000  0.1862016E+03  0.7818608E-02  0.1162604E+00
         21   -1    0    0  501  502  0.00000000000E+00  0.00000000000E+00  0.14796911189E+03  0.14796911189E+03  0.00000000000E+00 0.  1.
         21   -1    0    0  502  503 -0.00000000000E+00 -0.00000000000E+00 -0.29277526208E+03  0.29277526208E+03  0.00000000000E+00 0.  1.
         -6    2    1    2    0  503 -0.62420179406E+02 -0.32769496018E+02  0.29506580985E+02  0.18568368005E+03  0.16922668834E+03 0.  0.
        -24    2    3    3    0    0  0.11230966671E+01 -0.62363535778E+02  0.47134385737E+02  0.11325174908E+03  0.81938003450E+02 0.  0.
          6    2    1    2  501    0  0.62420179406E+02  0.32769496018E+02 -0.17431273118E+03  0.25506069393E+03  0.17233952150E+03 0.  0.
         24    2    5    5    0    0  0.18602284598E+02  0.19963704182E+02 -0.11577700648E+02  0.85978535287E+02  0.80707316278E+02 0.  0.
          5    1    5    5  501    0  0.43817894808E+02  0.12805791837E+02 -0.16273503053E+03  0.16908215864E+03  0.47000000000E+01 0. -1.
        -13    1    6    6    0    0 -0.58053696779E+01 -0.19614048679E+02  0.20912676924E+02  0.29253260995E+02  0.00000000000E+00 0.  1.
         14    1    6    6    0    0  0.24407654276E+02  0.39577752860E+02 -0.32490377573E+02  0.56725274292E+02  0.00000000000E+00 0. -1.
         -5    1    3    3    0  503 -0.63543276073E+02  0.29594039760E+02 -0.17627804752E+02  0.72431930968E+02  0.47000000000E+01 0.  1.
         11    1    4    4    0    0 -0.27616696476E+02  0.60038490789E+01  0.18364770128E+02  0.33704493911E+02  0.00000000000E+00 0. -1.
        -12    1    4    4    0    0  0.28739793143E+02 -0.68367384857E+02  0.28769615609E+02  0.79547255166E+02  0.00000000000E+00 0.  1.
</event>
<event>
12    1  0.1039610E+000  0.1929747E+03  0.7818608E-02  0.1156695E+00
         21   -1    0    0  501  502  0.00000000000E+00  0.00000000000E+00  0.57784114850E+03  0.57784114850E+03  0.00000000000E+00 0.  1.
         21   -1    0    0  502  503 -0.00000000000E+00 -0.00000000000E+00 -0.66702870494E+02  0.66702870494E+02  0.00000000000E+00 0.  1.
         -6    2    1    2    0  503  0.56208650905E+02 -0.69425122964E+02  0.17839277658E+03  0.25988989723E+03  0.16655184120E+03 0.  0.
        -24    2    3    3    0    0  0.20173594372E+02 -0.11159189025E+02  0.17610383024E+02  0.85057084413E+02  0.79956742111E+02 0.  0.
          6    2    1    2  501    0 -0.56208650905E+02  0.69425122964E+02  0.33274550143E+03  0.38465412177E+03  0.17105544289E+03 0.  0.
         24    2    5    5    0    0 -0.48986260181E+02 -0.74605953159E+01  0.26710884380E+03  0.28319557148E+03  0.79983017574E+02 0.  0.
          5    1    5    5  501    0 -0.72223907239E+01  0.76885718280E+02  0.65636657623E+02  0.10145855029E+03  0.47000000000E+01 0. -1.
        -11    1    6    6    0    0 -0.49714377585E+02 -0.12172397260E+02  0.73708363847E+02  0.89736333192E+02  0.00000000000E+00 0.  1.
         12    1    6    6    0    0  0.72811740385E+00  0.47118019445E+01  0.19340047996E+03  0.19345923829E+03  0.00000000000E+00 0. -1.
         -5    1    3    3    0  503  0.36035056533E+02 -0.58265933939E+02  0.16078239356E+03  0.17483281281E+03  0.47000000000E+01 0.  1.
         13    1    4    4    0    0 -0.29012706658E+02 -0.12017003784E+02  0.17319624658E+02  0.35862444505E+02  0.00000000000E+00 0. -1.
        -14    1    4    4    0    0  0.49186301030E+02  0.85781475914E+00  0.29075836567E+00  0.49194639907E+02  0.00000000000E+00 0.  1.
</event>
<event>
12    1  0.1039610E+000  0.3296692E+03  0.7818608E-02  0.1071310E+00
         21   -1    0    0  503  502  0.00000000000E+00  0.00000000000E+00  0.77162702853E+03  0.77162702853E+03  0.00000000000E+00 0. -1.
         21   -1    0    0  501  503 -0.00000000000E+00 -0.00000000000E+00 -0.14075114269E+03  0.14075114269E+03  0.00000000000E+00 0. -1.
          6    2    1    2  501    0  0.15325895444E+03  0.23508709398E+03  0.31840900178E+03  0.45815647663E+03  0.17253641875E+03 0.  0.
         24    2    3    3    0    0  0.13031442822E+03  0.10749237357E+03  0.12222283347E+03  0.22295875854E+03  0.78966615800E+02 0.  0.
         -6    2    1    2    0  502 -0.15325895444E+03 -0.23508709398E+03  0.31246688406E+03  0.45422169459E+03  0.17299579572E+03 0.  0.
        -24    2    5    5    0    0 -0.14025502284E+03 -0.20966346794E+03  0.18348978664E+03  0.32203756296E+03  0.80059034054E+02 0.  0.
          5    1    3    3  501    0  0.22944526218E+02  0.12759472041E+03  0.19618616831E+03  0.23519771809E+03  0.47000000000E+01 0. -1.
        -13    1    4    4    0    0  0.94411431362E+02  0.27035178063E+02  0.59771245859E+02  0.11496530371E+03  0.00000000000E+00 0.  1.
         14    1    4    4    0    0  0.35902996858E+02  0.80457195504E+02  0.62451587611E+02  0.10799345483E+03  0.00000000000E+00 0. -1.
         -5    1    5    5    0  502 -0.13003931603E+02 -0.25423626031E+02  0.12897709742E+03  0.13218413164E+03  0.47000000000E+01 0.  1.
         13    1    6    6    0    0 -0.10852933988E+03 -0.12235283845E+03  0.77143339892E+02  0.18083121849E+03  0.00000000000E+00 0. -1.
        -14    1    6    6    0    0 -0.31725682955E+02 -0.87310629497E+02  0.10634644675E+03  0.14120634447E+03  0.00000000000E+00 0.  1.
</event>
<event>
12    1  0.1039610E+000  0.1980462E+03  0.7818608E-02  0.1151680E+00
         21   -1    0    0  503  502  0.00000000000E+00  0.00000000000E+00  0.63437020911E+02  0.63437020911E+02  0.00000000000E+00 0.  1.
         21   -1    0    0  501  503 -0.00000000000E+00 -0.00000000000E+00 -0.87876121701E+03  0.87876121701E+03  0.00000000000E+00 0.  1.
          6    2    1    2  501    0  0.17517924726E+02 -0.94967506879E+02 -0.15011786551E+03  0.24851088499E+03  0.17290627913E+03 0.  0.
         24    2    3    3    0    0 -0.39367504628E+02 -0.78653711776E+02 -0.43911561433E+02  0.12683935582E+03  0.80148550585E+02 0.  0.
         -6    2    1    2    0  502 -0.17517924726E+02  0.94967506879E+02 -0.66520633059E+03  0.69368735294E+03  0.17139713042E+03 0.  0.
        -24    2    5    5    0    0 -0.16587148601E+02  0.13554439097E+03 -0.44302586092E+03  0.46778117558E+03  0.62449174180E+02 0.  0.
          5    1    3    3  501    0  0.56885429354E+02 -0.16313795103E+02 -0.10620630408E+03  0.12167152916E+03  0.47000000000E+01 0. -1.
        -13    1    4    4    0    0 -0.57014786080E+02 -0.27135761963E+02 -0.33200289635E+02  0.71339292406E+02  0.00000000000E+00 0.  1.
         14    1    4    4    0    0  0.17647281452E+02 -0.51517949813E+02 -0.10711271798E+02  0.55500063416E+02  0.00000000000E+00 0. -1.
         -5    1    5    5    0  502 -0.93077612507E+00 -0.40576884095E+02 -0.22218046967E+03  0.22590617736E+03  0.47000000000E+01 0.  1.
         13    1    6    6    0    0 -0.29765588956E+02  0.13254351689E+03 -0.38705668194E+03  0.41020318038E+03  0.00000000000E+00 0. -1.
        -14    1    6    6    0    0  0.13178440355E+02  0.30008740792E+01 -0.55969178981E+02  0.57577995200E+02  0.00000000000E+00 0.  1.
</event>
<event>
12    1  0.1039610E+000  0.2297001E+03  0.7818608E-02  0.1127548E+00
         21   -1    0    0  503  502  0.00000000000E+00  0.00000000000E+00  0.46467181351E+03  0.46467181351E+03  0.00000000000E+00 0.  1.
         21   -1    0    0  501  503 -0.00000000000E+00 -0.00000000000E+00 -0.26083899014E+03  0.26083899014E+03  0.00000000000E+00 0.  1.
          6    2    1    2  501    0  0.94305965039E+02  0.11945415323E+03  0.37665933293E+03  0.44117387507E+03  0.17204425358E+03 0.  0.
         24    2    3    3    0    0  0.26019083869E+02  0.14622996663E+02  0.24466567831E+03  0.25924783409E+03  0.80357455020E+02 0.  0.
         -6    2    1    2    0  502 -0.94305965039E+02 -0.11945415323E+03 -0.17282650957E+03  0.28433692858E+03  0.16678002511E+03 0.  0.
        -24    2    5    5    0    0 -0.85803335478E+02 -0.92174659996E+02 -0.48351401819E+02  0.15653783660E+03  0.79422011469E+02 0.  0.
          5    1    3    3  501    0  0.68286881170E+02  0.10483115657E+03  0.13199365462E+03  0.18192604098E+03  0.47000000000E+01 0. -1.
        -11    1    4    4    0    0 -0.86963965275E+01 -0.24153874274E+02  0.14024536518E+03  0.14257559191E+03  0.00000000000E+00 0.  1.
         12    1    4    4    0    0  0.34715480397E+02  0.38776870937E+02  0.10442031313E+03  0.11667224217E+03  0.00000000000E+00 0. -1.
         -5    1    5    5    0  502 -0.85026295613E+01 -0.27279493237E+02 -0.12447510775E+03  0.12779909197E+03  0.47000000000E+01 0.  1.
         11    1    6    6    0    0 -0.54306057375E+02 -0.21770032953E+02 -0.53442026885E+02  0.79240977025E+02  0.00000000000E+00 0. -1.
        -12    1    6    6    0    0 -0.31497278103E+02 -0.70404627042E+02  0.50906250654E+01  0.77296859577E+02  0.00000000000E+00 0.  1.
</event>
<event>
12    1  0.1039610E+000  0.3304806E+03  0.7818608E-02  0.1071133E+00
         21   -1    0    0  501  502  0.00000000000E+00  0.00000000000E+00  0.28687899826E+03  0.28687899826E+03  0.00000000000E+00 0.  1.
         21   -1    0    0  502  503 -0.00000000000E+00 -0.00000000000E+00 -0.46607164470E+03  0.46607164470E+03  0.00000000000E+00 0.  1.
         -6    2    1    2    0  503  0.22444262386E+03  0.17037969783E+03  0.73760442853E+02  0.33677436781E+03  0.16903443155E+03 0.  0.
        -24    2    3    3    0    0  0.45664585517E+02  0.60716068383E+02 -0.11354869095E+02  0.11038001067E+03  0.79266123748E+02 0.  0.
          6    2    1    2  501    0 -0.22444262386E+03 -0.17037969783E+03 -0.25295308929E+03  0.41617627515E+03  0.17266642343E+03 0.  0.
         24    2    5    5    0    0 -0.22530733315E+03 -0.18885255877E+03 -0.21256148248E+03  0.37150451433E+03  0.80028351304E+02 0.  0.
          5    1    5    5  501    0  0.86470928888E+00  0.18472860943E+02 -0.40391606815E+02  0.44671760819E+02  0.47000000000E+01 0. -1.
        -11    1    6    6    0    0 -0.12165199960E+03 -0.12642574389E+03 -0.16695968535E+03  0.24219457933E+03  0.00000000000E+00 0.  1.
         12    1    6    6    0    0 -0.10365533355E+03 -0.62426814884E+02 -0.45601797127E+02  0.12930993500E+03  0.00000000000E+00 0. -1.
         -5    1    3    3    0  503  0.17877803834E+03  0.10966362945E+03  0.85115311948E+02  0.22639435714E+03  0.47000000000E+01 0.  1.
         11    1    4    4    0    0  0.16066764858E+02  0.63114505259E+02  0.19073868538E+02  0.67863054515E+02  0.00000000000E+00 0. -1.
        -12    1    4    4    0    0  0.29597820659E+02 -0.23984368756E+01 -0.30428737632E+02  0.42516956160E+02  0.00000000000E+00 0.  1.
</event>
<event>
12    1  0.1039610E+000  0.1824736E+03  0.7818608E-02  0.1165451E+00
         21   -1    0    0  503  502  0.00000000000E+00  0.00000000000E+00  0.81065296830E+03  0.81065296830E+03  0.00000000000E+00 0. -1.
         21   -1    0    0  501  503 -0.00000000000E+00 -0.00000000000E+00 -0.43505700520E+02  0.43505700520E+02  0.00000000000E+00 0. -1.
          6    2    1    2  501    0 -0.46990925254E+02  0.42046144941E+02  0.48503392947E+03  0.51822246012E+03  0.17123253216E+03 0.  0.
         24    2    3    3    0    0 -0.83173563569E+01  0.30392572801E+02  0.11669877007E+03  0.14764948441E+03  0.84787265620E+02 0.  0.
         -6    2    1    2    0  502  0.46990925254E+02 -0.42046144941E+02  0.28211333831E+03  0.33593620870E+03  0.17114080550E+03 0.  0.
        -24    2    5    5    0    0  0.88762143619E+01  0.25310547488E+02  0.72618297966E+02  0.11255331516E+03  0.81703246924E+02 0.  0.
          5    1    3    3  501    0 -0.38673568898E+02  0.11653572140E+02  0.36833515940E+03  0.37057297571E+03  0.47000000000E+01 0. -1.
        -11    1    4    4    0    0 -0.42359807796E+01  0.54137549784E+02  0.10995024397E+03  0.12262900953E+03  0.00000000000E+00 0.  1.
         12    1    4    4    0    0 -0.40813755772E+01 -0.23744976983E+02  0.67485261038E+01  0.25020474877E+02  0.00000000000E+00 0. -1.
         -5    1    5    5    0  502  0.38114710892E+02 -0.67356692429E+02  0.20949504034E+03  0.22338289354E+03  0.47000000000E+01 0.  1.
         11    1    6    6    0    0  0.33543514160E+02  0.27953407206E+01  0.11648182694E+01  0.33679935771E+02  0.00000000000E+00 0. -1.
        -12    1    6    6    0    0 -0.24667299798E+02  0.22515206768E+02  0.71453479696E+02  0.78873379386E+02  0.00000000000E+00 0.  1.
</event>
<event>
12    1  0.1039610E+000  0.5031139E+03  0.7818608E-02  0.1013016E+00
         21   -1    0    0  503  502  0.00000000000E+00  0.00000000000E+00  0.19397417410E+04  0.19397417410E+04  0.00000000000E+00 0. -1.
         21   -1    0    0  501  503 -0.00000000000E+00 -0.00000000000E+00 -0.13603271849E+03  0.13603271849E+03  0.00000000000E+00 0.  1.
          6    2    1    2  501    0  0.36629440191E+03 -0.29813888360E+03  0.68952379427E+03  0.85356119211E+03  0.17339337657E+03 0.  0.
         24    2    3    3    0    0  0.29274478500E+03 -0.17473032065E+03  0.55800542854E+03  0.65873206165E+03  0.79546694824E+02 0.  0.
         -6    2    1    2    0  502 -0.36629440191E+03  0.29813888360E+03  0.11141852282E+04  0.12222132674E+04  0.17128387359E+03 0.  0.
        -24    2    5    5    0    0 -0.19724681389E+03  0.22447793097E+03  0.79948491180E+03  0.85743744290E+03  0.82013396518E+02 0.  0.
          5    1    3    3  501    0  0.73549616908E+02 -0.12340856295E+03  0.13151836572E+03  0.19482913047E+03  0.47000000000E+01 0. -1.
        -13    1    4    4    0    0  0.15231538137E+03 -0.12095105655E+03  0.25747977015E+03  0.32268400258E+03  0.00000000000E+00 0.  1.
         14    1    4    4    0    0  0.14042940363E+03 -0.53779264097E+02  0.30052565839E+03  0.33604805907E+03  0.00000000000E+00 0. -1.
         -5    1    5    5    0  502 -0.16904758802E+03  0.73660952626E+02  0.31470031642E+03  0.36477582446E+03  0.47000000000E+01 0.  1.
         13    1    6    6    0    0 -0.62239097405E+02  0.10579719026E+03  0.23657277570E+03  0.26652097275E+03  0.00000000000E+00 0. -1.
        -14    1    6    6    0    0 -0.13500771648E+03  0.11868074071E+03  0.56291213610E+03  0.59091647015E+03  0.00000000000E+00 0.  1.
</event>
<event>
12    1  0.1039610E+000  0.1814540E+03  0.7818608E-02  0.1167550E+00
         21   -1    0    0  503  502  0.00000000000E+00  0.00000000000E+00  0.10279697870E+03  0.10279697870E+03  0.00000000000E+00 0.  1.
         21   -1    0    0  501  503 -0.00000000000E+00 -0.00000000000E+00 -0.33868194063E+03  0.33868194063E+03  0.00000000000E+00 0.  1.
          6    2    1    2  501    0  0.11520972201E+02  0.56392155273E+02 -0.18130788908E+03  0.25651141211E+03  0.17208354345E+03 0.  0.
         24    2    3    3    0    0 -0.25983154945E+02  0.62218321836E+02 -0.19022360586E+03  0.21724203759E+03  0.80391782878E+02 0.  0.
         -6    2    1    2    0  502 -0.11520972201E+02 -0.56392155273E+02 -0.54577072854E+02  0.18496750721E+03  0.16709731855E+03 0.  0.
        -24    2    5    5    0    0 -0.67943447199E+02 -0.29151656964E+02 -0.13956588321E+02  0.11015003468E+03  0.80449441642E+02 0.  0.
          5    1    3    3  501    0  0.37504127146E+02 -0.58261665627E+01  0.89157167855E+01  0.39269374526E+02  0.47000000000E+01 0. -1.
        -13    1    4    4    0    0  0.43157765959E+01  0.54512870714E+02 -0.51768347858E+02  0.75301001594E+02  0.00000000000E+00 0.  1.
         14    1    4    4    0    0 -0.30298931541E+02  0.77054511223E+01 -0.13845525800E+03  0.14194103599E+03  0.00000000000E+00 0. -1.
         -5    1    5    5    0  502  0.56422474998E+02 -0.27240498309E+02 -0.40620484532E+02  0.74817472536E+02  0.47000000000E+01 0.  1.
         13    1    6    6    0    0 -0.40808319766E+02 -0.56928720016E+02 -0.45288156878E+01  0.70190514290E+02  0.00000000000E+00 0. -1.
        -14    1    6    6    0    0 -0.27135127433E+02  0.27777063052E+02 -0.94277726335E+01  0.39959520386E+02  0.00000000000E+00 0.  1.
</event>
<event>
12    1  0.1039610E+000  0.2903779E+03  0.7818608E-02  0.1090222E+00
         21   -1    0    0  501  502  0.00000000000E+00  0.00000000000E+00  0.10065899701E+03  0.10065899701E+03  0.00000000000E+00 0.  1.
         21   -1    0    0  502  503 -0.00000000000E+00 -0.00000000000E+00 -0.85923520996E+03  0.85923520996E+03  0.00000000000E+00 0. -1.
         -6    2    1    2    0  503 -0.19549418191E+03  0.12863244400E+03 -0.45835949542E+03  0.54259812825E+03  0.17191573789E+03 0.  0.
        -24    2    3    3    0    0 -0.84467581264E+02  0.91351049319E+02 -0.14318247635E+03  0.20633119293E+03  0.81188380616E+02 0.  0.
          6    2    1    2  501    0  0.19549418191E+03 -0.12863244400E+03 -0.30021671754E+03  0.41729607872E+03  0.17100192693E+03 0.  0.
         24    2    5    5    0    0  0.16053907404E+03 -0.15937066793E+03 -0.22635420892E+03  0.32986348664E+03  0.80011798107E+02 0.  0.
          5    1    5    5  501    0  0.34955107870E+02  0.30738223935E+02 -0.73862508619E+02  0.87432592072E+02  0.47000000000E+01 0. -1.
        -11    1    6    6    0    0  0.88505872443E+00 -0.41430451540E+02 -0.37818960850E+02  0.56102936140E+02  0.00000000000E+00 0.  1.
         12    1    6    6    0    0  0.15965401532E+03 -0.11794021639E+03 -0.18853524807E+03  0.27376055050E+03  0.00000000000E+00 0. -1.
         -5    1    3    3    0  503 -0.11102660065E+03  0.37281394677E+02 -0.31517701907E+03  0.33626693532E+03  0.47000000000E+01 0.  1.
         11    1    4    4    0    0  0.98769907356E+01  0.38330299393E+02 -0.29444360834E+02  0.49332921892E+02  0.00000000000E+00 0. -1.
        -12    1    4    4    0    0 -0.94344571999E+02  0.53020749926E+02 -0.11373811552E+03  0.15699827104E+03  0.00000000000E+00 0.  1.
</event>
<event>
12    1  0.1039610E+000  0.2330800E+03  0.7818608E-02  0.1127902E+00
         21   -1    0    0  503  502  0.00000000000E+00  0.00000000000E+00  0.74521006851E+02  0.74521006851E+02  0.00000000000E+00 0.  1.
         21   -1    0    0  501  503 -0.00000000000E+00 -0.00000000000E+00 -0.73660033634E+03  0.73660033634E+03  0.00000000000E+00 0.  1.
          6    2    1    2  501    0 -0.52803443397E+02  0.11935707065E+03 -0.19758739057E+03  0.29143005475E+03  0.16987167495E+03 0.  0.
         24    2    3    3    0    0 -0.46333551839E+02  0.88350367101E+02 -0.45478935165E+02  0.13598763014E+03  0.80446980145E+02 0.  0.
         -6    2    1    2    0  502  0.52803443397E+02 -0.11935707065E+03 -0.46449193892E+03  0.51969128844E+03  0.19311126330E+03 0.  0.
        -24    2    5    5    0    0  0.17012215855E+02 -0.14881342617E+03 -0.43023640524E+03  0.46186205331E+03  0.76015397074E+02 0.  0.
          5    1    3    3  501    0 -0.64698915579E+01  0.31006703550E+02 -0.15210845541E+03  0.15544242461E+03  0.47000000000E+01 0. -1.
        -11    1    4    4    0    0 -0.57437382882E+02  0.26054111522E+02 -0.11319560760E+02  0.64078094036E+02  0.00000000000E+00 0.  1.
         12    1    4    4    0    0  0.11103831042E+02  0.62296255579E+02 -0.34159374405E+02  0.71909536104E+02  0.00000000000E+00 0. -1.
         -5    1    5    5    0  502  0.35791227542E+02  0.29456355515E+02 -0.34255533676E+02  0.57829235138E+02  0.47000000000E+01 0.  1.
         11    1    6    6    0    0  0.32112487331E+02 -0.77090203514E+02 -0.30995420844E+03  0.32100735607E+03  0.00000000000E+00 0. -1.
        -12    1    6    6    0    0 -0.15100271476E+02 -0.71723222652E+02 -0.12028219680E+03  0.14085469724E+03  0.00000000000E+00 0.  1.
</event>
<event>
12    1  0.1039610E+000  0.1782481E+03  0.7818608E-02  0.1169902E+00
         21   -1    0    0  501  502  0.00000000000E+00  0.00000000000E+00  0.58957342112E+02  0.58957342112E+02  0.00000000000E+00 0. -1.
         21   -1    0    0  502  503 -0.00000000000E+00 -0.00000000000E+00 -0.56764452821E+03  0.56764452821E+03  0.00000000000E+00 0. -1.
         -6    2    1    2    0  503  0.42824840258E+02  0.10095979450E+02 -0.17710159907E+03  0.25014284052E+03  0.17108643584E+03 0.  0.
        -24    2    3    3    0    0 -0.38911616262E+02  0.18384938241E+02 -0.66454929565E+02  0.11225038012E+03  0.79572421983E+02 0.  0.
          6    2    1    2  501    0 -0.42824840258E+02 -0.10095979450E+02 -0.33158558702E+03  0.37645902979E+03  0.17273246321E+03 0.  0.
         24    2    5    5    0    0  0.16515135795E+02 -0.49110492749E+02 -0.25616810083E+03  0.27276114057E+03  0.78050968689E+02 0.  0.
          5    1    5    5  501    0 -0.59339976053E+02  0.39014513299E+02 -0.75417486192E+02  0.10369788922E+03  0.47000000000E+01 0. -1.
        -11    1    6    6    0    0 -0.16182086943E+02 -0.55533995354E+02 -0.19101727958E+03  0.19958328005E+03  0.00000000000E+00 0.  1.
         12    1    6    6    0    0  0.32697222738E+02  0.64235026044E+01 -0.65150821254E+02  0.73177860522E+02  0.00000000000E+00 0. -1.
         -5    1    3    3    0  503  0.81736456520E+02 -0.82889587909E+01 -0.11064666951E+03  0.13789246040E+03  0.47000000000E+01 0.  1.
         13    1    4    4    0    0  0.91664360078E+01  0.11029789982E+02 -0.61741326397E+02  0.63385102361E+02  0.00000000000E+00 0. -1.
        -14    1    4    4    0    0 -0.48078052270E+02  0.73551482591E+01 -0.47136031679E+01  0.48865277763E+02  0.00000000000E+00 0.  1.
</event>
<event>
12    1  0.1039610E+000  0.3039085E+03  0.7818608E-02  0.1083352E+00
         21   -1    0    0  501  502  0.00000000000E+00  0.00000000000E+00  0.26056407675E+03  0.26056407675E+03  0.00000000000E+00 0.  1.
         21   -1    0    0  502  503 -0.00000000000E+00 -0.00000000000E+00 -0.42916789607E+03  0.42916789607E+03  0.00000000000E+00 0.  1.
         -6    2    1    2    0  503  0.31470219451E+01  0.25054041978E+03  0.60070229463E+02  0.30940027145E+03  0.17128832365E+03 0.  0.
        -24    2    3    3    0    0  0.21789138888E+02  0.68821588639E+02  0.66276520319E+02  0.12656189977E+03  0.80088449171E+02 0.  0.
          6    2    1    2  501    0 -0.31470219451E+01 -0.25054041978E+03 -0.22867404878E+03  0.38033170137E+03  0.17198830423E+03 0.  0.
         24    2    5    5    0    0  0.37689438239E+02 -0.24847469662E+03 -0.20305314010E+03  0.33185072929E+03  0.75724237916E+02 0.  0.
          5    1    5    5  501    0 -0.40836460184E+02 -0.20657231559E+01 -0.25620908682E+02  0.48480972084E+02  0.47000000000E+01 0. -1.
        -13    1    6    6    0    0  0.28015095127E+02 -0.21968117733E+02 -0.31658178580E+02  0.47641200895E+02  0.00000000000E+00 0.  1.
         14    1    6    6    0    0  0.96743431127E+01 -0.22650657889E+03 -0.17139496152E+03  0.28420952839E+03  0.00000000000E+00 0. -1.
         -5    1    3    3    0  503 -0.18642116943E+02  0.18171883114E+03 -0.62062908566E+01  0.18283837169E+03  0.47000000000E+01 0.  1.
         13    1    4    4    0    0 -0.83176239770E+01  0.58983249611E+02  0.72963057592E+02  0.94190309355E+02  0.00000000000E+00 0. -1.
        -14    1    4    4    0    0  0.30106762865E+02  0.98383390284E+01 -0.66865372728E+01  0.32371590411E+02  0.00000000000E+00 0.  1.
</event>
<event>
12    1  0.1039610E+000  0.3099629E+03  0.7818608E-02  0.1080543E+00
         21   -1    0    0  501  502  0.00000000000E+00  0.00000000000E+00  0.55870409542E+03  0.55870409542E+03  0.00000000000E+00 0. -1.
         21   -1    0    0  502  503 -0.00000000000E+00 -0.00000000000E+00 -0.29889827374E+03  0.29889827374E+03  0.00000000000E+00 0. -1.
         -6    2    1    2    0  503  0.11723695473E+03 -0.22773673814E+03  0.41006715753E+03  0.51313830380E+03  0.17189333813E+03 0.  0.
        -24    2    3    3    0    0  0.28199756700E+02 -0.19139446688E+03  0.24741666954E+03  0.32412599056E+03  0.80097323053E+02 0.  0.
          6    2    1    2  501    0 -0.11723695473E+03  0.22773673814E+03 -0.15026133585E+03  0.34446406535E+03  0.17455227817E+03 0.  0.
         24    2    5    5    0    0  0.11033147448E+02  0.66882462906E+02 -0.44102605405E+02  0.11290611791E+03  0.78789323334E+02 0.  0.
          5    1    5    5  501    0 -0.12827010218E+03  0.16085427523E+03 -0.10615873044E+03  0.23155794744E+03  0.47000000000E+01 0. -1.
        -11    1    6    6    0    0  0.30868207498E+02  0.75204702230E+02 -0.41396224825E+02  0.91226316934E+02  0.00000000000E+00 0.  1.
         12    1    6    6    0    0 -0.19835060051E+02 -0.83222393236E+01 -0.27063805793E+01  0.21679800977E+02  0.00000000000E+00 0. -1.
         -5    1    3    3    0  503  0.89037198034E+02 -0.36342271251E+02  0.16265048799E+03  0.18901231324E+03  0.47000000000E+01 0.  1.
         13    1    4    4    0    0  0.34342378645E+02 -0.24667444934E+02  0.56736519508E+02  0.70759553817E+02  0.00000000000E+00 0. -1.
        -14    1    4    4    0    0 -0.61426219448E+01 -0.16672702195E+03  0.19068015003E+03  0.25336643674E+03  0.00000000000E+00 0.  1.
</event>
<event>
12    1  0.1039610E+000  0.2249849E+03  0.7818608E-02  0.1130351E+00
         21   -1    0    0  501  502  0.00000000000E+00  0.00000000000E+00  0.49963797651E+03  0.49963797651E+03  0.00000000000E+00 0.  1.
         21   -1    0    0  502  503 -0.00000000000E+00 -0.00000000000E+00 -0.10104874130E+03  0.10104874130E+03  0.00000000000E+00 0.  1.
         -6    2    1    2    0  503 -0.36870779418E+02 -0.13983358064E+03  0.20712178505E+03  0.30580655858E+03  0.17235235066E+03 0.  0.
        -24    2    3    3    0    0 -0.50148887801E+02 -0.95177067661E+02  0.53221118113E+02  0.14494009969E+03  0.81249984170E+02 0.  0.
          6    2    1    2  501    0  0.36870779418E+02  0.13983358064E+03  0.19146745017E+03  0.29488015923E+03  0.17141073241E+03 0.  0.
         24    2    5    5    0    0  0.11803276450E+02  0.61276853172E+02  0.16726760377E+02  0.10160331684E+03  0.78417341263E+02 0.  0.
          5    1    5    5  501    0  0.25067502967E+02  0.78556727469E+02  0.17474068979E+03  0.19327684239E+03  0.47000000000E+01 0. -1.
        -13    1    6    6    0    0 -0.23206246366E+02 -0.26590407034E+01 -0.79066931431E+01  0.24660011442E+02  0.00000000000E+00 0.  1.
         14    1    6    6    0    0  0.35009522816E+02  0.63935893875E+02  0.24633453520E+02  0.76943305399E+02  0.00000000000E+00 0. -1.
         -5    1    3    3    0  503  0.13278108384E+02 -0.44656512980E+02  0.15390066694E+03  0.16086645890E+03  0.47000000000E+01 0.  1.
         11    1    4    4    0    0 -0.32330576002E+02 -0.85302160388E+02  0.72780062766E+02  0.11669902419E+03  0.00000000000E+00 0. -1.
        -12    1    4    4    0    0 -0.17818311799E+02 -0.98749072728E+01 -0.19558944653E+02  0.28241075492E+02  0.00000000000E+00 0.  1.
</event>
<event>
12    1  0.1039610E+000  0.3645715E+03  0.7818608E-02  0.1056985E+00
         21   -1    0    0  503  502  0.00000000000E+00  0.00000000000E+00  0.27217573111E+03  0.27217573111E+03  0.00000000000E+00 0.  1.
         21   -1    0    0  501  503 -0.00000000000E+00 -0.00000000000E+00 -0.67748393949E+03  0.67748393949E+03  0.00000000000E+00 0.  1.
          6    2    1    2  501    0  0.42731947686E+01 -0.32178535761E+03  0.50420034725E+02  0.36604969113E+03  0.16699137675E+03 0.  0.
         24    2    3    3    0    0  0.20031300215E+02 -0.17907461646E+03  0.89464916688E+02  0.21718308529E+03  0.81826340318E+02 0.  0.
         -6    2    1    2    0  502 -0.42731947686E+01  0.32178535761E+03 -0.45572824311E+03  0.58360997948E+03  0.17131345544E+03 0.  0.
        -24    2    5    5    0    0 -0.11407448287E+02  0.19515529286E+03 -0.38178318392E+03  0.43672215612E+03  0.82171308365E+02 0.  0.
          5    1    3    3  501    0 -0.15758105446E+02 -0.14271074115E+03 -0.39044881964E+02  0.14886660584E+03  0.47000000000E+01 0. -1.
        -11    1    4    4    0    0  0.38058184598E+02 -0.34371250542E+02  0.14897447144E+02  0.53401706060E+02  0.00000000000E+00 0.  1.
         12    1    4    4    0    0 -0.18026884383E+02 -0.14470336592E+03  0.74567469544E+02  0.16378137923E+03  0.00000000000E+00 0. -1.
         -5    1    5    5    0  502  0.71342535180E+01  0.12663006475E+03 -0.73945059190E+02  0.14688782335E+03  0.47000000000E+01 0.  1.
         11    1    6    6    0    0  0.18347667936E+02  0.14136717236E+03 -0.31612730977E+03  0.34678205017E+03  0.00000000000E+00 0. -1.
        -12    1    6    6    0    0 -0.29755116222E+02  0.53788120496E+02 -0.65655874149E+02  0.89940105949E+02  0.00000000000E+00 0.  1.
</event>
<event>
12    1  0.1039610E+000  0.1854496E+03  0.7818608E-02  0.1163004E+00
         21   -1    0    0  503  502  0.00000000000E+00  0.00000000000E+00  0.13424278109E+03  0.13424278109E+03  0.00000000000E+00 0. -1.
         21   -1    0    0  501  503 -0.00000000000E+00 -0.00000000000E+00 -0.27185128179E+03  0.27185128179E+03  0.00000000000E+00 0. -1.
          6    2    1    2  501    0 -0.64389232490E+02 -0.16135613539E+02 -0.12112564199E+03  0.22150161565E+03  0.17316238998E+03 0.  0.
         24    2    3    3    0    0 -0.37096243405E+02 -0.74248794303E+02 -0.50191879748E+02  0.12571154489E+03  0.79969700482E+02 0.  0.
         -6    2    1    2    0  502  0.64389232490E+02  0.16135613539E+02 -0.16482858719E+02  0.18459244723E+03  0.17145365454E+03 0.  0.
        -24    2    5    5    0    0  0.34920119102E+02  0.49220489472E+02 -0.64114569544E+02  0.11937046063E+03  0.80601225435E+02 0.  0.
          5    1    3    3  501    0 -0.27292989085E+02  0.58113180764E+02 -0.70933762240E+02  0.95790070765E+02  0.47000000000E+01 0. -1.
        -13    1    4    4    0    0 -0.50084430425E+02 -0.15288706140E+02 -0.36423818752E+02  0.63787845856E+02  0.00000000000E+00 0.  1.
         14    1    4    4    0    0  0.12988187020E+02 -0.58960088163E+02 -0.13768060996E+02  0.61923699032E+02  0.00000000000E+00 0. -1.
         -5    1    5    5    0  502  0.29469113388E+02 -0.33084875934E+02  0.47631710824E+02  0.65221986595E+02  0.47000000000E+01 0.  1.
         13    1    6    6    0    0  0.56114161669E+02  0.38982606493E+02 -0.66954296726E+02  0.95662534980E+02  0.00000000000E+00 0. -1.
        -14    1    6    6    0    0 -0.21194042567E+02  0.10237882979E+02  0.28397271821E+01  0.23707925651E+02  0.00000000000E+00 0.  1.
</event>
<event>
12    1  0.1039610E+000  0.2103650E+03  0.7818608E-02  0.1141387E+00
         21   -1    0    0  503  502  0.00000000000E+00  0.00000000000E+00  0.47562169512E+03  0.47562169512E+03  0.00000000000E+00 0. -1.
         21   -1    0    0  501  503 -0.00000000000E+00 -0.00000000000E+00 -0.92896238175E+02  0.92896238175E+02  0.00000000000E+00 0. -1.
          6    2    1    2  501    0 -0.10065166091E+03  0.66665404148E+02  0.20081454163E+03  0.29082626875E+03  0.17227421603E+03 0.  0.
         24    2    3    3    0    0 -0.28157429628E+02  0.89568314952E+02  0.16608670482E+03  0.20711205525E+03  0.80593337336E+02 0.  0.
         -6    2    1    2    0  502  0.10065166091E+03 -0.66665404148E+02  0.18191091532E+03  0.27769166455E+03  0.17159850377E+03 0.  0.
        -24    2    5    5    0    0 -0.60729771932E+01 -0.98960606877E+01  0.11608044947E+03  0.13996495339E+03  0.77335013789E+02 0.  0.
          5    1    3    3  501    0 -0.72494231282E+02 -0.22902910804E+02  0.34727836813E+02  0.83714213502E+02  0.47000000000E+01 0. -1.
        -11    1    4    4    0    0 -0.13603188517E+02 -0.95284713166E-01  0.82678176780E+02  0.83789836691E+02  0.00000000000E+00 0.  1.
         12    1    4    4    0    0 -0.14554241110E+02  0.89663599665E+02  0.83408528041E+02  0.12332221855E+03  0.00000000000E+00 0. -1.
         -5    1    5    5    0  502  0.10672463810E+03 -0.56769343461E+02  0.65830465844E+02  0.13772671117E+03  0.47000000000E+01 0.  1.
         13    1    6    6    0    0 -0.61849835581E+01 -0.14333363894E+02 -0.67833772352E+01  0.17020973793E+02  0.00000000000E+00 0. -1.
        -14    1    6    6    0    0  0.11200636488E+00  0.44373032068E+01  0.12286382671E+03  0.12294397959E+03  0.00000000000E+00 0.  1.
</event>
<event>
12    1  0.1039610E+000  0.1814868E+03  0.7818608E-02  0.1166431E+00
         21   -1    0    0  503  502  0.00000000000E+00  0.00000000000E+00  0.32784393343E+03  0.32784393343E+03  0.00000000000E+00 0.  1.
         21   -1    0    0  501  503 -0.00000000000E+00 -0.00000000000E+00 -0.10036644415E+03  0.10036644415E+03  0.00000000000E+00 0.  1.
          6    2    1    2  501    0  0.54789045279E+02  0.17233560823E+02  0.11776807951E+03  0.21614051961E+03  0.17189697079E+03 0.  0.
         24    2    3    3    0    0  0.19249671125E+02 -0.56085988170E+02  0.45613425694E+02  0.10720389838E+03  0.76784785707E+02 0.  0.
         -6    2    1    2    0  502 -0.54789045279E+02 -0.17233560823E+02  0.10970940978E+03  0.21206985797E+03  0.17215874932E+03 0.  0.
        -24    2    5    5    0    0 -0.54350961791E+02 -0.50444093878E+02  0.13015874655E+03  0.17278376887E+03  0.86106317000E+02 0.  0.
          5    1    3    3  501    0  0.35539374154E+02  0.73319548993E+02  0.72154653811E+02  0.10893662124E+03  0.47000000000E+01 0. -1.
        -13    1    4    4    0    0 -0.28700327563E+02 -0.27470884935E+02  0.99773569719E+01  0.40962250591E+02  0.00000000000E+00 0.  1.
         14    1    4    4    0    0  0.47949998688E+02 -0.28615103235E+02  0.35636068722E+02  0.66241647785E+02  0.00000000000E+00 0. -1.
         -5    1    5    5    0  502 -0.43808348812E+00  0.33210533055E+02 -0.20449336768E+02  0.39286089105E+02  0.47000000000E+01 0.  1.
         11    1    6    6    0    0 -0.71197804225E+02 -0.28247224410E+02  0.60016272382E+02  0.97308714739E+02  0.00000000000E+00 0. -1.
        -12    1    6    6    0    0  0.16846842434E+02 -0.22196869468E+02  0.70142474164E+02  0.75475054130E+02  0.00000000000E+00 0.  1.
</event>
<event>
12    1  0.1039610E+000  0.2120471E+03  0.7818608E-02  0.1140036E+00
         21   -1    0    0  501  502  0.00000000000E+00  0.00000000000E+00  0.66537975543E+02  0.66537975543E+02  0.00000000000E+00 0.  1.
         21   -1    0    0  502  503 -0.00000000000E+00 -0.00000000000E+00 -0.67445996972E+03  0.67445996972E+03  0.00000000000E+00 0.  1.
         -6    2    1    2    0  503  0.11039870444E+03 -0.54689035780E+02 -0.30528676677E+03  0.37146843334E+03  0.17207562997E+03 0.  0.
        -24    2    3    3    0    0  0.12091301391E+03  0.97488349776E+01 -0.22645088959E+03  0.26899904561E+03  0.79783986035E+02 0.  0.
          6    2    1    2  501    0 -0.11039870444E+03  0.54689035780E+02 -0.30263522741E+03  0.36952951192E+03  0.17258393533E+03 0.  0.
         24    2    5    5    0    0 -0.48590352712E+02  0.74212017901E+02 -0.94176995101E+02  0.15117579936E+03  0.78207224265E+02 0.  0.
          5    1    5    5  501    0 -0.61808351724E+02 -0.19522982121E+02 -0.20845823230E+03  0.21835371256E+03  0.47000000000E+01 0. -1.
        -11    1    6    6    0    0 -0.18076917136E+02 -0.87752988641E+01 -0.46647531706E+02  0.50791465992E+02  0.00000000000E+00 0.  1.
         12    1    6    6    0    0 -0.30513435577E+02  0.82987316765E+02 -0.47529463395E+02  0.10038433337E+03  0.00000000000E+00 0. -1.
         -5    1    3    3    0  503 -0.10514309471E+02 -0.64437870758E+02 -0.78835877180E+02  0.10246938773E+03  0.47000000000E+01 0.  1.
         13    1    4    4    0    0  0.64192039539E+02 -0.74776293868E+01 -0.18684642397E+03  0.19770715473E+03  0.00000000000E+00 0. -1.
        -14    1    4    4    0    0  0.56720974369E+02  0.17226464364E+02 -0.39604465613E+02  0.71291890874E+02  0.00000000000E+00 0.  1.
</event>
<event>
12    1  0.1039610E+000  0.2725900E+03  0.7818608E-02  0.1100200E+00
         21   -1    0    0  503  502  0.00000000000E+00  0.00000000000E+00  0.43208624456E+03  0.43208624456E+03  0.00000000000E+00 0.  1.
         21   -1    0    0  501  503 -0.00000000000E+00 -0.00000000000E+00 -0.27259909237E+03  0.27259909237E+03  0.00000000000E+00 0.  1.
          6    2    1    2  501    0 -0.58165265691E+02  0.20001445737E+03 -0.13642913287E+03  0.30235241726E+03  0.17150829320E+03 0.  0.
         24    2    3    3    0    0 -0.62470961747E+02  0.19695202286E+03 -0.16342487476E+03  0.27444583015E+03  0.76942209667E+02 0.  0.
         -6    2    1    2    0  502  0.58165265691E+02 -0.20001445737E+03  0.29591628506E+03  0.40233291967E+03  0.17583045584E+03 0.  0.
        -24    2    5    5    0    0  0.63317621192E+02 -0.22473928036E+03  0.27092241827E+03  0.36649094684E+03  0.79998700643E+02 0.  0.
          5    1    3    3  501    0  0.43056960560E+01  0.30624345034E+01  0.26995741888E+02  0.27906587102E+02  0.47000000000E+01 0. -1.
        -13    1    4    4    0    0 -0.24371113720E+02  0.27609266486E+02 -0.65524819594E+02  0.75164651018E+02  0.00000000000E+00 0.  1.
         14    1    4    4    0    0 -0.38099848028E+02  0.16934275638E+03 -0.97900055162E+02  0.19928117914E+03  0.00000000000E+00 0. -1.
         -5    1    5    5    0  502 -0.51523555003E+01  0.24724822996E+02  0.24993866790E+02  0.35841972832E+02  0.47000000000E+01 0.  1.
         13    1    6    6    0    0  0.31206406313E+02 -0.10514920694E+03  0.68862881550E+02  0.12950788381E+03  0.00000000000E+00 0. -1.
        -14    1    6    6    0    0  0.32111214879E+02 -0.11959007342E+03  0.20205953672E+03  0.23698306303E+03  0.00000000000E+00 0.  1.
</event>
<event>
12    1  0.1039610E+000  0.2078398E+03  0.7818608E-02  0.1143295E+00
         21   -1    0    0  503  502  0.00000000000E+00  0.00000000000E+00  0.27594147248E+02  0.27594147248E+02  0.00000000000E+00 0.  1.
         21   -1    0    0  501  503 -0.00000000000E+00 -0.00000000000E+00 -0.15825496816E+04  0.15825496816E+04  0.00000000000E+00 0.  1.
          6    2    1    2  501    0 -0.68613788657E+02 -0.93866519402E+02 -0.69310290305E+03  0.72358456815E+03  0.17223303283E+03 0.  0.
         24    2    3    3    0    0 -0.15343980693E+02 -0.12118047261E+03 -0.57777354698E+03  0.59355889818E+03  0.59747379329E+02 0.  0.
         -6    2    1    2    0  502  0.68613788657E+02  0.93866519402E+02 -0.86185263129E+03  0.88655926068E+03  0.17227474910E+03 0.  0.
        -24    2    5    5    0    0  0.22059033127E+01  0.74963460891E+02 -0.72598343702E+03  0.73408021029E+03  0.78723680238E+02 0.  0.
          5    1    3    3  501    0 -0.53269807964E+02  0.27313953206E+02 -0.11532935607E+03  0.13002566997E+03  0.47000000000E+01 0. -1.
        -13    1    4    4    0    0  0.70151740325E+01 -0.34138186772E+02 -0.28980908485E+03  0.29189712935E+03  0.00000000000E+00 0.  1.
         14    1    4    4    0    0 -0.22359154726E+02 -0.87042285836E+02 -0.28796446213E+03  0.30166176883E+03  0.00000000000E+00 0. -1.
         -5    1    5    5    0  502  0.66407885344E+02  0.18903058511E+02 -0.13586919427E+03  0.15247905039E+03  0.47000000000E+01 0.  1.
         13    1    6    6    0    0  0.63013569669E+01 -0.34130552305E+01 -0.34610050791E+03  0.34617469234E+03  0.00000000000E+00 0. -1.
        -14    1    6    6    0    0 -0.40954536542E+01  0.78376516121E+02 -0.37988292912E+03  0.38790551795E+03  0.00000000000E+00 0.  1.
</event>
<event>
12    1  0.1039610E+000  0.6941309E+03  0.7818608E-02  0.9727412E-01
         21   -1    0    0  503  502  0.00000000000E+00  0.00000000000E+00  0.10333637574E+04  0.10333637574E+04  0.00000000000E+00 0.  1.
         21   -1    0    0  501  503 -0.00000000000E+00 -0.00000000000E+00 -0.55765033012E+03  0.55765033012E+03  0.00000000000E+00 0. -1.
          6    2    1    2  501    0  0.51073348135E+03  0.43738072392E+03  0.56017123336E+03  0.89196949483E+03  0.17224163955E+03 0.  0.
         24    2    3    3    0    0  0.20171855229E+03  0.11053076425E+03  0.18788945788E+03  0.30807144476E+03  0.81842180518E+02 0.  0.
         -6    2    1    2    0  502 -0.51073348135E+03 -0.43738072392E+03 -0.84457806040E+02  0.69904459272E+03  0.17140488612E+03 0.  0.
        -24    2    5    5    0    0 -0.22827157867E+03 -0.22323148995E+03 -0.99592024363E+02  0.34422667401E+03  0.81444582692E+02 0.  0.
          5    1    3    3  501    0  0.30901492906E+03  0.32684995967E+03  0.37228177548E+03  0.58389805007E+03  0.47000000000E+01 0. -1.
        -11    1    4    4    0    0  0.12221844356E+03  0.61149927016E+02  0.15999146820E+03  0.21041371489E+03  0.00000000000E+00 0.  1.
         12    1    4    4    0    0  0.79500108730E+02  0.49380837236E+02  0.27897989678E+02  0.97657729865E+02  0.00000000000E+00 0. -1.
         -5    1    5    5    0  502 -0.28246190268E+03 -0.21414923397E+03  0.15134218323E+02  0.35481791871E+03  0.47000000000E+01 0.  1.
         13    1    6    6    0    0 -0.21904631389E+03 -0.22298505991E+03 -0.10901184697E+03  0.33103958578E+03  0.00000000000E+00 0. -1.
        -14    1    6    6    0    0 -0.92252647835E+01 -0.24643004269E+00  0.94198226119E+01  0.13187088235E+02  0.00000000000E+00 0.  1.
</event>
<event>
12    1  0.1039610E+000  0.5468622E+03  0.7818608E-02  0.1002554E+00
         21   -1    0    0  503  502  0.00000000000E+00  0.00000000000E+00  0.37842067506E+03  0.37842067506E+03  0.00000000000E+00 0.  1.
         21   -1    0    0  501  503 -0.00000000000E+00 -0.00000000000E+00 -0.86282689270E+03  0.86282689270E+03  0.00000000000E+00 0.  1.
          6    2    1    2  501    0 -0.25204642986E+03  0.44680834399E+03 -0.43084390479E+03  0.69176858150E+03  0.17248826332E+03 0.  0.
         24    2    3    3    0    0 -0.13190257677E+03  0.19070375429E+03 -0.27640457789E+03  0.36943691691E+03  0.79485427836E+02 0.  0.
         -6    2    1    2    0  502  0.25204642986E+03 -0.44680834399E+03 -0.53562312845E+02  0.54947898627E+03  0.18945483874E+03 0.  0.
        -24    2    5    5    0    0  0.17404833401E+03 -0.42437893044E+03 -0.54128076907E+02  0.46818205128E+03  0.76643885975E+02 0.  0.
          5    1    3    3  501    0 -0.12014385309E+03  0.25610458970E+03 -0.15443932690E+03  0.32233166459E+03  0.47000000000E+01 0. -1.
        -11    1    4    4    0    0  0.86759133937E+01  0.61151401777E+01 -0.25882744420E+02  0.27974682685E+02  0.00000000000E+00 0.  1.
         12    1    4    4    0    0 -0.14057849017E+03  0.18458861411E+03 -0.25052183347E+03  0.34146223423E+03  0.00000000000E+00 0. -1.
         -5    1    5    5    0  502  0.77998095853E+02 -0.22429413551E+02  0.56576406175E+00  0.81296934984E+02  0.47000000000E+01 0.  1.
         13    1    6    6    0    0  0.10927386600E+03 -0.30525687534E+03 -0.59424208281E+01  0.32428051144E+03  0.00000000000E+00 0. -1.
        -14    1    6    6    0    0  0.64774468009E+02 -0.11912205511E+03 -0.48185656078E+02  0.14390153985E+03  0.00000000000E+00 0.  1.
</event>
<event>
12    1  0.1039610E+000  0.1741452E+03  0.7818608E-02  0.1173795E+00
         21   -1    0    0  503  502  0.00000000000E+00  0.00000000000E+00  0.79741955836E+02  0.79741955836E+02  0.00000000000E+00 0. -1.
         21   -1    0    0  501  503 -0.00000000000E+00 -0.00000000000E+00 -0.44888835125E+03  0.44888835125E+03  0.00000000000E+00 0. -1.
          6    2    1    2  501    0  0.28136228811E+02  0.90946537194E+01 -0.80316273015E+02  0.19177394862E+03  0.17161638489E+03 0.  0.
         24    2    3    3    0    0 -0.23007025720E+02  0.38806233119E+02 -0.93723222978E+02  0.13094429515E+03  0.79543189183E+02 0.  0.
         -6    2    1    2    0  502 -0.28136228811E+02 -0.90946537194E+01 -0.28883012240E+03  0.33685635846E+03  0.17080692765E+03 0.  0.
        -24    2    5    5    0    0  0.27086731523E+02  0.28912878191E+01 -0.65512537893E+02  0.10645220986E+03  0.79360757266E+02 0.  0.
          5    1    3    3  501    0  0.51143254531E+02 -0.29711579400E+02  0.13406949963E+02  0.60829653474E+02  0.47000000000E+01 0. -1.
        -11    1    4    4    0    0 -0.37426652165E+01 -0.23609245559E+02 -0.13366015696E+02  0.27387120958E+02  0.00000000000E+00 0.  1.
         12    1    4    4    0    0 -0.19264360503E+02  0.62415478678E+02 -0.80357207282E+02  0.10355717419E+03  0.00000000000E+00 0. -1.
         -5    1    5    5    0  502 -0.55222960335E+02 -0.11985941539E+02 -0.22331758451E+03  0.23040414860E+03  0.47000000000E+01 0.  1.
         11    1    6    6    0    0  0.33529161555E+02  0.31661456106E+02 -0.61240066050E+02  0.76661582081E+02  0.00000000000E+00 0. -1.
        -12    1    6    6    0    0 -0.64424300321E+01 -0.28770168287E+02 -0.42724718423E+01  0.29790627782E+02  0.00000000000E+00 0.  1.
</event>
<event>
12    1  0.1039610E+000  0.2197482E+03  0.7818608E-02  0.1134255E+00
         21   -1    0    0  503  502  0.00000000000E+00  0.00000000000E+00  0.54571896319E+03  0.54571896319E+03  0.00000000000E+00 0. -1.
         21   -1    0    0  501  503 -0.00000000000E+00 -0.00000000000E+00 -0.88140016168E+02  0.88140016168E+02  0.00000000000E+00 0. -1.
          6    2    1    2  501    0 -0.29163516117E+02  0.13299070085E+03  0.22079423043E+03  0.31081673634E+03  0.17123058785E+03 0.  0.
         24    2    3    3    0    0  0.97449416575E+00  0.15656217621E+03  0.20175473116E+03  0.26782247339E+03  0.80692261377E+02 0.  0.
         -6    2    1    2    0  502  0.29163516117E+02 -0.13299070085E+03  0.23678471659E+03  0.32304224302E+03  0.17248840998E+03 0.  0.
        -24    2    5    5    0    0  0.83162171028E+02 -0.11351958239E+03  0.17889950906E+03  0.24138585051E+03  0.80370717359E+02 0.  0.
          5    1    3    3  501    0 -0.30138010283E+02 -0.23571475364E+02  0.19039499271E+02  0.42994262956E+02  0.47000000000E+01 0. -1.
        -13    1    4    4    0    0 -0.38494539876E+02  0.60040893138E+02  0.92308024842E+02  0.11665123188E+03  0.00000000000E+00 0.  1.
         14    1    4    4    0    0  0.39469034042E+02  0.96521283074E+02  0.10944670632E+03  0.15117124151E+03  0.00000000000E+00 0. -1.
         -5    1    5    5    0  502 -0.53998654911E+02 -0.19471118456E+02  0.57885207530E+02  0.81656392505E+02  0.47000000000E+01 0.  1.
         13    1    6    6    0    0  0.62101650017E+02 -0.33441541293E+02  0.44094795730E+02  0.83182345660E+02  0.00000000000E+00 0. -1.
        -14    1    6    6    0    0  0.21060521011E+02 -0.80078041098E+02  0.13480471333E+03  0.15820350486E+03  0.00000000000E+00 0.  1.
</event>
<event>
12    1  0.1039610E+000  0.1922307E+03  0.7818608E-02  0.1156636E+00
         21   -1    0    0  501  502  0.00000000000E+00  0.00000000000E+00  0.35432326987E+03  0.35432326987E+03  0.00000000000E+00 0. -1.
         21   -1    0    0  502  503 -0.00000000000E+00 -0.00000000000E+00 -0.11626492956E+03  0.11626492956E+03  0.00000000000E+00 0. -1.
         -6    2    1    2    0  503  0.73709747164E+02  0.41629866960E+02  0.19605792199E+03  0.27457484982E+03  0.17258756251E+03 0.  0.
        -24    2    3    3    0    0  0.58876484603E+02 -0.26213344269E+02  0.17394829849E+03  0.20154299075E+03  0.78790778119E+02 0.  0.
          6    2    1    2  501    0 -0.73709747164E+02 -0.41629866960E+02  0.42000418322E+02  0.19601334960E+03  0.17172951241E+03 0.  0.
         24    2    5    5    0    0 -0.77814377617E+02 -0.85256630291E+02  0.78131061318E+01  0.14023696764E+03  0.79256495594E+02 0.  0.
          5    1    5    5  501    0  0.41046304526E+01  0.43626763331E+02  0.34187312190E+02  0.55776381961E+02  0.47000000000E+01 0. -1.
        -13    1    6    6    0    0 -0.14814654447E+02 -0.59320810937E+02  0.30633048512E+02  0.68387252158E+02  0.00000000000E+00 0.  1.
         14    1    6    6    0    0 -0.62999723169E+02 -0.25935819354E+02 -0.22819942380E+02  0.71849715485E+02  0.00000000000E+00 0. -1.
         -5    1    3    3    0  503  0.14833262561E+02  0.67843211229E+02  0.22109623494E+02  0.73031859069E+02  0.47000000000E+01 0.  1.
         11    1    4    4    0    0  0.70420050326E+02  0.28813136698E+01  0.11902890657E+03  0.13832991743E+03  0.00000000000E+00 0. -1.
        -12    1    4    4    0    0 -0.11543565723E+02 -0.29094657939E+02  0.54919391921E+02  0.63213073324E+02  0.00000000000E+00 0.  1.
</event>
<event>
12    1  0.1039610E+000  0.2437754E+03  0.7818608E-02  0.1118067E+00
         21   -1    0    0  503  502  0.00000000000E+00  0.00000000000E+00  0.37013597473E+03  0.37013597473E+03  0.00000000000E+00 0.  1.
         21   -1    0    0  501  503 -0.00000000000E+00 -0.00000000000E+00 -0.52935351349E+03  0.52935351349E+03  0.00000000000E+00 0.  1.
          6    2    1    2  501    0 -0.44143470623E+02  0.16227786321E+03 -0.45676945014E+03  0.51774972444E+03  0.17647576515E+03 0.  0.
         24    2    3    3    0    0  0.44441264211E+02  0.74995953808E+02 -0.23336493999E+03  0.26202125103E+03  0.81218973908E+02 0.  0.
         -6    2    1    2    0  502  0.44143470623E+02 -0.16227786321E+03  0.29755191139E+03  0.38173976378E+03  0.17001575336E+03 0.  0.
        -24    2    5    5    0    0  0.43077527112E+01 -0.38846480553E+02  0.19965319119E+03  0.21917150100E+03  0.81530020929E+02 0.  0.
          5    1    3    3  501    0 -0.88584734835E+02  0.87281909403E+02 -0.22340451015E+03  0.25572847341E+03  0.47000000000E+01 0. -1.
        -13    1    4    4    0    0  0.29420781317E+02  0.68126593222E+02 -0.23400750087E+03  0.24549200708E+03  0.00000000000E+00 0.  1.
         14    1    4    4    0    0  0.15020482895E+02  0.68693605866E+01  0.64256087365E+00  0.16529243955E+02  0.00000000000E+00 0. -1.
         -5    1    5    5    0  502  0.39835717912E+02 -0.12343138266E+03  0.97898720199E+02  0.16256826278E+03  0.47000000000E+01 0.  1.
         13    1    6    6    0    0  0.50878042848E+01 -0.32811052928E+02  0.18682238073E+02  0.38098254108E+02  0.00000000000E+00 0. -1.
        -14    1    6    6    0    0 -0.78005157362E+00 -0.60354276249E+01  0.18097095312E+03  0.18107324689E+03  0.00000000000E+00 0.  1.
</event>
<event>
12    1  0.1039610E+000  0.1828896E+03  0.7818608E-02  0.1165365E+00
         21   -1    0    0  503  502  0.00000000000E+00  0.00000000000E+00  0.36347312892E+02  0.36347312892E+02  0.00000000000E+00 0.  1.
         21   -1    0    0  501  503 -0.00000000000E+00 -0.00000000000E+00 -0.10130547714E+04  0.10130547714E+04  0.00000000000E+00 0.  1.
          6    2    1    2  501    0  0.59340789814E+02  0.34799725801E+01 -0.32203460764E+03  0.36966306439E+03  0.17149651048E+03 0.  0.
         24    2    3    3    0    0  0.99578742108E+02  0.32611088906E+02 -0.22875587966E+03  0.26387683732E+03  0.79513041663E+02 0.  0.
         -6    2    1    2    0  502 -0.59340789814E+02 -0.34799725801E+01 -0.65467285091E+03  0.67973901995E+03  0.17295997797E+03 0.  0.
        -24    2    5    5    0    0 -0.22897773198E+02 -0.25984629625E+02 -0.61480239992E+03  0.62103385910E+03  0.80632215657E+02 0.  0.
          5    1    3    3  501    0 -0.40237952294E+02 -0.29131116326E+02 -0.93278727980E+02  0.10578622707E+03  0.47000000000E+01 0. -1.
        -11    1    4    4    0    0  0.47193884396E+02  0.34526282444E+02 -0.47936424692E+02  0.75612351610E+02  0.00000000000E+00 0.  1.
         12    1    4    4    0    0  0.52384857712E+02 -0.19151935378E+01 -0.18081945497E+03  0.18826448571E+03  0.00000000000E+00 0. -1.
         -5    1    5    5    0  502 -0.36443016615E+02  0.22504657045E+02 -0.39870450988E+02  0.58705160853E+02  0.47000000000E+01 0.  1.
         13    1    6    6    0    0 -0.29004769647E+02  0.14133685601E+02 -0.11085027672E+03  0.11545051572E+03  0.00000000000E+00 0. -1.
        -14    1    6    6    0    0  0.61069964486E+01 -0.40118315226E+02 -0.50395212320E+03  0.50558334338E+03  0.00000000000E+00 0.  1.
</event>
<event>
12    1  0.1039610E+000  0.1907318E+03  0.7818608E-02  0.1157822E+00
         21   -1    0    0  501  502  0.00000000000E+00  0.00000000000E+00  0.48235821852E+02  0.48235821852E+02  0.00000000000E+00 0. -1.
         21   -1    0    0  502  503 -0.00000000000E+00 -0.00000000000E+00 -0.84450728672E+03  0.84450728672E+03  0.00000000000E+00 0. -1.
         -6    2    1    2    0  503 -0.61076451251E+02 -0.54926321806E+02 -0.25196352299E+03  0.31601302606E+03  0.17213768327E+03 0.  0.
        -24    2    3    3    0    0  0.13560388733E+02  0.19175181689E+01 -0.56098443446E+02  0.98787108157E+02  0.80151708419E+02 0.  0.
          6    2    1    2  501    0  0.61076451251E+02  0.54926321806E+02 -0.54430794188E+03  0.57673008251E+03  0.17204423487E+03 0.  0.
         24    2    5    5    0    0  0.35432772328E+02  0.81255500289E+02 -0.51708676475E+03  0.53075284475E+03  0.80386082376E+02 0.  0.
          5    1    5    5  501    0  0.25643678922E+02 -0.26329178483E+02 -0.27221177128E+02  0.45977237765E+02  0.47000000000E+01 0. -1.
        -13    1    6    6    0    0 -0.24290628482E+02  0.32261770258E+02 -0.22659732595E+03  0.23016777485E+03  0.00000000000E+00 0.  1.
         14    1    6    6    0    0  0.59723400811E+02  0.48993730032E+02 -0.29048943880E+03  0.30058506989E+03  0.00000000000E+00 0. -1.
         -5    1    3    3    0  503 -0.74636839984E+02 -0.56843839975E+02 -0.19586507954E+03  0.21722591790E+03  0.47000000000E+01 0.  1.
         13    1    4    4    0    0  0.24819136207E+02  0.14048135447E+02 -0.71001953754E+02  0.76515469472E+02  0.00000000000E+00 0. -1.
        -14    1    4    4    0    0 -0.11258747474E+02 -0.12130617278E+02  0.14903510308E+02  0.22271638685E+02  0.00000000000E+00 0.  1.
</event>
<event>
12    1  0.1039610E+000  0.2158887E+03  0.7818608E-02  0.1137210E+00
         21   -1    0    0  503  502  0.00000000000E+00  0.00000000000E+00  0.24325128245E+03  0.24325128245E+03  0.00000000000E+00 0. -1.
         21   -1    0    0  501  503 -0.00000000000E+00 -0.00000000000E+00 -0.13937053942E+04  0.13937053942E+04  0.00000000000E+00 0. -1.
          6    2    1    2  501    0 -0.92078890015E+02  0.90856136241E+02  0.18502445057E+03  0.28432725327E+03  0.17284264568E+03 0.  0.
         24    2    3    3    0    0 -0.29435776478E+02  0.11993281153E+03  0.12564917654E+03  0.19312897541E+03  0.79124846651E+02 0.  0.
         -6    2    1    2    0  502  0.92078890015E+02 -0.90856136241E+02 -0.13354785624E+04  0.13526294234E+04  0.17137679863E+03 0.  0.
        -24    2    5    5    0    0  0.40447046784E+01  0.49774065587E+01 -0.64239087021E+03  0.64741546673E+03  0.80247256727E+02 0.  0.
          5    1    3    3  501    0 -0.62643113538E+02 -0.29076675288E+02  0.59375274024E+02  0.91198277862E+02  0.47000000000E+01 0.  1.
        -11    1    4    4    0    0  0.24101707011E+02  0.13750358222E+02  0.23331169524E+02  0.36253387475E+02  0.00000000000E+00 0.  1.
         12    1    4    4    0    0 -0.53537483488E+02  0.10618245331E+03  0.10231800702E+03  0.15687558793E+03  0.00000000000E+00 0. -1.
         -5    1    5    5    0  502  0.88034185337E+02 -0.95833542800E+02 -0.69308769214E+03  0.70521395669E+03  0.47000000000E+01 0.  1.
         13    1    6    6    0    0  0.29738633688E+02  0.21525229661E+02 -0.16442137460E+03  0.16846990909E+03  0.00000000000E+00 0. -1.
        -14    1    6    6    0    0 -0.25693929010E+02 -0.16547823102E+02 -0.47796949562E+03  0.47894555763E+03  0.00000000000E+00 0.  1.
</event>
<event>
12    1  0.1039610E+000  0.2694101E+03  0.7818608E-02  0.1101635E+00
         21   -1    0    0  501  502  0.00000000000E+00  0.00000000000E+00  0.18005986979E+03  0.18005986979E+03  0.00000000000E+00 0. -1.
         21   -1    0    0  502  503 -0.00000000000E+00 -0.00000000000E+00 -0.81426250498E+03  0.81426250498E+03  0.00000000000E+00 0. -1.
         -6    2    1    2    0  503 -0.20405417009E+03 -0.36491120095E+02 -0.67049459786E+03  0.72259587920E+03  0.17208164545E+03 0.  0.
        -24    2    3    3    0    0 -0.21391119467E+03 -0.24766423958E+02 -0.66606088213E+03  0.70597128091E+03  0.91580433468E+02 0.  0.
          6    2    1    2  501    0  0.20405417009E+03  0.36491120095E+02  0.36291962671E+02  0.27172649558E+03  0.17189670058E+03 0.  0.
         24    2    5    5    0    0  0.18724717193E+03 -0.11556344804E+02 -0.82768023791E+01  0.20390689009E+03  0.79463588314E+02 0.  0.
          5    1    5    5  501    0  0.16806998152E+02  0.48047464899E+02  0.44568765050E+02  0.67819605486E+02  0.47000000000E+01 0. -1.
        -11    1    6    6    0    0  0.55147629766E+02 -0.87745317739E+01  0.33758691204E+02  0.65252606909E+02  0.00000000000E+00 0.  1.
         12    1    6    6    0    0  0.13209954217E+03 -0.27818130303E+01 -0.42035493583E+02  0.13865428318E+03  0.00000000000E+00 0. -1.
         -5    1    3    3    0  503  0.98570245876E+01 -0.11724696136E+02 -0.44337157266E+01  0.16624598292E+02  0.47000000000E+01 0.  1.
         13    1    4    4    0    0 -0.49187418200E+02 -0.40682861315E+02 -0.25452946629E+03  0.26241140700E+03  0.00000000000E+00 0. -1.
        -14    1    4    4    0    0 -0.16472377647E+03  0.15916437357E+02 -0.41153141584E+03  0.44355987391E+03  0.00000000000E+00 0.  1.
</event>
<event>
12    1  0.1039610E+000  0.1990684E+03  0.7818608E-02  0.1150862E+00
         21   -1    0    0  501  502  0.00000000000E+00  0.00000000000E+00  0.40870753230E+03  0.40870753230E+03  0.00000000000E+00 0. -1.
         21   -1    0    0  502  503 -0.00000000000E+00 -0.00000000000E+00 -0.96264628061E+02  0.96264628061E+02  0.00000000000E+00 0. -1.
         -6    2    1    2    0  503 -0.26747695616E+02 -0.93910255585E+02  0.15016600347E+03  0.24935530978E+03  0.17347526219E+03 0.  0.
        -24    2    3    3    0    0  0.47164736837E+02 -0.26289308481E+02  0.93312745458E+02  0.13407294728E+03  0.79703491673E+02 0.  0.
          6    2    1    2  501    0  0.26747695616E+02  0.93910255585E+02  0.16227690076E+03  0.25561685058E+03  0.17167296366E+03 0.  0.
         24    2    5    5    0    0  0.29118725127E+02  0.12358737505E+03  0.16708318289E+03  0.22509565223E+03  0.81421884185E+02 0.  0.
          5    1    5    5  501    0 -0.23710295116E+01 -0.29677119463E+02 -0.48062821264E+01  0.30521198346E+02  0.47000000000E+01 0. -1.
        -13    1    6    6    0    0  0.52319978734E+02  0.92782473477E+02  0.14722814048E+03  0.18171981980E+03  0.00000000000E+00 0.  1.
         14    1    6    6    0    0 -0.23201253607E+02  0.30804901571E+02  0.19855042405E+02  0.43375832426E+02  0.00000000000E+00 0. -1.
         -5    1    3    3    0  503 -0.73912432452E+02 -0.67620947104E+02  0.56853258014E+02  0.11528236251E+03  0.47000000000E+01 0.  1.
         13    1    4    4    0    0  0.11507403003E+02  0.24276472458E+02  0.55232968571E+02  0.61420259329E+02  0.00000000000E+00 0. -1.
        -14    1    4    4    0    0  0.35657333834E+02 -0.50565780939E+02  0.38079776887E+02  0.72652687947E+02  0.00000000000E+00 0.  1.
</event>
<event>
12    1  0.1039610E+000  0.2082428E+03  0.7818608E-02  0.1143387E+00
         21   -1    0    0  503  502  0.00000000000E+00  0.00000000000E+00  0.86613987359E+02  0.86613987359E+02  0.00000000000E+00 0.  1.
         21   -1    0    0  501  503 -0.00000000000E+00 -0.00000000000E+00 -0.50993712036E+03  0.50993712036E+03  0.00000000000E+00 0.  1.
          6    2    1    2  501    0  0.11472301458E+03  0.18976062258E+02 -0.26263480555E+03  0.33517473374E+03  0.17275300297E+03 0.  0.
         24    2    3    3    0    0  0.61748178477E+02 -0.31975849371E+02 -0.64893066885E+02  0.12416213750E+03  0.79811238379E+02 0.  0.
         -6    2    1    2    0  502 -0.11472301458E+03 -0.18976062258E+02 -0.16068832744E+03  0.26137637398E+03  0.17022164752E+03 0.  0.
        -24    2    5    5    0    0 -0.12440935413E+03 -0.38429544918E+02 -0.17534531422E+03  0.23474593232E+03  0.86053217286E+02 0.  0.
          5    1    3    3  501    0  0.52974836102E+02  0.50951911629E+02 -0.19774173867E+03  0.21101259624E+03  0.47000000000E+01 0. -1.
        -13    1    4    4    0    0 -0.13832245800E+02 -0.12519721270E+01 -0.34340140986E+02  0.37042458625E+02  0.00000000000E+00 0.  1.
         14    1    4    4    0    0  0.75580424278E+02 -0.30723877244E+02 -0.30552925899E+02  0.87119678879E+02  0.00000000000E+00 0. -1.
         -5    1    5    5    0  502  0.96863395510E+01  0.19453482660E+02  0.14656986773E+02  0.26630441655E+02  0.47000000000E+01 0.  1.
         11    1    6    6    0    0 -0.22552619726E+02 -0.48405481633E+02 -0.52990639369E+02  0.75231105065E+02  0.00000000000E+00 0. -1.
        -12    1    6    6    0    0 -0.10185673440E+03  0.99759367149E+01 -0.12235467485E+03  0.15951482725E+03  0.00000000000E+00 0.  1.
</event>
<event>
12    1  0.1039610E+000  0.5321161E+03  0.7818608E-02  0.1005793E+00
         21   -1    0    0  503  502  0.00000000000E+00  0.00000000000E+00  0.15446291968E+04  0.15446291968E+04  0.00000000000E+00 0.  1.
         21   -1    0    0  501  503 -0.00000000000E+00 -0.00000000000E+00 -0.18349128218E+03  0.18349128218E+03  0.00000000000E+00 0.  1.
          6    2    1    2  501    0 -0.42042660979E+03 -0.27423306749E+03  0.63208454963E+03  0.82624358232E+03  0.17659351607E+03 0.  0.
         24    2    3    3    0    0 -0.13728709904E+03 -0.12591279682E+03  0.32463186546E+03  0.38271666291E+03  0.79902540818E+02 0.  0.
         -6    2    1    2    0  502  0.42042660979E+03  0.27423306749E+03  0.72905336498E+03  0.90187689665E+03  0.17291853048E+03 0.  0.
        -24    2    5    5    0    0  0.17295552665E+03  0.12930451789E+03  0.42900300186E+03  0.48678831346E+03  0.79284386671E+02 0.  0.
          5    1    3    3  501    0 -0.28313951075E+03 -0.14832027067E+03  0.30745268417E+03  0.44352691941E+03  0.47000000000E+01 0. -1.
        -13    1    4    4    0    0 -0.72304988553E+02 -0.11344220640E+03  0.24178223478E+03  0.27668717827E+03  0.00000000000E+00 0.  1.
         14    1    4    4    0    0 -0.64982110490E+02 -0.12470590417E+02  0.82849630678E+02  0.10602948464E+03  0.00000000000E+00 0. -1.
         -5    1    5    5    0  502  0.24747108315E+03  0.14492854960E+03  0.30005036312E+03  0.41508858319E+03  0.47000000000E+01 0.  1.
         13    1    6    6    0    0  0.15558278840E+03  0.11320353592E+03  0.30555555453E+03  0.36108896618E+03  0.00000000000E+00 0. -1.
        -14    1    6    6    0    0  0.17372738250E+02  0.16100981972E+02  0.12344744733E+03  0.12569934728E+03  0.00000000000E+00 0.  1.
</event>
<event>
12    1  0.1039610E+000  0.2331780E+03  0.7818608E-02  0.1125575E+00
         21   -1    0    0  503  502  0.00000000000E+00  0.00000000000E+00  0.17065000900E+03  0.17065000900E+03  0.00000000000E+00 0.  1.
         21   -1    0    0  501  503 -0.00000000000E+00 -0.00000000000E+00 -0.33923899837E+03  0.33923899837E+03  0.00000000000E+00 0.  1.
          6    2    1    2  501    0 -0.12451502192E+03  0.81674041348E+02 -0.16059860205E+03  0.28313230159E+03  0.17943619899E+03 0.  0.
         24    2    3    3    0    0 -0.36220751042E+01 -0.11558203430E+02 -0.56760527013E+02  0.98438522910E+02  0.79508954661E+02 0.  0.
         -6    2    1    2    0  502  0.12451502192E+03 -0.81674041348E+02 -0.79903873134E+01  0.22675670577E+03  0.17082188856E+03 0.  0.
        -24    2    5    5    0    0  0.51146362928E+02  0.99933026554E+01 -0.34126414300E+02  0.10637795356E+03  0.86231318620E+02 0.  0.
          5    1    3    3  501    0 -0.12089294681E+03  0.93232244778E+02 -0.10383807504E+03  0.18469377868E+03  0.47000000000E+01 0. -1.
        -11    1    4    4    0    0  0.45128896399E+01  0.21369744585E+02 -0.60493663874E+02  0.64315748658E+02  0.00000000000E+00 0.  1.
         12    1    4    4    0    0 -0.81349647441E+01 -0.32927948015E+02  0.37331368601E+01  0.34122774253E+02  0.00000000000E+00 0. -1.
         -5    1    5    5    0  502  0.73368658988E+02 -0.91667344004E+02  0.26136026987E+02  0.12037875222E+03  0.47000000000E+01 0.  1.
         13    1    6    6    0    0  0.55642302737E+02 -0.27726350444E+02 -0.26765813124E+02  0.67684748023E+02  0.00000000000E+00 0. -1.
        -14    1    6    6    0    0 -0.44959398086E+01  0.37719653100E+02 -0.73606011765E+01  0.38693205533E+02  0.00000000000E+00 0.  1.
</event>
<event>
12    1  0.1039610E+000  0.2128964E+03  0.7818608E-02  0.1139538E+00
         21   -1    0    0  501  502  0.00000000000E+00  0.00000000000E+00  0.63422953473E+02  0.63422953473E+02  0.00000000000E+00 0.  1.
         21   -1    0    0  502  503 -0.00000000000E+00 -0.00000000000E+00 -0.85478029841E+03  0.85478029841E+03  0.00000000000E+00 0.  1.
         -6    2    1    2    0  503  0.10540550111E+03  0.65430399687E+02 -0.58531673194E+03  0.62283269228E+03  0.17301280016E+03 0.  0.
        -24    2    3    3    0    0  0.13336733066E+03  0.15814920827E+02 -0.44071452350E+03  0.46734813247E+03  0.78409368640E+02 0.  0.
          6    2    1    2  501    0 -0.10540550111E+03 -0.65430399687E+02 -0.20604061300E+03  0.29537055960E+03  0.17146304677E+03 0.  0.
         24    2    5    5    0    0  0.11118542920E+02 -0.28125514780E+02 -0.89560657133E+02  0.12637595201E+03  0.83875523028E+02 0.  0.
          5    1    5    5  501    0 -0.11652404403E+03 -0.37304884907E+02 -0.11647995587E+03  0.16899460759E+03  0.47000000000E+01 0. -1.
        -13    1    6    6    0    0 -0.14707194357E+02 -0.11575793649E+01 -0.87761830330E+02  0.88993148156E+02  0.00000000000E+00 0.  1.
         14    1    6    6    0    0  0.25825737277E+02 -0.26967935415E+02 -0.17988268028E+01  0.37382803858E+02  0.00000000000E+00 0. -1.
         -5    1    3    3    0  503 -0.27961829548E+02  0.49615478861E+02 -0.14460220844E+03  0.15548455981E+03  0.47000000000E+01 0.  1.
         13    1    4    4    0    0  0.18954973320E+02 -0.27225403280E+02 -0.87331818593E+02  0.93420341126E+02  0.00000000000E+00 0. -1.
        -14    1    4    4    0    0  0.11441235734E+03  0.43040324107E+02 -0.35338270491E+03  0.37392779134E+03  0.00000000000E+00 0.  1.
</event>
<event>
12    1  0.1039610E+000  0.3222222E+03  0.7818608E-02  0.1074887E+00
         21   -1    0    0  503  502  0.00000000000E+00  0.00000000000E+00  0.23763465695E+03  0.23763465695E+03  0.00000000000E+00 0.  1.
         21   -1    0    0  501  503 -0.00000000000E+00 -0.00000000000E+00 -0.43726726737E+03  0.43726726737E+03  0.00000000000E+00 0.  1.
          6    2    1    2  501    0  0.46784142481E+02  0.26818737376E+03 -0.12979887925E+03  0.34738295269E+03  0.17237732836E+03 0.  0.
         24    2    3    3    0    0 -0.12762501516E+01  0.17409184240E+03 -0.18382293377E+02  0.19376161312E+03  0.83042492771E+02 0.  0.
         -6    2    1    2    0  502 -0.46784142481E+02 -0.26818737376E+03 -0.69833731171E+02  0.32751897163E+03  0.16816272874E+03 0.  0.
        -24    2    5    5    0    0  0.36274032198E+02 -0.16931538861E+03 -0.34630761874E+02  0.19359485552E+03  0.79348422691E+02 0.  0.
          5    1    3    3  501    0  0.48060392633E+02  0.94095531359E+02 -0.11141658588E+03  0.15362133957E+03  0.47000000000E+01 0. -1.
        -13    1    4    4    0    0 -0.30329479428E+02  0.24276127308E+02  0.57061836888E+01  0.39265356381E+02  0.00000000000E+00 0.  1.
         14    1    4    4    0    0  0.29053229276E+02  0.14981571509E+03 -0.24088477066E+02  0.15449625674E+03  0.00000000000E+00 0. -1.
         -5    1    5    5    0  502 -0.83058174679E+02 -0.98871985148E+02 -0.35202969296E+02  0.13392411611E+03  0.47000000000E+01 0.  1.
         13    1    6    6    0    0 -0.12593652773E+02 -0.51585120520E+01  0.96546998559E+01  0.16686029068E+02  0.00000000000E+00 0. -1.
        -14    1    6    6    0    0  0.48867684971E+02 -0.16415687656E+03 -0.44285461730E+02  0.17690882645E+03  0.00000000000E+00 0.  1.
</event>
<event>
12    1  0.1039610E+000  0.2541204E+03  0.7818608E-02  0.1110851E+00
         21   -1    0    0  501  502  0.00000000000E+00  0.00000000000E+00  0.96121182679E+03  0.96121182679E+03  0.00000000000E+00 0. -1.
         21   -1    0    0  502  503 -0.00000000000E+00 -0.00000000000E+00 -0.70825422074E+02  0.70825422074E+02  0.00000000000E+00 0. -1.
         -6    2    1    2    0  503 -0.11055057733E+03  0.14849188884E+03  0.32420910106E+03  0.41144566355E+03  0.17292981712E+03 0.  0.
        -24    2    3    3    0    0 -0.36352651198E+02  0.13792218043E+03  0.28013101554E+03  0.32437087615E+03  0.79993976790E+02 0.  0.
          6    2    1    2  501    0  0.11055057733E+03 -0.14849188884E+03  0.56617730366E+03  0.62059158532E+03  0.17408591380E+03 0.  0.
         24    2    5    5    0    0  0.92100562860E+02 -0.16362928048E+02  0.27299415973E+03  0.29844734557E+03  0.76123240473E+02 0.  0.
          5    1    5    5  501    0  0.18450014470E+02 -0.13212896079E+03  0.29318314394E+03  0.32214423975E+03  0.47000000000E+01 0. -1.
        -11    1    6    6    0    0  0.74004311678E+02 -0.43831837227E+02  0.17336735418E+03  0.19353063736E+03  0.00000000000E+00 0.  1.
         12    1    6    6    0    0  0.18096251182E+02  0.27468909179E+02  0.99626805549E+02  0.10491670821E+03  0.00000000000E+00 0. -1.
         -5    1    3    3    0  503 -0.74197926132E+02  0.10569708402E+02  0.44078085515E+02  0.87074787400E+02  0.47000000000E+01 0.  1.
         11    1    4    4    0    0  0.44260191071E+01  0.57786424888E+02  0.47386783686E+02  0.74862325736E+02  0.00000000000E+00 0. -1.
        -12    1    4    4    0    0 -0.40778670305E+02  0.80135755545E+02  0.23274423185E+03  0.24950855042E+03  0.00000000000E+00 0.  1.
</event>
<event>
12    1  0.1039610E+000  0.1800667E+03  0.7818608E-02  0.1167879E+00
         21   -1    0    0  501  502  0.00000000000E+00  0.00000000000E+00  0.41426413537E+02  0.41426413537E+02  0.00000000000E+00 0.  1.
         21   -1    0    0  502  503 -0.00000000000E+00 -0.00000000000E+00 -0.12020210023E+04  0.12020210023E+04  0.00000000000E+00 0.  1.
         -6    2    1    2    0  503  0.25491787586E+02 -0.44824756156E+02 -0.21137341997E+03  0.27729791580E+03  0.17191952023E+03 0.  0.
        -24    2    3    3    0    0 -0.76786625699E+01  0.34763914356E+02 -0.14082075830E+03  0.16578826013E+03  0.79923523624E+02 0.  0.
          6    2    1    2  501    0 -0.25491787586E+02  0.44824756156E+02 -0.94922116878E+03  0.96614950003E+03  0.17252518411E+03 0.  0.
         24    2    5    5    0    0 -0.14435369671E+02 -0.38857436435E+02 -0.39424426092E+03  0.40477047300E+03  0.81806590684E+02 0.  0.
          5    1    5    5  501    0 -0.11056417914E+02  0.83682192591E+02 -0.55497690786E+03  0.56137902703E+03  0.47000000000E+01 0. -1.
        -13    1    6    6    0    0 -0.33200913499E+02 -0.38069088058E+02 -0.37303837901E+03  0.37644280885E+03  0.00000000000E+00 0.  1.
         14    1    6    6    0    0  0.18765543828E+02 -0.78834837710E+00 -0.21205881907E+02  0.28327664143E+02  0.00000000000E+00 0. -1.
         -5    1    3    3    0  503  0.33170450156E+02 -0.79588670512E+02 -0.70552661671E+02  0.11150965566E+03  0.47000000000E+01 0.  1.
         11    1    4    4    0    0 -0.15335485757E+02  0.97328163494E+01 -0.13830396681E+03  0.13949154840E+03  0.00000000000E+00 0. -1.
        -12    1    4    4    0    0  0.76568231875E+01  0.25031098007E+02 -0.25167914892E+01  0.26296711736E+02  0.00000000000E+00 0.  1.
</event>
<event>
12    1  0.1039610E+000  0.1845543E+03  0.7818608E-02  0.1164044E+00
         21   -1    0    0  501  502  0.00000000000E+00  0.00000000000E+00  0.13167442499E+04  0.13167442499E+04  0.00000000000E+00 0. -1.
         21   -1    0    0  502  503 -0.00000000000E+00 -0.00000000000E+00 -0.27689915413E+02  0.27689915413E+02  0.00000000000E+00 0. -1.
         -6    2    1    2    0  503  0.59630259897E+02  0.12036459383E+02  0.82851280119E+03  0.84829024240E+03  0.17164565059E+03 0.  0.
        -24    2    3    3    0    0  0.60280284033E+02 -0.31307220584E+02  0.75971603855E+03  0.76683975637E+03  0.79125836615E+02 0.  0.
          6    2    1    2  501    0 -0.59630259897E+02 -0.12036459383E+02  0.46054153326E+03  0.49614392288E+03  0.17424019083E+03 0.  0.
         24    2    5    5    0    0 -0.77096266093E+01  0.22318603356E+02  0.40145663267E+03  0.41018382764E+03  0.80782338027E+02 0.  0.
          5    1    5    5  501    0 -0.51920633287E+02 -0.34355062739E+02  0.59084900589E+02  0.85960095244E+02  0.47000000000E+01 0. -1.
        -11    1    6    6    0    0 -0.30216764393E+02  0.40011663700E+02  0.31858572038E+03  0.32250712754E+03  0.00000000000E+00 0.  1.
         12    1    6    6    0    0  0.22507137783E+02 -0.17693060344E+02  0.82870912295E+02  0.87676700098E+02  0.00000000000E+00 0. -1.
         -5    1    3    3    0  503 -0.65002413645E+00  0.43343679967E+02  0.68796762644E+02  0.81450486031E+02  0.47000000000E+01 0.  1.
         13    1    4    4    0    0 -0.13294341004E+02 -0.50656386253E+01  0.31459713207E+03  0.31491864934E+03  0.00000000000E+00 0. -1.
        -14    1    4    4    0    0  0.73574625037E+02 -0.26241581959E+02  0.44511890648E+03  0.45192110703E+03  0.00000000000E+00 0.  1.
</event>
<event>
12    1  0.1039610E+000  0.1741036E+03  0.7818608E-02  0.1174285E+00
         21   -1    0    0  501  502  0.00000000000E+00  0.00000000000E+00  0.72017281358E+02  0.72017281358E+02  0.00000000000E+00 0. -1.
         21   -1    0    0  502  503 -0.00000000000E+00 -0.00000000000E+00 -0.53664544175E+03  0.53664544175E+03  0.00000000000E+00 0. -1.
         -6    2    1    2    0  503  0.19322892826E+02 -0.29509838000E+01 -0.37868187943E+03  0.41678773858E+03  0.17300280556E+03 0.  0.
        -24    2    3    3    0    0  0.75551148221E+02 -0.81837828189E+01 -0.29867261536E+03  0.31874401758E+03  0.81347816689E+02 0.  0.
          6    2    1    2  501    0 -0.19322892826E+02  0.29509838000E+01 -0.85946280967E+02  0.19187498453E+03  0.17043228563E+03 0.  0.
         24    2    5    5    0    0 -0.26185449631E+02 -0.16341069854E+02 -0.12297967339E+03  0.14929752366E+03  0.78822853086E+02 0.  0.
          5    1    5    5  501    0  0.68625568046E+01  0.19292053654E+02  0.37033392419E+02  0.42577460870E+02  0.47000000000E+01 0. -1.
        -13    1    6    6    0    0  0.70923743937E+01 -0.71479737012E+01 -0.11287726875E+03  0.11332551832E+03  0.00000000000E+00 0.  1.
         14    1    6    6    0    0 -0.33277824024E+02 -0.91930961530E+01 -0.10102404638E+02  0.35972005339E+02  0.00000000000E+00 0. -1.
         -5    1    3    3    0  503 -0.56228255395E+02  0.52327990190E+01 -0.80009264070E+02  0.98043721000E+02  0.47000000000E+01 0.  1.
         13    1    4    4    0    0  0.22455576765E+02 -0.40366125780E+02 -0.16521912591E+03  0.17155476270E+03  0.00000000000E+00 0. -1.
        -14    1    4    4    0    0  0.53095571456E+02  0.32182342961E+02 -0.13345348945E+03  0.14718925488E+03  0.00000000000E+00 0.  1.
</event>
<event>
12    1  0.1039610E+000  0.4031371E+03  0.7818608E-02  0.1042881E+00
         21   -1    0    0  501  502  0.00000000000E+00  0.00000000000E+00  0.15029989280E+03  0.15029989280E+03  0.00000000000E+00 0. -1.
         21   -1    0    0  502  503 -0.00000000000E+00 -0.00000000000E+00 -0.10863091426E+04  0.10863091426E+04  0.00000000000E+00 0. -1.
         -6    2    1    2    0  503  0.18494123492E+03  0.31586175394E+03 -0.40789539884E+03  0.57349644554E+03  0.16896037605E+03 0.  0.
        -24    2    3    3    0    0  0.87038557561E+02  0.25317859764E+03 -0.23458419362E+03  0.36475503572E+03  0.79632778321E+02 0.  0.
          6    2    1    2  501    0 -0.18494123492E+03 -0.31586175394E+03 -0.52811385091E+03  0.66311258982E+03  0.16383576922E+03 0.  0.
         24    2    5    5    0    0 -0.12359333398E+03 -0.21868926746E+03 -0.45768280069E+03  0.52824717574E+03  0.80443922853E+02 0.  0.
          5    1    5    5  501    0 -0.61347900936E+02 -0.97172486484E+02 -0.70431050215E+02  0.13486541407E+03  0.47000000000E+01 0. -1.
        -13    1    6    6    0    0 -0.13443595543E+03 -0.18756957482E+03 -0.40342408896E+03  0.46476485136E+03  0.00000000000E+00 0.  1.
         14    1    6    6    0    0  0.10842621445E+02 -0.31119692639E+02 -0.54258711736E+02  0.63482324383E+02  0.00000000000E+00 0. -1.
         -5    1    3    3    0  503  0.97902677357E+02  0.62683156303E+02 -0.17331120522E+03  0.20874140982E+03  0.47000000000E+01 0.  1.
         13    1    4    4    0    0  0.15858227892E+02  0.11889106795E+03 -0.14557568718E+03  0.18862356727E+03  0.00000000000E+00 0. -1.
        -14    1    4    4    0    0  0.71180329669E+02  0.13428752969E+03 -0.89008506441E+02  0.17613146845E+03  0.00000000000E+00 0.  1.
</event>
<event>
12    1  0.1039610E+000  0.1818188E+03  0.7818608E-02  0.1166069E+00
         21   -1    0    0  503  502  0.00000000000E+00  0.00000000000E+00  0.34432539232E+03  0.34432539232E+03  0.00000000000E+00 0. -1.
         21   -1    0    0  501  503 -0.00000000000E+00 -0.00000000000E+00 -0.97097994114E+02  0.97097994114E+02  0.00000000000E+00 0. -1.
          6    2    1    2  501    0 -0.89869950497E+01  0.59229335359E+02  0.14735090214E+03  0.23403069698E+03  0.17166595037E+03 0.  0.
         24    2    3    3    0    0 -0.11252426599E+02  0.73882670595E+02  0.17341153887E+03  0.20368108084E+03  0.76348901500E+02 0.  0.
         -6    2    1    2    0  502  0.89869950497E+01 -0.59229335359E+02  0.99876496061E+02  0.20739268946E+03  0.17160283485E+03 0.  0.
        -24    2    5    5    0    0 -0.21608443731E+01  0.31304057641E+02  0.69379699244E+02  0.11109775611E+03  0.80898426884E+02 0.  0.
          5    1    3    3  501    0  0.22654315493E+01 -0.14653335235E+02 -0.26060636721E+02  0.30349616142E+02  0.47000000000E+01 0. -1.
        -11    1    4    4    0    0 -0.77323633488E+01 -0.11955429567E+02  0.58487097314E+02  0.60195201564E+02  0.00000000000E+00 0.  1.
         12    1    4    4    0    0 -0.35200632502E+01  0.85838100161E+02  0.11492444155E+03  0.14348587927E+03  0.00000000000E+00 0. -1.
         -5    1    5    5    0  502  0.11147839423E+02 -0.90533393000E+02  0.30496796817E+02  0.96294933345E+02  0.47000000000E+01 0.  1.
         13    1    6    6    0    0 -0.32807480505E+02  0.29312414420E+02  0.11338919233E+02  0.45432581983E+02  0.00000000000E+00 0. -1.
        -14    1    6    6    0    0  0.30646636132E+02  0.19916432206E+01  0.58040780011E+02  0.65665174127E+02  0.00000000000E+00 0.  1.
</event>
<event>
12    1  0.1039610E+000  0.1797095E+03  0.7818608E-02  0.1168272E+00
         21   -1    0    0  501  502  0.00000000000E+00  0.00000000000E+00  0.18887714128E+03  0.18887714128E+03  0.00000000000E+00 0. -1.
         21   -1    0    0  502  503 -0.00000000000E+00 -0.00000000000E+00 -0.21828965000E+03  0.21828965000E+03  0.00000000000E+00 0. -1.
         -6    2    1    2    0  503 -0.51075336164E+02 -0.77212264826E+01 -0.11023057307E+03  0.21082288160E+03  0.17212553810E+03 0.  0.
        -24    2    3    3    0    0  0.36677931223E+02 -0.12692951657E+01 -0.81147388378E+02  0.11803179913E+03  0.77457893183E+02 0.  0.
          6    2    1    2  501    0  0.51075336164E+02  0.77212264826E+01  0.80818064344E+02  0.19634390968E+03  0.17132152241E+03 0.  0.
         24    2    5    5    0    0 -0.16974754890E+02 -0.17286562456E+02 -0.17386684065E+01  0.86371601695E+02  0.82885843583E+02 0.  0.
          5    1    5    5  501    0  0.68050091054E+02  0.25007788939E+02  0.82556732750E+02  0.10997230798E+03  0.47000000000E+01 0. -1.
        -13    1    6    6    0    0  0.16154710926E+02  0.19856815424E+02 -0.20892502880E+02  0.33041859519E+02  0.00000000000E+00 0.  1.
         14    1    6    6    0    0 -0.33129465816E+02 -0.37143377880E+02  0.19153834473E+02  0.53329742177E+02  0.00000000000E+00 0. -1.
         -5    1    3    3    0  503 -0.87753267387E+02 -0.64519313168E+01 -0.29083184691E+02  0.92791082474E+02  0.47000000000E+01 0.  1.
         13    1    4    4    0    0 -0.11279097792E+02  0.26474500958E+02 -0.38751022124E+02  0.48267576732E+02  0.00000000000E+00 0. -1.
        -14    1    4    4    0    0  0.47957029015E+02 -0.27743796123E+02 -0.42396366254E+02  0.69764222398E+02  0.00000000000E+00 0.  1.
</event>
<event>
12    1  0.1039610E+000  0.2202724E+03  0.7818608E-02  0.1135545E+00
         21   -1    0    0  503  502  0.00000000000E+00  0.00000000000E+00  0.15733835562E+04  0.15733835562E+04  0.00000000000E+00 0. -1.
         21   -1    0    0  501  503 -0.00000000000E+00 -0.00000000000E+00 -0.61001001975E+02  0.61001001975E+02  0.00000000000E+00 0. -1.
          6    2    1    2  501    0 -0.20406285018E+02 -0.11766906904E+03  0.13352130279E+04  0.13517028371E+04  0.17333292696E+03 0.  0.
         24    2    3    3    0    0 -0.25459303086E+02 -0.13854169929E+03  0.12998950808E+04  0.13101017905E+04  0.82446964390E+02 0.  0.
         -6    2    1    2    0  502  0.20406285018E+02  0.11766906904E+03  0.17716952628E+03  0.28268172107E+03  0.18508778487E+03 0.  0.
        -24    2    5    5    0    0 -0.30199368771E+02  0.23527211523E+02  0.21043669389E+02  0.93417369638E+02  0.82573829828E+02 0.  0.
          5    1    3    3  501    0  0.50530180676E+01  0.20872630245E+02  0.35317947163E+02  0.41601046583E+02  0.47000000000E+01 0. -1.
        -11    1    4    4    0    0 -0.16032797626E+02 -0.68318602599E+02  0.97736192680E+03  0.97987796078E+03  0.00000000000E+00 0.  1.
         12    1    4    4    0    0 -0.94265054597E+01 -0.70223096690E+02  0.32253315395E+03  0.33022382972E+03  0.00000000000E+00 0. -1.
         -5    1    5    5    0  502  0.50605653789E+02  0.94141857521E+02  0.15612585689E+03  0.18926435143E+03  0.47000000000E+01 0.  1.
         11    1    6    6    0    0  0.27506571352E+02 -0.26539841469E+01  0.56228178261E+01  0.28200552826E+02  0.00000000000E+00 0. -1.
        -12    1    6    6    0    0 -0.57705940123E+02  0.26181195670E+02  0.15420851563E+02  0.65216816812E+02  0.00000000000E+00 0.  1.
</event>
<event>
12    1  0.1039610E+000  0.1890684E+03  0.7818608E-02  0.1159433E+00
         21   -1    0    0  501  502  0.00000000000E+00  0.00000000000E+00  0.16401301886E+03  0.16401301886E+03  0.00000000000E+00 0.  1.
         21   -1    0    0  502  503 -0.00000000000E+00 -0.00000000000E+00 -0.60473883041E+03  0.60473883041E+03  0.00000000000E+00 0.  1.
         -6    2    1    2    0  503  0.64674334177E+02 -0.40757143887E+02  0.87180171561E+02  0.20819999900E+03  0.17292467433E+03 0.  0.
        -24    2    3    3    0    0  0.84174833831E+02  0.24259677277E+02  0.68994358219E+02  0.13777081239E+03  0.80911313715E+02 0.  0.
          6    2    1    2  501    0 -0.64674334177E+02  0.40757143887E+02 -0.52790598312E+03  0.56055185026E+03  0.17230709661E+03 0.  0.
         24    2    5    5    0    0  0.35905038363E+01  0.64405415551E+02 -0.20300551965E+03  0.22768291205E+03  0.80419637921E+02 0.  0.
          5    1    5    5  501    0 -0.68264838013E+02 -0.23648271664E+02 -0.32490046347E+03  0.33286893821E+03  0.47000000000E+01 0. -1.
        -13    1    6    6    0    0 -0.15079624250E+02  0.20481653392E+02 -0.16423538445E+03  0.16619312471E+03  0.00000000000E+00 0.  1.
         14    1    6    6    0    0  0.18670128086E+02  0.43923762159E+02 -0.38770135195E+02  0.61489787347E+02  0.00000000000E+00 0. -1.
         -5    1    3    3    0  503 -0.19500499654E+02 -0.65016821164E+02  0.18185813342E+02  0.70429186620E+02  0.47000000000E+01 0.  1.
         11    1    4    4    0    0  0.82063134261E+02 -0.33652616041E-02  0.22192008082E+02  0.85010841889E+02  0.00000000000E+00 0. -1.
        -12    1    4    4    0    0  0.21116995700E+01  0.24263042539E+02  0.46802350138E+02  0.52759970496E+02  0.00000000000E+00 0.  1.
</event>
<event>
12    1  0.1039610E+000  0.1741490E+03  0.7818608E-02  0.1174135E+00
         21   -1    0    0  503  502  0.00000000000E+00  0.00000000000E+00  0.41473899013E+02  0.41473899013E+02  0.00000000000E+00 0.  1.
         21   -1    0    0  501  503 -0.00000000000E+00 -0.00000000000E+00 -0.72227012002E+03  0.72227012002E+03  0.00000000000E+00 0.  1.
          6    2    1    2  501    0 -0.44186115721E+00  0.97428808247E+01 -0.33976373077E+03  0.38081968677E+03  0.17172397070E+03 0.  0.
         24    2    3    3    0    0 -0.27090625786E+02 -0.53739358501E+02 -0.16493473104E+03  0.19286378632E+03  0.79819508348E+02 0.  0.
         -6    2    1    2    0  502  0.44186115721E+00 -0.97428808247E+01 -0.34103249023E+03  0.38292433226E+03  0.17387571963E+03 0.  0.
        -24    2    5    5    0    0  0.35965908320E+02 -0.23925633499E+02 -0.85919249174E+02  0.12491664989E+03  0.79724961844E+02 0.  0.
          5    1    3    3  501    0  0.26648764629E+02  0.63482239326E+02 -0.17482899973E+03  0.18795590045E+03  0.47000000000E+01 0. -1.
        -13    1    4    4    0    0  0.81738289044E+01 -0.54062044925E+02 -0.13815928236E+03  0.14858500423E+03  0.00000000000E+00 0.  1.
         14    1    4    4    0    0 -0.35264454691E+02  0.32268642384E+00 -0.26775448679E+02  0.44278782087E+02  0.00000000000E+00 0. -1.
         -5    1    5    5    0  502 -0.35524047162E+02  0.14182752675E+02 -0.25511324106E+03  0.25800768237E+03  0.47000000000E+01 0.  1.
         13    1    6    6    0    0  0.22806650757E+02  0.12584658372E+02 -0.81849519244E+02  0.85894474476E+02  0.00000000000E+00 0. -1.
        -14    1    6    6    0    0  0.13159257563E+02 -0.36510291872E+02 -0.40697299300E+01  0.39022175412E+02  0.00000000000E+00 0.  1.
</event>
<event>
12    1  0.1039610E+000  0.1961991E+03  0.7818608E-02  0.1153197E+00
         21   -1    0    0  501  502  0.00000000000E+00  0.00000000000E+00  0.67730643833E+03  0.67730643833E+03  0.00000000000E+00 0.  1.
         21   -1    0    0  502  503 -0.00000000000E+00 -0.00000000000E+00 -0.57879024307E+02  0.57879024307E+02  0.00000000000E+00 0.  1.
         -6    2    1    2    0  503  0.12826217234E+02 -0.93887765337E+02  0.36612705467E+03  0.41538308780E+03  0.17179832693E+03 0.  0.
        -24    2    3    3    0    0 -0.20805723584E+02  0.12997299218E+02  0.20390690245E+03  0.21817002470E+03  0.73609285358E+02 0.  0.
          6    2    1    2  501    0 -0.12826217234E+02  0.93887765337E+02  0.25330035935E+03  0.31980237484E+03  0.17068410171E+03 0.  0.
         24    2    5    5    0    0  0.52936029537E+02  0.23776772786E+02  0.12304508481E+03  0.15784944673E+03  0.80054961063E+02 0.  0.
          5    1    5    5  501    0 -0.65762246771E+02  0.70110992551E+02  0.13025527454E+03  0.16195292811E+03  0.47000000000E+01 0. -1.
        -11    1    6    6    0    0  0.58562549731E+02  0.35799153245E+02  0.53435744504E+02  0.86985805709E+02  0.00000000000E+00 0.  1.
         12    1    6    6    0    0 -0.56265201944E+01 -0.12022380460E+02  0.69609340304E+02  0.70863641023E+02  0.00000000000E+00 0. -1.
         -5    1    3    3    0  503  0.33631940818E+02 -0.10688506455E+03  0.16222015222E+03  0.19721306309E+03  0.47000000000E+01 0.  1.
         13    1    4    4    0    0  0.22963788096E+02 -0.42602425829E+01  0.11735932819E+03  0.11966075858E+03  0.00000000000E+00 0. -1.
        -14    1    4    4    0    0 -0.43769511680E+02  0.17257541801E+02  0.86547574258E+02  0.98509266120E+02  0.00000000000E+00 0.  1.
</event>
<event>
12    1  0.1039610E+000  0.1712599E+03  0.7818608E-02  0.1176773E+00
         21   -1    0    0  503  502  0.00000000000E+00  0.00000000000E+00  0.91217564728E+02  0.91217564728E+02  0.00000000000E+00 0.  1.
         21   -1    0    0  501  503 -0.00000000000E+00 -0.00000000000E+00 -0.31985003686E+03  0.31985003686E+03  0.00000000000E+00 0.  1.
          6    2    1    2  501    0  0.44313551028E+01 -0.69153112624E+01 -0.11395018881E+03  0.20495600380E+03  0.17016127505E+03 0.  0.
         24    2    3    3    0    0 -0.57252562975E+02 -0.60219428480E+01 -0.29972228639E+02  0.10064832598E+03  0.76926141661E+02 0.  0.
         -6    2    1    2    0  502 -0.44313551028E+01  0.69153112624E+01 -0.11468228332E+03  0.20611159779E+03  0.17106287206E+03 0.  0.
        -24    2    5    5    0    0 -0.22369461861E+02  0.57708732559E+02 -0.11272228933E+03  0.15200356791E+03  0.81043688879E+02 0.  0.
          5    1    3    3  501    0  0.61683918078E+02 -0.89336841442E+00 -0.83977960172E+02  0.10430767782E+03  0.47000000000E+01 0. -1.
        -13    1    4    4    0    0 -0.44604887787E+02 -0.56519347851E+01 -0.55935624604E+02  0.71765830875E+02  0.00000000000E+00 0.  1.
         14    1    4    4    0    0 -0.12647675188E+02 -0.37000806287E+00  0.25963395965E+02  0.28882495109E+02  0.00000000000E+00 0. -1.
         -5    1    5    5    0  502  0.17938106759E+02 -0.50793421296E+02 -0.19599939875E+01  0.54108029880E+02  0.47000000000E+01 0.  1.
         11    1    6    6    0    0 -0.19414460164E+02  0.74566133975E+02 -0.63355898438E+02  0.99754696462E+02  0.00000000000E+00 0. -1.
        -12    1    6    6    0    0 -0.29550016974E+01 -0.16857401416E+02 -0.49366390893E+02  0.52248871445E+02  0.00000000000E+00 0.  1.
</event>
<event>
12    1  0.1039610E+000  0.2068511E+03  0.7818608E-02  0.1145198E+00
         21   -1    0    0  503  502  0.00000000000E+00  0.00000000000E+00  0.10853078089E+03  0.10853078089E+03  0.00000000000E+00 0. -1.
         21   -1    0    0  501  503 -0.00000000000E+00 -0.00000000000E+00 -0.51257925104E+03  0.51257925104E+03  0.00000000000E+00 0. -1.
          6    2    1    2  501    0  0.43634855958E+02  0.97128643753E+02 -0.48475620033E+02  0.21245528521E+03  0.17733975410E+03 0.  0.
         24    2    3    3    0    0 -0.11321978858E+02  0.11747902470E+03 -0.11262980791E+02  0.14287610573E+03  0.79732166683E+02 0.  0.
         -6    2    1    2    0  502 -0.43634855958E+02 -0.97128643753E+02 -0.35557285012E+03  0.40865474672E+03  0.17096396165E+03 0.  0.
        -24    2    5    5    0    0  0.14206710123E+02 -0.26448443847E+02 -0.79735609282E+02  0.11805259453E+03  0.81714728739E+02 0.  0.
          5    1    3    3  501    0  0.54956834816E+02 -0.20350380944E+02 -0.37212639242E+02  0.69579179478E+02  0.47000000000E+01 0. -1.
        -11    1    4    4    0    0  0.12557248308E+01  0.10699815917E+03 -0.36270829088E+02  0.11298564490E+03  0.00000000000E+00 0.  1.
         12    1    4    4    0    0 -0.12577703689E+02  0.10480865525E+02  0.25007848297E+02  0.29890460831E+02  0.00000000000E+00 0. -1.
         -5    1    5    5    0  502 -0.57841566082E+02 -0.70680199906E+02 -0.27583724084E+03  0.29060215219E+03  0.47000000000E+01 0.  1.
         13    1    6    6    0    0  0.37323405573E+02 -0.15799682868E+02 -0.83024948880E+02  0.92389440515E+02  0.00000000000E+00 0. -1.
        -14    1    6    6    0    0 -0.23116695449E+02 -0.10648760979E+02  0.32893395979E+01  0.25663154013E+02  0.00000000000E+00 0.  1.
</event>
<event>
12    1  0.1039610E+000  0.1974982E+03  0.7818608E-02  0.1152099E+00
         21   -1    0    0  501  502  0.00000000000E+00  0.00000000000E+00  0.18830718108E+03  0.18830718108E+03  0.00000000000E+00 0. -1.
         21   -1    0    0  502  503 -0.00000000000E+00 -0.00000000000E+00 -0.33798918351E+03  0.33798918351E+03  0.00000000000E+00 0. -1.
         -6    2    1    2    0  503 -0.68466670777E+02  0.65152209606E+02  0.89722574927E+02  0.21594158392E+03  0.17218632870E+03 0.  0.
        -24    2    3    3    0    0 -0.10283492159E+03  0.16444222406E+02  0.82269864641E+02  0.15568150119E+03  0.81381605019E+02 0.  0.
          6    2    1    2  501    0  0.68466670777E+02 -0.65152209606E+02 -0.23940457735E+03  0.31035478067E+03  0.17341580898E+03 0.  0.
         24    2    5    5    0    0 -0.26250056716E+02 -0.46749941446E+02 -0.14894767874E+03  0.17801263905E+03  0.81415392645E+02 0.  0.
          5    1    5    5  501    0  0.94716727493E+02 -0.18402268160E+02 -0.90456898616E+02  0.13234214162E+03  0.47000000000E+01 0. -1.
        -11    1    6    6    0    0  0.16602859803E+02  0.14831027495E+02 -0.29486357190E+02  0.36946712852E+02  0.00000000000E+00 0.  1.
         12    1    6    6    0    0 -0.42852916519E+02 -0.61580968941E+02 -0.11946132155E+03  0.14106592620E+03  0.00000000000E+00 0. -1.
         -5    1    3    3    0  503  0.34368250808E+02  0.48707987200E+02  0.74527102859E+01  0.60260082735E+02  0.47000000000E+01 0.  1.
         13    1    4    4    0    0 -0.51353126315E+02  0.17992220612E+01 -0.67332205953E+01  0.51823904156E+02  0.00000000000E+00 0. -1.
        -14    1    4    4    0    0 -0.51481795270E+02  0.14645000344E+02  0.89003085237E+02  0.10385759703E+03  0.00000000000E+00 0.  1.
</event>
<event>
12    1  0.1039610E+000  0.1827178E+03  0.7818608E-02  0.1166381E+00
         21   -1    0    0  501  502  0.00000000000E+00  0.00000000000E+00  0.67186784282E+03  0.67186784282E+03  0.00000000000E+00 0. -1.
         21   -1    0    0  502  503 -0.00000000000E+00 -0.00000000000E+00 -0.48365050885E+02  0.48365050885E+02  0.00000000000E+00 0. -1.
         -6    2    1    2    0  503  0.18980503421E+02  0.41345598255E+02  0.31428885034E+03  0.36354268623E+03  0.17696351393E+03 0.  0.
        -24    2    3    3    0    0  0.73324071623E+02  0.55718242631E+02  0.24701607377E+03  0.27575024477E+03  0.80872212461E+02 0.  0.
          6    2    1    2  501    0 -0.18980503421E+02 -0.41345598255E+02  0.30921394160E+03  0.35669020747E+03  0.17188637067E+03 0.  0.
         24    2    5    5    0    0 -0.16890199066E+01  0.30242801589E+02  0.75254528954E+02  0.11136798842E+03  0.76302718701E+02 0.  0.
          5    1    5    5  501    0 -0.17291483514E+02 -0.71588399845E+02  0.23395941265E+03  0.24532221905E+03  0.47000000000E+01 0. -1.
        -13    1    6    6    0    0  0.49904288932E+01  0.20518567489E+02  0.90022731235E+02  0.92466254014E+02  0.00000000000E+00 0.  1.
         14    1    6    6    0    0 -0.66794487999E+01  0.97242341003E+01 -0.14768202281E+02  0.18901734410E+02  0.00000000000E+00 0. -1.
         -5    1    3    3    0  503 -0.54343568202E+02 -0.14372644376E+02  0.67272776570E+02  0.87792441467E+02  0.47000000000E+01 0.  1.
         13    1    4    4    0    0  0.23875377820E+02  0.44333419906E+02  0.20113023251E+03  0.20733754174E+03  0.00000000000E+00 0. -1.
        -14    1    4    4    0    0  0.49448693802E+02  0.11384822725E+02  0.45885841261E+02  0.68412703027E+02  0.00000000000E+00 0.  1.
</event>
<event>
12    1  0.1039610E+000  0.1742451E+03  0.7818608E-02  0.1173750E+00
         21   -1    0    0  501  502  0.00000000000E+00  0.00000000000E+00  0.84452568660E+02  0.84452568660E+02  0.00000000000E+00 0. -1.
         21   -1    0    0  502  503 -0.00000000000E+00 -0.00000000000E+00 -0.36472440580E+03  0.36472440580E+03  0.00000000000E+00 0. -1.
         -6    2    1    2    0  503 -0.20592787628E+02  0.10580458401E+02 -0.17235796525E+03  0.24508898929E+03  0.17270013168E+03 0.  0.
        -24    2    3    3    0    0 -0.45143065961E+02 -0.90601293509E+01 -0.18946128308E+03  0.20899075755E+03  0.75243448952E+02 0.  0.
          6    2    1    2  501    0  0.20592787628E+02 -0.10580458401E+02 -0.10791387190E+03  0.20408798518E+03  0.17166972052E+03 0.  0.
         24    2    5    5    0    0  0.82934578123E+01  0.40964944838E+02 -0.11764317389E+03  0.15000516511E+03  0.83154825779E+02 0.  0.
          5    1    5    5  501    0  0.12299329815E+02 -0.51545403239E+02  0.97293019896E+01  0.54082820065E+02  0.47000000000E+01 0. -1.
        -11    1    6    6    0    0  0.43377080923E+02  0.13165782824E+02 -0.77980106255E+02  0.90198702642E+02  0.00000000000E+00 0.  1.
         12    1    6    6    0    0 -0.35083623111E+02  0.27799162014E+02 -0.39663067631E+02  0.59806462471E+02  0.00000000000E+00 0. -1.
         -5    1    3    3    0  503  0.24550278333E+02  0.19640587751E+02  0.17103317828E+02  0.36098231732E+02  0.47000000000E+01 0.  1.
         13    1    4    4    0    0  0.64306737960E+01 -0.18589460701E+02 -0.12182417172E+03  0.12340198714E+03  0.00000000000E+00 0. -1.
        -14    1    4    4    0    0 -0.51573739757E+02  0.95293313503E+01 -0.67637111352E+02  0.85588770411E+02  0.00000000000E+00 0.  1.
</event>
<event>
12    1  0.1039610E+000  0.2719404E+03  0.7818608E-02  0.1100534E+00
         21   -1    0    0  503  502  0.00000000000E+00  0.00000000000E+00  0.74185222416E+03  0.74185222416E+03  0.00000000000E+00 0.  1.
         21   -1    0    0  501  503 -0.00000000000E+00 -0.00000000000E+00 -0.26101670197E+03  0.26101670197E+03  0.00000000000E+00 0. -1.
          6    2    1    2  501    0 -0.19202149587E+03  0.84531013108E+02  0.63534057062E+03  0.69010162907E+03  0.16901145142E+03 0.  0.
         24    2    3    3    0    0 -0.47958559113E+02  0.85117381944E+02  0.32498489149E+03  0.34790693135E+03  0.76675035607E+02 0.  0.
         -6    2    1    2    0  502  0.19202149587E+03 -0.84531013108E+02 -0.15450504842E+03  0.31276729706E+03  0.17301394472E+03 0.  0.
        -24    2    5    5    0    0  0.83939316166E+02 -0.70319810646E+02 -0.14728655361E+02  0.13544486220E+03  0.78343428831E+02 0.  0.
          5    1    3    3  501    0 -0.14406293676E+03 -0.58636883596E+00  0.31035567913E+03  0.34219469772E+03  0.47000000000E+01 0. -1.
        -11    1    4    4    0    0 -0.31176079259E+02  0.42642465668E+02  0.27570021937E+03  0.28071504904E+03  0.00000000000E+00 0.  1.
         12    1    4    4    0    0 -0.16782479854E+02  0.42474916276E+02  0.49284672113E+02  0.67191882308E+02  0.00000000000E+00 0. -1.
         -5    1    5    5    0  502  0.10808217971E+03 -0.14211202462E+02 -0.13977639306E+03  0.17732243486E+03  0.47000000000E+01 0.  1.
         11    1    6    6    0    0  0.14492753512E+02 -0.21369646804E+02 -0.39278043325E+02  0.47004961401E+02  0.00000000000E+00 0. -1.
        -12    1    6    6    0    0  0.69446562653E+02 -0.48950163843E+02  0.24549387964E+02  0.88439900803E+02  0.00000000000E+00 0.  1.
</event>
<event>
12    1  0.1039610E+000  0.1952588E+03  0.7818608E-02  0.1153883E+00
         21   -1    0    0  501  502  0.00000000000E+00  0.00000000000E+00  0.10075301294E+04  0.10075301294E+04  0.00000000000E+00 0. -1.
         21   -1    0    0  502  503 -0.00000000000E+00 -0.00000000000E+00 -0.39959176497E+02  0.39959176497E+02  0.00000000000E+00 0. -1.
         -6    2    1    2    0  503  0.91656038889E+02  0.16170037128E+02  0.36073325564E+03  0.41001147223E+03  0.17122682637E+03 0.  0.
        -24    2    3    3    0    0  0.58753096624E+01 -0.46858215690E+02  0.13673364026E+03  0.16196145338E+03  0.72836888737E+02 0.  0.
          6    2    1    2  501    0 -0.91656038889E+02 -0.16170037128E+02  0.60683769726E+03  0.63747783366E+03  0.17164992874E+03 0.  0.
         24    2    5    5    0    0  0.15333308631E+02 -0.33280039676E+02  0.16321349888E+03  0.18078976501E+03  0.68582953565E+02 0.  0.
          5    1    5    5  501    0 -0.10698934752E+03  0.17110002549E+02  0.44362419837E+03  0.45668806865E+03  0.47000000000E+01 0. -1.
        -13    1    6    6    0    0  0.24812518696E+02  0.55741404221E+01  0.11673480788E+03  0.11947278977E+03  0.00000000000E+00 0.  1.
         14    1    6    6    0    0 -0.94792100653E+01 -0.38854180099E+02  0.46478691004E+02  0.61316975236E+02  0.00000000000E+00 0. -1.
         -5    1    3    3    0  503  0.85780729227E+02  0.63028252818E+02  0.22399961539E+03  0.24805001885E+03  0.47000000000E+01 0.  1.
         11    1    4    4    0    0  0.71939969628E+01 -0.27519083960E+02  0.13950954844E+03  0.14237966034E+03  0.00000000000E+00 0. -1.
        -12    1    4    4    0    0 -0.13186873004E+01 -0.19339131731E+02 -0.27759081784E+01  0.19581793036E+02  0.00000000000E+00 0.  1.
</event>
<event>
12    1  0.1039610E+000  0.3003495E+03  0.7818608E-02  0.1085139E+00
         21   -1    0    0  501  502  0.00000000000E+00  0.00000000000E+00  0.42578313366E+03  0.42578313366E+03  0.00000000000E+00 0. -1.
         21   -1    0    0  502  503 -0.00000000000E+00 -0.00000000000E+00 -0.64794968890E+03  0.64794968890E+03  0.00000000000E+00 0. -1.
         -6    2    1    2    0  503  0.20333682378E+03  0.13951039103E+03  0.32959096126E+03  0.44552411828E+03  0.17044801294E+03 0.  0.
        -24    2    3    3    0    0  0.14886767510E+03  0.14337336614E+03  0.32000369240E+03  0.38988405665E+03  0.83004262950E+02 0.  0.
          6    2    1    2  501    0 -0.20333682378E+03 -0.13951039103E+03 -0.55175751649E+03  0.62820870428E+03  0.17146663239E+03 0.  0.
         24    2    5    5    0    0 -0.15890046363E+03 -0.16965799239E+03 -0.46622984433E+03  0.52711201455E+03  0.80272139674E+02 0.  0.
          5    1    5    5  501    0 -0.44436360142E+02  0.30147601365E+02 -0.85527672156E+02  0.10109668973E+03  0.47000000000E+01 0. -1.
        -13    1    6    6    0    0 -0.40938664803E+02 -0.88744830940E+02 -0.24375927783E+03  0.26262179045E+03  0.00000000000E+00 0.  1.
         14    1    6    6    0    0 -0.11796179883E+03 -0.80913161452E+02 -0.22247056651E+03  0.26449022409E+03  0.00000000000E+00 0. -1.
         -5    1    3    3    0  503  0.54469148671E+02 -0.38629751150E+01  0.95872688530E+01  0.55640061626E+02  0.47000000000E+01 0.  1.
         13    1    4    4    0    0  0.85481022663E+02  0.12078048159E+03  0.16936802557E+03  0.22490099612E+03  0.00000000000E+00 0. -1.
        -14    1    4    4    0    0  0.63386652441E+02  0.22592884550E+02  0.15063566684E+03  0.16498306054E+03  0.00000000000E+00 0.  1.
</event>
<event>
12    1  0.1039610E+000  0.1896634E+03  0.7818608E-02  0.1159390E+00
         21   -1    0    0  503  502  0.00000000000E+00  0.00000000000E+00  0.40997964035E+02  0.40997964035E+02  0.00000000000E+00 0. -1.
         21   -1    0    0  501  503 -0.00000000000E+00 -0.00000000000E+00 -0.99114316209E+03  0.99114316209E+03  0.00000000000E+00 0.  1.
          6    2    1    2  501    0 -0.20034837494E+02 -0.77352456418E+02 -0.28777644774E+03  0.34315305841E+03  0.16897911231E+03 0.  0.
         24    2    3    3    0    0 -0.19549448294E+02 -0.36446846023E+02 -0.52250366299E+02  0.10405448124E+03  0.79916711487E+02 0.  0.
         -6    2    1    2    0  502  0.20034837494E+02  0.77352456418E+02 -0.66236875031E+03  0.68898806771E+03  0.17200988004E+03 0.  0.
        -24    2    5    5    0    0  0.37695135865E+02  0.49547754864E+02 -0.64142218353E+03  0.64967094387E+03  0.82304401509E+02 0.  0.
          5    1    3    3  501    0 -0.48538919999E+00 -0.40905610395E+02 -0.23552608144E+03  0.23909857717E+03  0.47000000000E+01 0. -1.
        -11    1    4    4    0    0  0.45743620199E+00 -0.46460563989E+02 -0.63761105255E+02  0.78894054259E+02  0.00000000000E+00 0.  1.
         12    1    4    4    0    0 -0.20006884496E+02  0.10013717966E+02  0.11510738956E+02  0.25160426985E+02  0.00000000000E+00 0. -1.
         -5    1    5    5    0  502 -0.17660298371E+02  0.27804701554E+02 -0.20946566784E+02  0.39317123841E+02  0.47000000000E+01 0.  1.
         11    1    6    6    0    0  0.25311479825E+02  0.64167786419E+02 -0.30497427866E+03  0.31267792770E+03  0.00000000000E+00 0. -1.
        -12    1    6    6    0    0  0.12383656040E+02 -0.14620031555E+02 -0.33644790487E+03  0.33699301617E+03  0.00000000000E+00 0.  1.
</event>
<event>
12    1  0.1039610E+000  0.1922907E+03  0.7818608E-02  0.1156575E+00
         21   -1    0    0  503  502  0.00000000000E+00  0.00000000000E+00  0.32848625491E+03  0.32848625491E+03  0.00000000000E+00 0. -1.
         21   -1    0    0  501  503 -0.00000000000E+00 -0.00000000000E+00 -0.13570331613E+03  0.13570331613E+03  0.00000000000E+00 0. -1.
          6    2    1    2  501    0 -0.28865628772E+02 -0.80100006208E+02 -0.48916995565E+00  0.19155460229E+03  0.17159163981E+03 0.  0.
         24    2    3    3    0    0 -0.75631885545E+02 -0.26611588881E+02  0.23938934573E+02  0.11627568192E+03  0.80737865000E+02 0.  0.
         -6    2    1    2    0  502  0.28865628772E+02  0.80100006208E+02  0.19327210874E+03  0.27263496876E+03  0.17241369625E+03 0.  0.
        -24    2    5    5    0    0 -0.59679813789E+01  0.58392794299E+02  0.20681775804E+03  0.22915902069E+03  0.79340635844E+02 0.  0.
          5    1    3    3  501    0  0.46766256773E+02 -0.53488417327E+02 -0.24428104528E+02  0.75278920366E+02  0.47000000000E+01 0. -1.
        -13    1    4    4    0    0 -0.43034474763E+02  0.22093823249E+01 -0.25773546820E+02  0.50210786730E+02  0.00000000000E+00 0.  1.
         14    1    4    4    0    0 -0.32597410782E+02 -0.28820971206E+02  0.49712481392E+02  0.66064895195E+02  0.00000000000E+00 0. -1.
         -5    1    5    5    0  502  0.34833610151E+02  0.21707211909E+02 -0.13545649306E+02  0.43475948065E+02  0.47000000000E+01 0.  1.
         13    1    6    6    0    0 -0.13968544610E+01  0.11669891048E+00 -0.71828815155E+01  0.73183746752E+01  0.00000000000E+00 0. -1.
        -14    1    6    6    0    0 -0.45711269179E+01  0.58276095388E+02  0.21400063956E+03  0.22184064602E+03  0.00000000000E+00 0.  1.
</event>
<event>
12    1  0.1039610E+000  0.2524511E+03  0.7818608E-02  0.1111965E+00
         21   -1    0    0  501  502  0.00000000000E+00  0.00000000000E+00  0.15223817271E+03  0.15223817271E+03  0.00000000000E+00 0.  1.
         21   -1    0    0  502  503 -0.00000000000E+00 -0.00000000000E+00 -0.44454407589E+03  0.44454407589E+03  0.00000000000E+00 0.  1.
         -6    2    1    2    0  503 -0.16044971718E+03  0.88659405366E+02 -0.71573144172E+02  0.26240102321E+03  0.17357125371E+03 0.  0.
        -24    2    3    3    0    0 -0.17902625960E+03  0.44610590050E+02 -0.39427736307E+02  0.20460134063E+03  0.79162212114E+02 0.  0.
          6    2    1    2  501    0  0.16044971718E+03 -0.88659405366E+02 -0.22073275901E+03  0.33438122540E+03  0.17170687550E+03 0.  0.
         24    2    5    5    0    0  0.90910861171E+01 -0.20042397926E+02 -0.75051570913E+02  0.11333184749E+03  0.82018435716E+02 0.  0.
          5    1    5    5  501    0  0.15135863106E+03 -0.68617007440E+02 -0.14568118810E+03  0.22104937791E+03  0.47000000000E+01 0. -1.
        -11    1    6    6    0    0  0.30291187269E+02 -0.38274479186E+01 -0.80496085001E+02  0.86091957140E+02  0.00000000000E+00 0.  1.
         12    1    6    6    0    0 -0.21200101152E+02 -0.16214950007E+02  0.54445140876E+01  0.27239890349E+02  0.00000000000E+00 0. -1.
         -5    1    3    3    0  503  0.18576542425E+02  0.44048815316E+02 -0.32145407864E+02  0.57799682576E+02  0.47000000000E+01 0.  1.
         11    1    4    4    0    0 -0.34524281593E+02  0.16393464600E+02 -0.42736366515E+02  0.57332963677E+02  0.00000000000E+00 0. -1.
        -12    1    4    4    0    0 -0.14450197801E+03  0.28217125450E+02  0.33086302079E+01  0.14726837696E+03  0.00000000000E+00 0.  1.
</event>
<event>
12    1  0.1039610E+000  0.5190320E+03  0.7818608E-02  0.1009071E+00
         21   -1    0    0  501  502  0.00000000000E+00  0.00000000000E+00  0.38131523258E+03  0.38131523258E+03  0.00000000000E+00 0. -1.
         21   -1    0    0  502  503 -0.00000000000E+00 -0.00000000000E+00 -0.70337480343E+03  0.70337480343E+03  0.00000000000E+00 0. -1.
         -6    2    1    2    0  503 -0.44921629648E+03  0.18873047617E+03 -0.15775342857E+03  0.54027228502E+03  0.17202768402E+03 0.  0.
        -24    2    3    3    0    0 -0.23165653595E+03  0.87829955710E+02 -0.13705331254E+02  0.26047752314E+03  0.79258136412E+02 0.  0.
          6    2    1    2  501    0  0.44921629648E+03 -0.18873047617E+03 -0.16430614227E+03  0.54441775099E+03  0.17882870446E+03 0.  0.
         24    2    5    5    0    0  0.29981034536E+03 -0.13599342519E+03 -0.34548178090E+02  0.33957011481E+03  0.75722066699E+02 0.  0.
          5    1    5    5  501    0  0.14940595112E+03 -0.52737050983E+02 -0.12975796418E+03  0.20484763617E+03  0.47000000000E+01 0. -1.
        -13    1    6    6    0    0  0.87161666576E+02 -0.20927067875E+02 -0.38974524852E+02  0.97745137361E+02  0.00000000000E+00 0.  1.
         14    1    6    6    0    0  0.21264867878E+03 -0.11506635732E+03  0.44263467621E+01  0.24182497745E+03  0.00000000000E+00 0. -1.
         -5    1    3    3    0  503 -0.21755976054E+03  0.10090052046E+03 -0.14404809732E+03  0.27979476188E+03  0.47000000000E+01 0.  1.
         13    1    4    4    0    0 -0.14798028550E+02  0.11345132774E+01  0.19582520874E+02  0.24571200482E+02  0.00000000000E+00 0. -1.
        -14    1    4    4    0    0 -0.21685850740E+03  0.86695442433E+02 -0.33287852128E+02  0.23590632265E+03  0.00000000000E+00 0.  1.
</event>
<event>
12    1  0.1039610E+000  0.2312138E+03  0.7818608E-02  0.1125867E+00
         21   -1    0    0  503  502  0.00000000000E+00  0.00000000000E+00  0.87671651463E+02  0.87671651463E+02  0.00000000000E+00 0. -1.
         21   -1    0    0  501  503 -0.00000000000E+00 -0.00000000000E+00 -0.68242047308E+03  0.68242047308E+03  0.00000000000E+00 0. -1.
          6    2    1    2  501    0 -0.82673926469E+01  0.15349840552E+03 -0.17098118187E+03  0.28756629382E+03  0.17271276302E+03 0.  0.
         24    2    3    3    0    0 -0.70160624012E+02  0.70034880121E+02 -0.92501650101E+02  0.15726641252E+03  0.79679179458E+02 0.  0.
         -6    2    1    2    0  502  0.82673926469E+01 -0.15349840552E+03 -0.42376763975E+03  0.48252583072E+03  0.17211058810E+03 0.  0.
        -24    2    5    5    0    0 -0.48339180293E+01 -0.10630283573E+03 -0.13273410880E+03  0.18736202487E+03  0.78501752064E+02 0.  0.
          5    1    3    3  501    0  0.61893231365E+02  0.83463525401E+02 -0.78479531770E+02  0.13029988130E+03  0.47000000000E+01 0. -1.
        -13    1    4    4    0    0  0.15034882583E+02  0.18871000299E+02 -0.45400701954E+01  0.24551468061E+02  0.00000000000E+00 0.  1.
         14    1    4    4    0    0 -0.85195506595E+02  0.51163879822E+02 -0.87961579906E+02  0.13271494446E+03  0.00000000000E+00 0. -1.
         -5    1    5    5    0  502  0.13101310676E+02 -0.47195569794E+02 -0.29103353094E+03  0.29516380585E+03  0.47000000000E+01 0.  1.
         13    1    6    6    0    0 -0.25362524361E+02 -0.60817142409E+01 -0.10885113422E+02  0.28261822027E+02  0.00000000000E+00 0. -1.
        -14    1    6    6    0    0  0.20528606332E+02 -0.10022112149E+03 -0.12184899538E+03  0.15910020285E+03  0.00000000000E+00 0.  1.
</event>
<event>
12    1  0.1039610E+000  0.2400136E+03  0.7818608E-02  0.1119897E+00
         21   -1    0    0  503  502  0.00000000000E+00  0.00000000000E+00  0.88143450792E+02  0.88143450792E+02  0.00000000000E+00 0. -1.
         21   -1    0    0  501  503 -0.00000000000E+00 -0.00000000000E+00 -0.83331435021E+03  0.83331435021E+03  0.00000000000E+00 0. -1.
          6    2    1    2  501    0  0.50876919337E+02 -0.15860389832E+03 -0.15791377322E+03  0.28730347925E+03  0.17280877273E+03 0.  0.
         24    2    3    3    0    0 -0.21067489288E+02 -0.14452181123E+03 -0.10024018445E+03  0.19390842611E+03  0.78879592493E+02 0.  0.
         -6    2    1    2    0  502 -0.50876919337E+02  0.15860389832E+03 -0.58725712621E+03  0.63415432176E+03  0.17186364957E+03 0.  0.
        -24    2    5    5    0    0 -0.44620246468E+01  0.16357461614E+03 -0.52699014282E+03  0.55777860722E+03  0.81374439073E+02 0.  0.
          5    1    3    3  501    0  0.71944408625E+02 -0.14082087087E+02 -0.57673588766E+02  0.93395053136E+02  0.47000000000E+01 0. -1.
        -13    1    4    4    0    0  0.15088938552E+02 -0.11740605345E+02 -0.38688336052E+02  0.43154434615E+02  0.00000000000E+00 0.  1.
         14    1    4    4    0    0 -0.36156427840E+02 -0.13278120589E+03 -0.61551848398E+02  0.15075399150E+03  0.00000000000E+00 0. -1.
         -5    1    5    5    0  502 -0.46414894690E+02 -0.49707178232E+01 -0.60266983385E+02  0.76375714537E+02  0.47000000000E+01 0.  1.
         11    1    6    6    0    0  0.26867432192E+01 -0.40422805734E+00 -0.10435939995E+03  0.10439476207E+03  0.00000000000E+00 0. -1.
        -12    1    6    6    0    0 -0.71487678660E+01  0.16397884420E+03 -0.42263074287E+03  0.45338384516E+03  0.00000000000E+00 0.  1.
</event>
<event>
12    1  0.1039610E+000  0.2469660E+03  0.7818608E-02  0.1115457E+00
         21   -1    0    0  503  502  0.00000000000E+00  0.00000000000E+00  0.12003782288E+03  0.12003782288E+03  0.00000000000E+00 0.  1.
         21   -1    0    0  501  503 -0.00000000000E+00 -0.00000000000E+00 -0.53935501143E+03  0.53935501143E+03  0.00000000000E+00 0.  1.
          6    2    1    2  501    0 -0.10135160792E+03  0.14473094886E+03 -0.12736583537E+03  0.27787455292E+03  0.17254858781E+03 0.  0.
         24    2    3    3    0    0 -0.33670653131E+02 -0.31058566306E+01 -0.52264287738E+02  0.98713270399E+02  0.76611975254E+02 0.  0.
         -6    2    1    2    0  502  0.10135160792E+03 -0.14473094886E+03 -0.29195135317E+03  0.38151828139E+03  0.17059135508E+03 0.  0.
        -24    2    5    5    0    0  0.10594435969E+03 -0.15359918276E+03 -0.30322985274E+03  0.36573748630E+03  0.83657928494E+02 0.  0.
          5    1    3    3  501    0 -0.67680954787E+02  0.14783680549E+03 -0.75101547633E+02  0.17916128252E+03  0.47000000000E+01 0. -1.
        -13    1    4    4    0    0 -0.51428598546E+01  0.15626405157E+02 -0.61250973268E+02  0.63421725551E+02  0.00000000000E+00 0.  1.
         14    1    4    4    0    0 -0.28527793277E+02 -0.18732261788E+02  0.89866855298E+01  0.35291544848E+02  0.00000000000E+00 0. -1.
         -5    1    5    5    0  502 -0.45927517670E+01  0.88682338987E+01  0.11278499564E+02  0.15780795090E+02  0.47000000000E+01 0.  1.
         13    1    6    6    0    0  0.11016577942E+03 -0.10699211117E+03 -0.26033543221E+03  0.30225543514E+03  0.00000000000E+00 0. -1.
        -14    1    6    6    0    0 -0.42214197393E+01 -0.46607071588E+02 -0.42894420524E+02  0.63482051154E+02  0.00000000000E+00 0.  1.
</event>
<event>
12    1  0.1039610E+000  0.2143928E+03  0.7818608E-02  0.1138219E+00
         21   -1    0    0  503  502  0.00000000000E+00  0.00000000000E+00  0.12990747430E+03  0.12990747430E+03  0.00000000000E+00 0.  1.
         21   -1    0    0  501  503 -0.00000000000E+00 -0.00000000000E+00 -0.36259145666E+03  0.36259145666E+03  0.00000000000E+00 0.  1.
          6    2    1    2  501    0  0.16792101742E+02  0.12532069719E+03 -0.76365943220E+02  0.22716971419E+03  0.17258931003E+03 0.  0.
         24    2    3    3    0    0 -0.56986139643E+02  0.78272473486E+02 -0.38580281352E+02  0.13174115191E+03  0.80580970345E+02 0.  0.
         -6    2    1    2    0  502 -0.16792101742E+02 -0.12532069719E+03 -0.15631803913E+03  0.26532921677E+03  0.17313870766E+03 0.  0.
        -24    2    5    5    0    0 -0.12058434493E+02 -0.13433582489E+03 -0.18001317149E+03  0.23911415563E+03  0.81112994182E+02 0.  0.
          5    1    3    3  501    0  0.73778241386E+02  0.47048223700E+02 -0.37785661868E+02  0.95428562276E+02  0.47000000000E+01 0. -1.
        -13    1    4    4    0    0 -0.30800505538E+02 -0.71548217280E+01 -0.27122067234E+02  0.41658962378E+02  0.00000000000E+00 0.  1.
         14    1    4    4    0    0 -0.26185634105E+02  0.85427295214E+02 -0.11458214118E+02  0.90082189537E+02  0.00000000000E+00 0. -1.
         -5    1    5    5    0  502 -0.47336672493E+01  0.90151277001E+01  0.23695132354E+02  0.26215061136E+02  0.47000000000E+01 0.  1.
         11    1    6    6    0    0 -0.19805290266E+02 -0.14326261390E+03 -0.15848791819E+03  0.21455732632E+03  0.00000000000E+00 0. -1.
        -12    1    6    6    0    0  0.77468557727E+01  0.89267890168E+01 -0.21525253293E+02  0.24556829311E+02  0.00000000000E+00 0.  1.
</event>
<event>
12    1  0.1039610E+000  0.2343674E+03  0.7818608E-02  0.1123637E+00
         21   -1    0    0  503  502  0.00000000000E+00  0.00000000000E+00  0.30578512378E+03  0.30578512378E+03  0.00000000000E+00 0.  1.
         21   -1    0    0  501  503 -0.00000000000E+00 -0.00000000000E+00 -0.26891621354E+03  0.26891621354E+03  0.00000000000E+00 0.  1.
          6    2    1    2  501    0 -0.44401104473E+02 -0.15207670691E+03 -0.14728754100E+03  0.27663813004E+03  0.17244202618E+03 0.  0.
         24    2    3    3    0    0 -0.20905307619E+02 -0.17765271166E+03 -0.10470205533E+03  0.22148563165E+03  0.78075904045E+02 0.  0.
         -6    2    1    2    0  502  0.44401104473E+02  0.15207670691E+03  0.18415645124E+03  0.29806320728E+03  0.17271159237E+03 0.  0.
        -24    2    5    5    0    0  0.56460506690E+02  0.17708757334E+03  0.13910500887E+03  0.24493416550E+03  0.78068844552E+02 0.  0.
          5    1    3    3  501    0 -0.23495796854E+02  0.25576004744E+02 -0.42585485671E+02  0.55152498387E+02  0.47000000000E+01 0. -1.
        -11    1    4    4    0    0 -0.11182371810E+02 -0.98283421903E+01 -0.37675273925E+02  0.40510097690E+02  0.00000000000E+00 0.  1.
         12    1    4    4    0    0 -0.97229358094E+01 -0.16782436947E+03 -0.67026781403E+02  0.18097553396E+03  0.00000000000E+00 0. -1.
         -5    1    5    5    0  502 -0.12059402217E+02 -0.25010866424E+02  0.45051442371E+02  0.53129041783E+02  0.47000000000E+01 0.  1.
         13    1    6    6    0    0  0.72038892310E+02  0.16941530778E+03  0.12447650228E+03  0.22222859432E+03  0.00000000000E+00 0. -1.
        -14    1    6    6    0    0 -0.15578385620E+02  0.76722655579E+01  0.14628506591E+02  0.22705571175E+02  0.00000000000E+00 0.  1.
</event>
<event>
12    1  0.1039610E+000  0.4039827E+03  0.7818608E-02  0.1042424E+00
         21   -1    0    0  501  502  0.00000000000E+00  0.00000000000E+00  0.98278654957E+03  0.98278654957E+03  0.00000000000E+00 0. -1.
         21   -1    0    0  502  503 -0.00000000000E+00 -0.00000000000E+00 -0.16993119051E+03  0.16993119051E+03  0.00000000000E+00 0.  1.
         -6    2    1    2    0  503 -0.36348915639E+03 -0.33019267388E+02  0.31871642261E+03  0.51456990283E+03  0.17316866930E+03 0.  0.
        -24    2    3    3    0    0 -0.32550050398E+03  0.91196559131E+01  0.22179035660E+03  0.40216181220E+03  0.80680943773E+02 0.  0.
          6    2    1    2  501    0  0.36348915639E+03  0.33019267388E+02  0.49413893645E+03  0.63814783725E+03  0.17275628738E+03 0.  0.
         24    2    5    5    0    0  0.37681901857E+03  0.33809193302E+02  0.48831805189E+03  0.62284156710E+03  0.79633307039E+02 0.  0.
          5    1    5    5  501    0 -0.13329862184E+02 -0.78992591325E+00  0.58208845611E+01  0.15306270149E+02  0.47000000000E+01 0. -1.
        -13    1    6    6    0    0  0.19117040226E+03 -0.20609191323E+02  0.26446872950E+03  0.32697793557E+03  0.00000000000E+00 0.  1.
         14    1    6    6    0    0  0.18564861631E+03  0.54418384625E+02  0.22384932239E+03  0.29586363153E+03  0.00000000000E+00 0. -1.
         -5    1    3    3    0  503 -0.37988652406E+02 -0.42138923301E+02  0.96926066008E+02  0.11240809064E+03  0.47000000000E+01 0.  1.
         13    1    4    4    0    0 -0.18243685794E+03  0.25384182912E+02  0.16530263097E+03  0.24749247197E+03  0.00000000000E+00 0. -1.
        -14    1    4    4    0    0 -0.14306364605E+03 -0.16264526999E+02  0.56487725636E+02  0.15466934023E+03  0.00000000000E+00 0.  1.
</event>
<event>
12    1  0.1039610E+000  0.1964427E+03  0.7818608E-02  0.1153063E+00
         21   -1    0    0  503  502  0.00000000000E+00  0.00000000000E+00  0.50360214320E+03  0.50360214320E+03  0.00000000000E+00 0. -1.
         21   -1    0    0  501  503 -0.00000000000E+00 -0.00000000000E+00 -0.76634741723E+02  0.76634741723E+02  0.00000000000E+00 0. -1.
          6    2    1    2  501    0 -0.94776825648E+02 -0.16718983591E+01  0.18878832619E+03  0.27149911985E+03  0.17054412347E+03 0.  0.
         24    2    3    3    0    0  0.11908272088E+02 -0.22030710167E+02  0.62056893160E+02  0.10452865116E+03  0.80299575281E+02 0.  0.
         -6    2    1    2    0  502  0.94776825648E+02  0.16718983591E+01  0.23817907529E+03  0.30873776507E+03  0.17205898335E+03 0.  0.
        -24    2    5    5    0    0  0.28426919245E+02 -0.57137971921E+02  0.95596334471E+02  0.14077098591E+03  0.81270989519E+02 0.  0.
          5    1    3    3  501    0 -0.10668509774E+03  0.20358811808E+02  0.12673143303E+03  0.16697046869E+03  0.47000000000E+01 0. -1.
        -11    1    4    4    0    0  0.31034497230E+01  0.28276033169E+02  0.67252652066E+01  0.29230029833E+02  0.00000000000E+00 0.  1.
         12    1    4    4    0    0  0.88048223646E+01 -0.50306743336E+02  0.55331627953E+02  0.75298621328E+02  0.00000000000E+00 0. -1.
         -5    1    5    5    0  502  0.66349906403E+02  0.58809870280E+02  0.14258274082E+03  0.16796677916E+03  0.47000000000E+01 0.  1.
         13    1    6    6    0    0  0.31773328354E+02  0.35427785049E+01  0.60315815000E+01  0.32534222745E+02  0.00000000000E+00 0. -1.
        -14    1    6    6    0    0 -0.33464091089E+01 -0.60680750425E+02  0.89564752971E+02  0.10823676317E+03  0.00000000000E+00 0.  1.
</event>
<event>
12    1  0.1039610E+000  0.2372373E+03  0.7818608E-02  0.1121892E+00
         21   -1    0    0  501  502  0.00000000000E+00  0.00000000000E+00  0.20670794871E+03  0.20670794871E+03  0.00000000000E+00 0. -1.
         21   -1    0    0  502  503 -0.00000000000E+00 -0.00000000000E+00 -0.29372608238E+03  0.29372608238E+03  0.00000000000E+00 0. -1.
         -6    2    1    2    0  503  0.83654959612E+02  0.13956695720E+03  0.26793045443E+02  0.23730948332E+03  0.17064828092E+03 0.  0.
        -24    2    3    3    0    0 -0.11666926648E+02  0.97065244428E+02  0.37433503935E+02  0.13229535596E+03  0.80888906154E+02 0.  0.
          6    2    1    2  501    0 -0.83654959612E+02 -0.13956695720E+03 -0.11381117911E+03  0.26312454777E+03  0.17263966907E+03 0.  0.
         24    2    5    5    0    0 -0.12650149102E+03 -0.10374702926E+03 -0.84096758276E+02  0.19969009895E+03  0.77703266032E+02 0.  0.
          5    1    5    5  501    0  0.42846531413E+02 -0.35819927941E+02 -0.29714420833E+02  0.63434448821E+02  0.47000000000E+01 0. -1.
        -11    1    6    6    0    0 -0.59741240275E+01 -0.46065159312E+02 -0.31332047224E+02  0.56030226160E+02  0.00000000000E+00 0.  1.
         12    1    6    6    0    0 -0.12052736700E+03 -0.57681869951E+02 -0.52764711052E+02  0.14365987279E+03  0.00000000000E+00 0. -1.
         -5    1    3    3    0  503  0.95321886260E+02  0.42501712776E+02 -0.10640458491E+02  0.10501412736E+03  0.47000000000E+01 0.  1.
         13    1    4    4    0    0  0.22755942996E+01  0.61405939101E+01  0.39743027051E+02  0.40278945147E+02  0.00000000000E+00 0. -1.
        -14    1    4    4    0    0 -0.13942520948E+02  0.90924650517E+02 -0.23095231157E+01  0.92016410814E+02  0.00000000000E+00 0.  1.
</event>
<event>
12    1  0.1039610E+000  0.2194092E+03  0.7818608E-02  0.1134493E+00
         21   -1    0    0  501  502  0.00000000000E+00  0.00000000000E+00  0.42698612221E+02  0.42698612221E+02  0.00000000000E+00 0.  1.
         21   -1    0    0  502  503 -0.00000000000E+00 -0.00000000000E+00 -0.11876622473E+04  0.11876622473E+04  0.00000000000E+00 0.  1.
         -6    2    1    2    0  503  0.18188193165E+02 -0.13353994240E+03 -0.42764632113E+03  0.48023784083E+03  0.17199791045E+03 0.  0.
        -24    2    3    3    0    0 -0.11919996525E+02 -0.14630645392E+03 -0.40927034502E+03  0.44243237296E+03  0.81832295294E+02 0.  0.
          6    2    1    2  501    0 -0.18188193165E+02  0.13353994240E+03 -0.71731731393E+03  0.75012301867E+03  0.17313777085E+03 0.  0.
         24    2    5    5    0    0 -0.24552003476E+02  0.40099854798E+02 -0.14911462115E+03  0.17423419422E+03  0.76886832189E+02 0.  0.
          5    1    5    5  501    0  0.63638103112E+01  0.93440087601E+02 -0.56820269278E+03  0.57588882445E+03  0.47000000000E+01 0. -1.
        -11    1    6    6    0    0 -0.13997851195E+02  0.64581134546E+00  0.49398299745E+01  0.14857955127E+02  0.00000000000E+00 0.  1.
         12    1    6    6    0    0 -0.10554152281E+02  0.39454043453E+02 -0.15405445113E+03  0.15937623909E+03  0.00000000000E+00 0. -1.
         -5    1    3    3    0  503  0.30108189690E+02  0.12766511520E+02 -0.18375976109E+02  0.37805467868E+02  0.47000000000E+01 0.  1.
         13    1    4    4    0    0 -0.42261234981E+02 -0.45597369036E+02 -0.17211542112E+03  0.18299959080E+03  0.00000000000E+00 0. -1.
        -14    1    4    4    0    0  0.30341238456E+02 -0.10070908488E+03 -0.23715492390E+03  0.25943278216E+03  0.00000000000E+00 0.  1.
</event>
<event>
12    1  0.1039610E+000  0.2885293E+03  0.7818608E-02  0.1091160E+00
         21   -1    0    0  503  502  0.00000000000E+00  0.00000000000E+00  0.56121177339E+03  0.56121177339E+03  0.00000000000E+00 0.  1.
         21   -1    0    0  501  503 -0.00000000000E+00 -0.00000000000E+00 -0.21221524768E+03  0.21221524768E+03  0.00000000000E+00 0.  1.
          6    2    1    2  501    0 -0.21239406529E+03 -0.91639039857E+02  0.38686019165E+03  0.48242389768E+03  0.17193910718E+03 0.  0.
         24    2    3    3    0    0 -0.28965801481E+02 -0.27664595107E+02  0.14056522005E+03  0.16870115292E+03  0.84244586959E+02 0.  0.
         -6    2    1    2    0  502  0.21239406529E+03  0.91639039857E+02 -0.37863665936E+02  0.29100312338E+03  0.17245349525E+03 0.  0.
        -24    2    5    5    0    0  0.21347021436E+03  0.10808267835E+03 -0.14367129821E+01  0.25074689101E+03  0.74970270285E+02 0.  0.
          5    1    3    3  501    0 -0.18342826381E+03 -0.63974444751E+02  0.24629497160E+03  0.31372274476E+03  0.47000000000E+01 0. -1.
        -11    1    4    4    0    0  0.10508257227E+02 -0.39297975997E+02  0.11046029504E+03  0.11771249367E+03  0.00000000000E+00 0.  1.
         12    1    4    4    0    0 -0.39474058709E+02  0.11633380890E+02  0.30104925012E+02  0.50988659247E+02  0.00000000000E+00 0. -1.
         -5    1    5    5    0  502 -0.10761490727E+01 -0.16443638491E+02 -0.36426952954E+02  0.40256232377E+02  0.47000000000E+01 0.  1.
         11    1    6    6    0    0  0.38755906800E+02  0.31985165920E+02  0.28612212545E+02  0.57824993364E+02  0.00000000000E+00 0. -1.
        -12    1    6    6    0    0  0.17471430756E+03  0.76097512429E+02 -0.30048925527E+02  0.19292189764E+03  0.00000000000E+00 0.  1.
</event>
<event>
12    1  0.1039610E+000  0.2331706E+03  0.7818608E-02  0.1124659E+00
         21   -1    0    0  503  502  0.00000000000E+00  0.00000000000E+00  0.34779578051E+03  0.34779578051E+03  0.00000000000E+00 0.  1.
         21   -1    0    0  501  503 -0.00000000000E+00 -0.00000000000E+00 -0.16989321913E+03  0.16989321913E+03  0.00000000000E+00 0.  1.
          6    2    1    2  501    0  0.81833883120E+02  0.13374884502E+03  0.13663258768E+02  0.23357055086E+03  0.17257745976E+03 0.  0.
         24    2    3    3    0    0  0.16474130741E+02  0.96330050257E+02 -0.50756122125E+02  0.13435356609E+03  0.76966364217E+02 0.  0.
         -6    2    1    2    0  502 -0.81833883120E+02 -0.13374884502E+03  0.16423930261E+03  0.28411844878E+03  0.17077238197E+03 0.  0.
        -24    2    5    5    0    0  0.94705417583E-01 -0.24962930142E+02  0.17655000510E+02  0.83979205956E+02  0.78215414974E+02 0.  0.
          5    1    3    3  501    0  0.65359752379E+02  0.37418794764E+02  0.64419380893E+02  0.99216984772E+02  0.47000000000E+01 0. -1.
        -13    1    4    4    0    0  0.32030880536E+02  0.63403884020E+02  0.10328052786E+01  0.71042920151E+02  0.00000000000E+00 0.  1.
         14    1    4    4    0    0 -0.15556749795E+02  0.32926166237E+02 -0.51788927403E+02  0.63310645936E+02  0.00000000000E+00 0. -1.
         -5    1    5    5    0  502 -0.81928588537E+02 -0.10878591488E+03  0.14658430210E+03  0.20013924283E+03  0.47000000000E+01 0.  1.
         13    1    6    6    0    0 -0.32513144494E+02 -0.77129920161E+01 -0.13159115668E+02  0.35913188885E+02  0.00000000000E+00 0. -1.
        -14    1    6    6    0    0  0.32607849912E+02 -0.17249938125E+02  0.30814116178E+02  0.48066017070E+02  0.00000000000E+00 0.  1.
</event>
<event>
12    1  0.1039610E+000  0.5678297E+03  0.7818608E-02  0.9974684E-01
         21   -1    0    0  501  502  0.00000000000E+00  0.00000000000E+00  0.15202326654E+04  0.15202326654E+04  0.00000000000E+00 0.  1.
         21   -1    0    0  502  503 -0.00000000000E+00 -0.00000000000E+00 -0.44242121421E+03  0.44242121421E+03  0.00000000000E+00 0.  1.
         -6    2    1    2    0  503  0.38323662752E+03 -0.38173895754E+03 -0.16942865168E+03  0.59223846774E+03  0.17159659169E+03 0.  0.
        -24    2    3    3    0    0  0.91546490196E+02 -0.11914505562E+03 -0.86435758001E+02  0.19105446514E+03  0.80339058016E+02 0.  0.
          6    2    1    2  501    0 -0.38323662752E+03  0.38173895754E+03  0.12472401029E+04  0.13704154119E+04  0.17272979634E+03 0.  0.
         24    2    5    5    0    0 -0.15400933262E+03  0.24223415129E+03  0.60173583696E+03  0.67134131638E+03  0.78847238460E+02 0.  0.
          5    1    5    5  501    0 -0.22922729491E+03  0.13950480625E+03  0.64550426593E+03  0.69907409553E+03  0.47000000000E+01 0. -1.
        -13    1    6    6    0    0 -0.43635896728E+02  0.56220815547E+02  0.83095872291E+02  0.10940656094E+03  0.00000000000E+00 0.  1.
         14    1    6    6    0    0 -0.11037343589E+03  0.18601333574E+03  0.51863996467E+03  0.56193475545E+03  0.00000000000E+00 0. -1.
         -5    1    3    3    0  503  0.29169013733E+03 -0.26259390192E+03 -0.82992893676E+02  0.40118400260E+03  0.47000000000E+01 0.  1.
         13    1    4    4    0    0  0.57046225745E+02 -0.18215193855E+02 -0.12236222345E+02  0.61121111706E+02  0.00000000000E+00 0. -1.
        -14    1    4    4    0    0  0.34500264451E+02 -0.10092986176E+03 -0.74199535656E+02  0.12993335343E+03  0.00000000000E+00 0.  1.
</event>
<event>
12    1  0.1039610E+000  0.1898569E+03  0.7818608E-02  0.1159295E+00
         21   -1    0    0  501  502  0.00000000000E+00  0.00000000000E+00  0.32186957456E+03  0.32186957456E+03  0.00000000000E+00 0. -1.
         21   -1    0    0  502  503 -0.00000000000E+00 -0.00000000000E+00 -0.13828208065E+03  0.13828208065E+03  0.00000000000E+00 0. -1.
         -6    2    1    2    0  503  0.47012737097E+02  0.55348219933E+02 -0.12541302246E+02  0.18718251794E+03  0.17206506868E+03 0.  0.
        -24    2    3    3    0    0  0.14982186525E+02 -0.27132507113E+02 -0.40912337039E+02  0.94144718525E+02  0.78922556021E+02 0.  0.
          6    2    1    2  501    0 -0.47012737097E+02 -0.55348219933E+02  0.19612879615E+03  0.27296913728E+03  0.17541956084E+03 0.  0.
         24    2    5    5    0    0 -0.14373774540E+02 -0.10231140808E+03  0.12330249181E+03  0.18025126671E+03  0.81319032512E+02 0.  0.
          5    1    5    5  501    0 -0.32638962557E+02  0.46963188144E+02  0.72826304344E+02  0.92717870564E+02  0.47000000000E+01 0. -1.
        -11    1    6    6    0    0 -0.32567632952E+02 -0.67837748926E+02  0.11932178070E+03  0.14106841689E+03  0.00000000000E+00 0.  1.
         12    1    6    6    0    0  0.18193858412E+02 -0.34473659152E+02  0.39807111099E+01  0.39182849822E+02  0.00000000000E+00 0. -1.
         -5    1    3    3    0  503  0.32030550572E+02  0.82480727046E+02  0.28371034793E+02  0.93037799411E+02  0.47000000000E+01 0.  1.
         11    1    4    4    0    0  0.31909919550E+02 -0.47495602349E+02 -0.34790401827E+02  0.66966015765E+02  0.00000000000E+00 0. -1.
        -12    1    4    4    0    0 -0.16927733026E+02  0.20363095236E+02 -0.61219352119E+01  0.27178702760E+02  0.00000000000E+00 0.  1.
</event>
<event>
12    1  0.1039610E+000  0.1859211E+03  0.7818608E-02  0.1162954E+00
         21   -1    0    0  503  502  0.00000000000E+00  0.00000000000E+00  0.45031374186E+03  0.45031374186E+03  0.00000000000E+00 0. -1.
         21   -1    0    0  501  503 -0.00000000000E+00 -0.00000000000E+00 -0.79416619047E+02  0.79416619047E+02  0.00000000000E+00 0. -1.
          6    2    1    2  501    0 -0.70920349890E+02  0.20246974176E+01  0.24327488894E+03  0.30422184573E+03  0.16832844205E+03 0.  0.
         24    2    3    3    0    0 -0.76124234478E+02 -0.50085793404E+02  0.20851952384E+03  0.24119320881E+03  0.79939266823E+02 0.  0.
         -6    2    1    2    0  502  0.70920349890E+02 -0.20246974176E+01  0.12762223387E+03  0.22550851518E+03  0.17185127410E+03 0.  0.
        -24    2    5    5    0    0 -0.92339532165E+01  0.46969702998E+02  0.62336823771E+02  0.11101205955E+03  0.78398844864E+02 0.  0.
          5    1    3    3  501    0  0.52038845888E+01  0.52110490821E+02  0.34755365101E+02  0.63028636918E+02  0.47000000000E+01 0. -1.
        -11    1    4    4    0    0 -0.45614376459E+02  0.71039613415E+01  0.41647989379E+02  0.62174694417E+02  0.00000000000E+00 0.  1.
         12    1    4    4    0    0 -0.30509858020E+02 -0.57189754745E+02  0.16687153446E+03  0.17901851440E+03  0.00000000000E+00 0. -1.
         -5    1    5    5    0  502  0.80154303106E+02 -0.48994400416E+02  0.65285410103E+02  0.11449645563E+03  0.47000000000E+01 0.  1.
         11    1    6    6    0    0  0.86586647068E+01 -0.20065245369E+02  0.96327173904E+01  0.23882541543E+02  0.00000000000E+00 0. -1.
        -12    1    6    6    0    0 -0.17892617923E+02  0.67034948367E+02  0.52704106381E+02  0.87129518007E+02  0.00000000000E+00 0.  1.
</event>
<event>
12    1  0.1039610E+000  0.2295134E+03  0.7818608E-02  0.1127674E+00
         21   -1    0    0  503  502  0.00000000000E+00  0.00000000000E+00  0.47237691530E+03  0.47237691530E+03  0.00000000000E+00 0.  1.
         21   -1    0    0  501  503 -0.00000000000E+00 -0.00000000000E+00 -0.15514686947E+03  0.15514686947E+03  0.00000000000E+00 0.  1.
          6    2    1    2  501    0 -0.15477356047E+03  0.27084318275E+02  0.32759175906E+03  0.39777659635E+03  0.16193036986E+03 0.  0.
         24    2    3    3    0    0 -0.11299792635E+03  0.63137273914E+02  0.29931713767E+03  0.33559489943E+03  0.79235982404E+02 0.  0.
         -6    2    1    2    0  502  0.15477356047E+03 -0.27084318275E+02 -0.10361713233E+02  0.22974718841E+03  0.16729611521E+03 0.  0.
        -24    2    5    5    0    0  0.93206520593E+02 -0.80682984706E+02 -0.12510407465E+02  0.14795461950E+03  0.80850848077E+02 0.  0.
          5    1    3    3  501    0 -0.41775634124E+02 -0.36052955639E+02  0.28274621393E+02  0.62181696919E+02  0.47000000000E+01 0. -1.
        -11    1    4    4    0    0 -0.10731557909E+03  0.73343760054E+02  0.22084919082E+03  0.25626218164E+03  0.00000000000E+00 0.  1.
         12    1    4    4    0    0 -0.56823472605E+01 -0.10206486139E+02  0.78467946849E+02  0.79332717793E+02  0.00000000000E+00 0. -1.
         -5    1    5    5    0  502  0.61567039879E+02  0.53598666430E+02  0.21486942323E+01  0.81792568914E+02  0.47000000000E+01 0.  1.
         11    1    6    6    0    0  0.62058705170E+02 -0.78709696753E+02 -0.38468026358E+02  0.10736055282E+03  0.00000000000E+00 0. -1.
        -12    1    6    6    0    0  0.31147815423E+02 -0.19732879526E+01  0.25957618893E+02  0.40594066679E+02  0.00000000000E+00 0.  1.
</event>
<event>
12    1  0.1039610E+000  0.1934214E+03  0.7818608E-02  0.1155530E+00
         21   -1    0    0  501  502  0.00000000000E+00  0.00000000000E+00  0.47784352111E+03  0.47784352111E+03  0.00000000000E+00 0. -1.
         21   -1    0    0  502  503 -0.00000000000E+00 -0.00000000000E+00 -0.87737672953E+02  0.87737672953E+02  0.00000000000E+00 0. -1.
         -6    2    1    2    0  503  0.83346007180E+02  0.30791295783E+02  0.28913950953E+03  0.34786993888E+03  0.17180563901E+03 0.  0.
        -24    2    3    3    0    0  0.12019697435E+02 -0.41997154549E+02  0.11698496457E+03  0.14775777455E+03  0.78985086487E+02 0.  0.
          6    2    1    2  501    0 -0.83346007180E+02 -0.30791295783E+02  0.10096633862E+03  0.21771125518E+03  0.17119967374E+03 0.  0.
         24    2    5    5    0    0 -0.66100319114E+02  0.89959539313E+01 -0.13126365756E+01  0.10651989866E+03  0.83033646324E+02 0.  0.
          5    1    5    5  501    0 -0.17245688066E+02 -0.39787249714E+02  0.10227897520E+03  0.11119135652E+03  0.47000000000E+01 0. -1.
        -11    1    6    6    0    0  0.48068343789E+01  0.30871584491E+02 -0.72634961844E+01  0.32076763592E+02  0.00000000000E+00 0.  1.
         12    1    6    6    0    0 -0.70907153493E+02 -0.21875630559E+02  0.59508596088E+01  0.74443135069E+02  0.00000000000E+00 0. -1.
         -5    1    3    3    0  503  0.71326309745E+02  0.72788450332E+02  0.17215454496E+03  0.20011216433E+03  0.47000000000E+01 0.  1.
         11    1    4    4    0    0  0.98980898552E+00 -0.20286698389E+02  0.12133279357E+03  0.12302104148E+03  0.00000000000E+00 0. -1.
        -12    1    4    4    0    0  0.11029888449E+02 -0.21710456160E+02 -0.43478289926E+01  0.24736733067E+02  0.00000000000E+00 0.  1.
</event>
<event>
12    1  0.1039610E+000  0.2300280E+03  0.7818608E-02  0.1126786E+00
         21   -1    0    0  503  502  0.00000000000E+00  0.00000000000E+00  0.25655461658E+03  0.25655461658E+03  0.00000000000E+00 0. -1.
         21   -1    0    0  501  503 -0.00000000000E+00 -0.00000000000E+00 -0.27104937000E+03  0.27104937000E+03  0.00000000000E+00 0. -1.
          6    2    1    2  501    0  0.11474020304E+03  0.99008886293E+02  0.12259133530E+03  0.25982518160E+03  0.17179178020E+03 0.  0.
         24    2    3    3    0    0  0.69218951423E+02  0.10924042552E+03  0.14227471915E+03  0.20896857590E+03  0.81859857086E+02 0.  0.
         -6    2    1    2    0  502 -0.11474020304E+03 -0.99008886293E+02 -0.13708608872E+03  0.26777880498E+03  0.17304571338E+03 0.  0.
        -24    2    5    5    0    0 -0.15027377279E+03 -0.80040843555E+02 -0.12526488066E+03  0.22553839561E+03  0.78660880627E+02 0.  0.
          5    1    3    3  501    0  0.45521251613E+02 -0.10231539222E+02 -0.19683383849E+02  0.50856605697E+02  0.47000000000E+01 0. -1.
        -11    1    4    4    0    0  0.39552918965E+02 -0.21753567668E+00  0.40046483379E+02  0.56286779544E+02  0.00000000000E+00 0.  1.
         12    1    4    4    0    0  0.29666032459E+02  0.10945796119E+03  0.10222823577E+03  0.15268179636E+03  0.00000000000E+00 0. -1.
         -5    1    5    5    0  502  0.35533569750E+02 -0.18968042738E+02 -0.11821208060E+02  0.42240409379E+02  0.47000000000E+01 0.  1.
         11    1    6    6    0    0  0.14829067535E+01 -0.11386791321E+02  0.64666848467E+01  0.13178620638E+02  0.00000000000E+00 0. -1.
        -12    1    6    6    0    0 -0.15175667954E+03 -0.68654052234E+02 -0.13173156551E+03  0.21235977497E+03  0.00000000000E+00 0.  1.
</event>
<event>
12    1  0.1039610E+000  0.2088169E+03  0.7818608E-02  0.1142665E+00
         21   -1    0    0  503  502  0.00000000000E+00  0.00000000000E+00  0.25389004500E+02  0.25389004500E+02  0.00000000000E+00 0.  1.
         21   -1    0    0  501  503 -0.00000000000E+00 -0.00000000000E+00 -0.17567664452E+04  0.17567664452E+04  0.00000000000E+00 0.  1.
          6    2    1    2  501    0  0.29472853938E+02 -0.11587607699E+03 -0.72016524277E+03  0.74960782809E+03  0.17022927102E+03 0.  0.
         24    2    3    3    0    0  0.24554663699E+02 -0.93414010541E+02 -0.71456068635E+03  0.72547830102E+03  0.79954248778E+02 0.  0.
         -6    2    1    2    0  502 -0.29472853938E+02  0.11587607699E+03 -0.10112121979E+04  0.10325476216E+04  0.17119745122E+03 0.  0.
        -24    2    5    5    0    0 -0.49003822054E+01  0.69731315024E+02 -0.92882404663E+03  0.93485912228E+03  0.79755870532E+02 0.  0.
          5    1    3    3  501    0  0.49181902388E+01 -0.22462066444E+02 -0.56045564175E+01  0.24129527074E+02  0.47000000000E+01 0. -1.
        -11    1    4    4    0    0  0.19416067282E+02 -0.18886729324E+02 -0.51191220283E+02  0.57915742655E+02  0.00000000000E+00 0.  1.
         12    1    4    4    0    0  0.51385964165E+01 -0.74527281217E+02 -0.66336946607E+03  0.66756255836E+03  0.00000000000E+00 0. -1.
         -5    1    5    5    0  502 -0.24572471732E+02  0.46144761962E+02 -0.82388151269E+02  0.97688499288E+02  0.47000000000E+01 0.  1.
         11    1    6    6    0    0  0.27613128210E+02  0.17349284328E+02 -0.55739072284E+03  0.55834389083E+03  0.00000000000E+00 0. -1.
        -12    1    6    6    0    0 -0.32513510415E+02  0.52382030695E+02 -0.37143332378E+03  0.37651523145E+03  0.00000000000E+00 0.  1.
</event>
<event>
12    1  0.1039610E+000  0.2086786E+03  0.7818608E-02  0.1142964E+00
         21   -1    0    0  501  502  0.00000000000E+00  0.00000000000E+00  0.13599138614E+03  0.13599138614E+03  0.00000000000E+00 0. -1.
         21   -1    0    0  502  503 -0.00000000000E+00 -0.00000000000E+00 -0.38628204854E+03  0.38628204854E+03  0.00000000000E+00 0. -1.
         -6    2    1    2    0  503  0.11246168392E+03 -0.32503710654E+02 -0.14576057340E+02  0.20745902056E+03  0.17065363227E+03 0.  0.
        -24    2    3    3    0    0  0.64863834502E+02 -0.47396054070E+02  0.50725107758E+02  0.12515671606E+03  0.81470633058E+02 0.  0.
          6    2    1    2  501    0 -0.11246168392E+03  0.32503710654E+02 -0.23571460506E+03  0.31481441412E+03  0.17275016278E+03 0.  0.
         24    2    5    5    0    0 -0.14182078967E+03  0.52768506694E+02 -0.20087661677E+03  0.26473053970E+03  0.82663122383E+02 0.  0.
          5    1    5    5  501    0  0.29359105746E+02 -0.20264796040E+02 -0.34837988291E+02  0.50083874420E+02  0.47000000000E+01 0. -1.
        -11    1    6    6    0    0 -0.12011654581E+03  0.19585973659E+02 -0.18621110622E+03  0.22245487412E+03  0.00000000000E+00 0.  1.
         12    1    6    6    0    0 -0.21704243858E+02  0.33182533035E+02 -0.14665510552E+02  0.42275665575E+02  0.00000000000E+00 0. -1.
         -5    1    3    3    0  503  0.47597849422E+02  0.14892343415E+02 -0.65301165098E+02  0.82302304495E+02  0.47000000000E+01 0.  1.
         13    1    4    4    0    0 -0.11724474571E+02  0.59210115913E+01 -0.75367259966E+01  0.15143444819E+02  0.00000000000E+00 0. -1.
        -14    1    4    4    0    0  0.76588309073E+02 -0.53317065661E+02  0.58261833755E+02  0.11001327124E+03  0.00000000000E+00 0.  1.
</event>
<event>
12    1  0.1039610E+000  0.2241893E+03  0.7818608E-02  0.1135425E+00
         21   -1    0    0  503  502  0.00000000000E+00  0.00000000000E+00  0.22070808459E+02  0.22070808459E+02  0.00000000000E+00 0. -1.
         21   -1    0    0  501  503 -0.00000000000E+00 -0.00000000000E+00 -0.20523691441E+04  0.20523691441E+04  0.00000000000E+00 0. -1.
          6    2    1    2  501    0 -0.61831868385E+02 -0.94538945274E+02 -0.10372325847E+04  0.10563827711E+04  0.16532492902E+03 0.  0.
         24    2    3    3    0    0 -0.34754505038E+02 -0.32722451179E+02 -0.20735848885E+03  0.22375586333E+03  0.69213503347E+02 0.  0.
         -6    2    1    2    0  502  0.61831868385E+02  0.94538945274E+02 -0.99306575097E+03  0.10180571815E+04  0.19364928851E+03 0.  0.
        -24    2    5    5    0    0  0.36054104108E+02  0.12079422840E+02 -0.81647451239E+03  0.82140870957E+03  0.81460591054E+02 0.  0.
          5    1    3    3  501    0 -0.27077363348E+02 -0.61816494095E+02 -0.82987409588E+03  0.83262690778E+03  0.47000000000E+01 0. -1.
        -13    1    4    4    0    0 -0.39555854203E+02 -0.14917863851E+02 -0.19912054115E+03  0.20355883221E+03  0.00000000000E+00 0.  1.
         14    1    4    4    0    0  0.48013491650E+01 -0.17804587328E+02 -0.82379476988E+01  0.20197031119E+02  0.00000000000E+00 0. -1.
         -5    1    5    5    0  502  0.25777764277E+02  0.82459522433E+02 -0.17659123858E+03  0.19664847193E+03  0.47000000000E+01 0.  1.
         13    1    6    6    0    0 -0.25142723053E+02 -0.53130908256E+01 -0.19492083877E+03  0.19660752489E+03  0.00000000000E+00 0. -1.
        -14    1    6    6    0    0  0.61196827161E+02  0.17392513666E+02 -0.62155367362E+03  0.62480118468E+03  0.00000000000E+00 0.  1.
</event>
<event>
12    1  0.1039610E+000  0.2880077E+03  0.7818608E-02  0.1092745E+00
         21   -1    0    0  503  502  0.00000000000E+00  0.00000000000E+00  0.10394061738E+03  0.10394061738E+03  0.00000000000E+00 0.  1.
         21   -1    0    0  501  503 -0.00000000000E+00 -0.00000000000E+00 -0.84821543060E+03  0.84821543060E+03  0.00000000000E+00 0.  1.
          6    2    1    2  501    0  0.18946831918E+03  0.10803798383E+03 -0.23396495282E+03  0.37106342061E+03  0.18809043847E+03 0.  0.
         24    2    3    3    0    0  0.17214325384E+03  0.73050860246E+02 -0.91235373916E+02  0.22301586271E+03  0.80264896086E+02 0.  0.
         -6    2    1    2    0  502 -0.18946831918E+03 -0.10803798383E+03 -0.51030986041E+03  0.58109262737E+03  0.17228475856E+03 0.  0.
        -24    2    5    5    0    0 -0.18729015628E+03 -0.65353947311E+02 -0.48752901402E+03  0.53243331861E+03  0.80324082213E+02 0.  0.
          5    1    3    3  501    0  0.17325065341E+02  0.34987123582E+02 -0.14272957890E+03  0.14804755789E+03  0.47000000000E+01 0. -1.
        -13    1    4    4    0    0  0.97650455774E+02  0.16927260734E+01 -0.62429432381E+02  0.11591337654E+03  0.00000000000E+00 0.  1.
         14    1    4    4    0    0  0.74492798065E+02  0.71358134172E+02 -0.28805941535E+02  0.10710248617E+03  0.00000000000E+00 0. -1.
         -5    1    5    5    0  502 -0.21781629047E+01 -0.42684036517E+02 -0.22780846384E+02  0.48659308760E+02  0.47000000000E+01 0.  1.
         13    1    6    6    0    0 -0.48661598326E+02 -0.35045051758E+02 -0.23738618584E+03  0.24484343575E+03  0.00000000000E+00 0. -1.
        -14    1    6    6    0    0 -0.13862855795E+03 -0.30308895552E+02 -0.25014282819E+03  0.28758988286E+03  0.00000000000E+00 0.  1.
</event>
<event>
12    1  0.1039610E+000  0.1906515E+03  0.7818608E-02  0.1159893E+00
         21   -1    0    0  501  502  0.00000000000E+00  0.00000000000E+00  0.51652330753E+02  0.51652330753E+02  0.00000000000E+00 0. -1.
         21   -1    0    0  502  503 -0.00000000000E+00 -0.00000000000E+00 -0.68210377547E+03  0.68210377547E+03  0.00000000000E+00 0. -1.
         -6    2    1    2    0  503 -0.35118987194E+02  0.47788722141E+02 -0.26266193968E+03  0.31948913067E+03  0.17194448184E+03 0.  0.
        -24    2    3    3    0    0  0.17246864319E+01  0.16791347367E+02 -0.34979491236E+02  0.86723839320E+02  0.77540541716E+02 0.  0.
          6    2    1    2  501    0  0.35118987194E+02 -0.47788722141E+02 -0.36778950503E+03  0.41426697555E+03  0.18119299598E+03 0.  0.
         24    2    5    5    0    0  0.78463216269E+02  0.61810769862E+01 -0.28479830457E+03  0.30609539533E+03  0.79935190858E+02 0.  0.
          5    1    5    5  501    0 -0.43344229076E+02 -0.53969799127E+02 -0.82991200468E+02  0.10817158022E+03  0.47000000000E+01 0. -1.
        -11    1    6    6    0    0  0.84772927611E+02 -0.13846617174E+02 -0.25876536981E+03  0.27264939881E+03  0.00000000000E+00 0.  1.
         12    1    6    6    0    0 -0.63097113420E+01  0.20027694160E+02 -0.26032934759E+02  0.33445996513E+02  0.00000000000E+00 0. -1.
         -5    1    3    3    0  503 -0.36843673626E+02  0.30997374773E+02 -0.22768244844E+03  0.23276529135E+03  0.47000000000E+01 0.  1.
         11    1    4    4    0    0 -0.61053117927E+01  0.45073366941E+02 -0.34976353917E+02  0.57377945004E+02  0.00000000000E+00 0. -1.
        -12    1    4    4    0    0  0.78299982246E+01 -0.28282019574E+02 -0.31373180479E-02  0.29345894316E+02  0.00000000000E+00 0.  1.
</event>
<event>
12    1  0.1039610E+000  0.4426434E+03  0.7818608E-02  0.1030248E+00
         21   -1    0    0  503  502  0.00000000000E+00  0.00000000000E+00  0.50322644563E+03  0.50322644563E+03  0.00000000000E+00 0.  1.
         21   -1    0    0  501  503 -0.00000000000E+00 -0.00000000000E+00 -0.38844022303E+03  0.38844022303E+03  0.00000000000E+00 0.  1.
          6    2    1    2  501    0 -0.88100262647E+02 -0.39391873223E+03  0.94339081323E+02  0.45258486983E+03  0.18165786043E+03 0.  0.
         24    2    3    3    0    0 -0.13304815177E+03 -0.28269750288E+03  0.74536454815E+02  0.33091026849E+03  0.79537625513E+02 0.  0.
         -6    2    1    2    0  502  0.88100262647E+02  0.39391873223E+03  0.20447141284E+02  0.43908179883E+03  0.17158413855E+03 0.  0.
        -24    2    5    5    0    0  0.12383775826E+03  0.35692112664E+03  0.93350485963E+01  0.38624658316E+03  0.79817284196E+02 0.  0.
          5    1    3    3  501    0  0.44947889122E+02 -0.11122122935E+03  0.19802626508E+02  0.12167460134E+03  0.47000000000E+01 0. -1.
        -13    1    4    4    0    0 -0.15813446660E+02 -0.32331013095E+02  0.37514336057E+02  0.51987353393E+02  0.00000000000E+00 0.  1.
         14    1    4    4    0    0 -0.11723470511E+03 -0.25036648978E+03  0.37022118758E+02  0.27892291510E+03  0.00000000000E+00 0. -1.
         -5    1    5    5    0  502 -0.35737495610E+02  0.36997605583E+02  0.11112092688E+02  0.52835215673E+02  0.47000000000E+01 0.  1.
         11    1    6    6    0    0  0.29122000017E+02  0.18737579667E+03  0.25660722520E+02  0.19135373721E+03  0.00000000000E+00 0. -1.
        -12    1    6    6    0    0  0.94715758240E+02  0.16954532997E+03 -0.16325673924E+02  0.19489284595E+03  0.00000000000E+00 0.  1.
</event>
<event>
12    1  0.1039610E+000  0.1775805E+03  0.7818608E-02  0.1170415E+00
         21   -1    0    0  501  502  0.00000000000E+00  0.00000000000E+00  0.89441507271E+02  0.89441507271E+02  0.00000000000E+00 0.  1.
         21   -1    0    0  502  503 -0.00000000000E+00 -0.00000000000E+00 -0.35221671878E+03  0.35221671878E+03  0.00000000000E+00 0.  1.
         -6    2    1    2    0  503  0.22298498439E+02  0.33925127241E+02 -0.14612236191E+03  0.22919006270E+03  0.17183772258E+03 0.  0.
        -24    2    3    3    0    0  0.37921350769E+02 -0.33416732474E+02 -0.12448633690E+03  0.15660075796E+03  0.80450248397E+02 0.  0.
          6    2    1    2  501    0 -0.22298498439E+02 -0.33925127241E+02 -0.11665284961E+03  0.21246816335E+03  0.17287769036E+03 0.  0.
         24    2    5    5    0    0  0.30905987506E+02 -0.23796068106E+02 -0.68406925698E+01  0.89936065530E+02  0.80748175751E+02 0.  0.
          5    1    5    5  501    0 -0.53204485945E+02 -0.10129059135E+02 -0.10981215704E+03  0.12253209782E+03  0.47000000000E+01 0. -1.
        -13    1    6    6    0    0 -0.19153695979E+02 -0.15891635225E+02  0.20597035322E+02  0.32305510425E+02  0.00000000000E+00 0.  1.
         14    1    6    6    0    0  0.50059683485E+02 -0.79044328814E+01 -0.27437727892E+02  0.57630555105E+02  0.00000000000E+00 0. -1.
         -5    1    3    3    0  503 -0.15622852330E+02  0.67341859715E+02 -0.21636025011E+02  0.72589304743E+02  0.47000000000E+01 0.  1.
         13    1    4    4    0    0  0.69251423602E+01  0.11456171600E+02  0.63769440477E+01  0.14827908815E+02  0.00000000000E+00 0. -1.
        -14    1    4    4    0    0  0.30996208408E+02 -0.44872904074E+02 -0.13086328094E+03  0.14177284915E+03  0.00000000000E+00 0.  1.
</event>
<event>
12    1  0.1039610E+000  0.2024055E+03  0.7818608E-02  0.1147877E+00
         21   -1    0    0  501  502  0.00000000000E+00  0.00000000000E+00  0.51216742972E+03  0.51216742972E+03  0.00000000000E+00 0. -1.
         21   -1    0    0  502  503 -0.00000000000E+00 -0.00000000000E+00 -0.83041052979E+02  0.83041052979E+02  0.00000000000E+00 0. -1.
         -6    2    1    2    0  503  0.53776059641E+02 -0.89620976310E+02  0.27387151704E+03  0.34011625155E+03  0.17248093442E+03 0.  0.
        -24    2    3    3    0    0 -0.24509637106E+02 -0.73973030952E+02  0.20843730280E+03  0.23678554507E+03  0.80923133496E+02 0.  0.
          6    2    1    2  501    0 -0.53776059641E+02  0.89620976310E+02  0.15525485970E+03  0.25509223115E+03  0.17333260209E+03 0.  0.
         24    2    5    5    0    0 -0.34980253957E+02  0.40826205415E+01  0.14249800096E+03  0.16646424424E+03  0.78513555357E+02 0.  0.
          5    1    5    5  501    0 -0.18795805685E+02  0.85538355768E+02  0.12756858742E+02  0.88627986911E+02  0.47000000000E+01 0. -1.
        -13    1    6    6    0    0 -0.60075422883E+02  0.76602278986E+01  0.10468225898E+03  0.12093845902E+03  0.00000000000E+00 0.  1.
         14    1    6    6    0    0  0.25095168926E+02 -0.35776073571E+01  0.37815741978E+02  0.45525785213E+02  0.00000000000E+00 0. -1.
         -5    1    3    3    0  503  0.78285696748E+02 -0.15647945358E+02  0.65434214239E+02  0.10333070648E+03  0.47000000000E+01 0.  1.
         11    1    4    4    0    0  0.34027521858E+01  0.18877035265E+01  0.10704350929E+03  0.10711421488E+03  0.00000000000E+00 0. -1.
        -12    1    4    4    0    0 -0.27912389292E+02 -0.75860734478E+02  0.10139379351E+03  0.12967133019E+03  0.00000000000E+00 0.  1.
</event>
<event>
12    1  0.1039610E+000  0.4688304E+03  0.7818608E-02  0.1022292E+00
         21   -1    0    0  503  502  0.00000000000E+00  0.00000000000E+00  0.25456488164E+04  0.25456488164E+04  0.00000000000E+00 0. -1.
         21   -1    0    0  501  503 -0.00000000000E+00 -0.00000000000E+00 -0.12938712214E+03  0.12938712214E+03  0.00000000000E+00 0. -1.
          6    2    1    2  501    0 -0.74807002022E+02  0.42938888419E+03  0.19800386871E+04  0.20346513444E+04  0.17111980949E+03 0.  0.
         24    2    3    3    0    0 -0.73374967234E+02  0.42765985017E+03  0.17552173060E+04  0.18097696339E+04  0.78749624134E+02 0.  0.
         -6    2    1    2    0  502  0.74807002022E+02 -0.42938888419E+03  0.43622300711E+03  0.64038459415E+03  0.17271657442E+03 0.  0.
        -24    2    5    5    0    0  0.33040530851E+02 -0.12432802451E+03  0.22403533781E+03  0.26641632915E+03  0.65089887818E+02 0.  0.
          5    1    3    3  501    0 -0.14320347886E+01  0.17290340160E+01  0.22482138117E+03  0.22488171050E+03  0.47000000000E+01 0. -1.
        -13    1    4    4    0    0 -0.61275758447E+02  0.20227592328E+03  0.96984637574E+03  0.99260881532E+03  0.00000000000E+00 0.  1.
         14    1    4    4    0    0 -0.12099208787E+02  0.22538392689E+03  0.78537093021E+03  0.81716081855E+03  0.00000000000E+00 0. -1.
         -5    1    5    5    0  502  0.41766471172E+02 -0.30506085968E+03  0.21218766930E+03  0.37396826499E+03  0.47000000000E+01 0.  1.
         13    1    6    6    0    0  0.21062103994E+01 -0.54050591807E+02  0.40832535831E+02  0.67773140545E+02  0.00000000000E+00 0. -1.
        -14    1    6    6    0    0  0.30934320451E+02 -0.70277432704E+02  0.18320280197E+03  0.19864318861E+03  0.00000000000E+00 0.  1.
</event>
<event>
12    1  0.1039610E+000  0.1990499E+03  0.7818608E-02  0.1150688E+00
         21   -1    0    0  503  502  0.00000000000E+00  0.00000000000E+00  0.27326128752E+02  0.27326128752E+02  0.00000000000E+00 0.  1.
         21   -1    0    0  501  503 -0.00000000000E+00 -0.00000000000E+00 -0.19522815405E+04  0.19522815405E+04  0.00000000000E+00 0.  1.
          6    2    1    2  501    0  0.45424276910E+02  0.88555649737E+02 -0.45669909452E+03  0.49792029482E+03  0.17159571390E+03 0.  0.
         24    2    3    3    0    0  0.87891211232E+02  0.24276577934E+02 -0.27845028547E+03  0.30367826150E+03  0.79822977776E+02 0.  0.
         -6    2    1    2    0  502 -0.45424276910E+02 -0.88555649737E+02 -0.14682563172E+04  0.14816873744E+04  0.17238153737E+03 0.  0.
        -24    2    5    5    0    0  0.32326531956E+01 -0.11702120016E+03 -0.95526621240E+03  0.96558784715E+03  0.78242844208E+02 0.  0.
          5    1    3    3  501    0 -0.42466934322E+02  0.64279071803E+02 -0.17824880905E+03  0.19424203332E+03  0.47000000000E+01 0. -1.
        -11    1    4    4    0    0  0.62683703876E+02  0.44036922211E+02 -0.12256203330E+03  0.14453355755E+03  0.00000000000E+00 0.  1.
         12    1    4    4    0    0  0.25207507356E+02 -0.19760344277E+02 -0.15588825216E+03  0.15914470395E+03  0.00000000000E+00 0. -1.
         -5    1    5    5    0  502 -0.48656930105E+02  0.28465550425E+02 -0.51299010480E+03  0.51609952725E+03  0.47000000000E+01 0.  1.
         13    1    6    6    0    0  0.71304117722E+01 -0.84198502051E+01 -0.12893157576E+02  0.16969683609E+02  0.00000000000E+00 0. -1.
        -14    1    6    6    0    0 -0.38977585766E+01 -0.10860134996E+03 -0.94237305482E+03  0.94861816354E+03  0.00000000000E+00 0.  1.
</event>
<event>
12    1  0.1039610E+000  0.3006812E+03  0.7818608E-02  0.1084902E+00
         21   -1    0    0  503  502  0.00000000000E+00  0.00000000000E+00  0.92703599887E+03  0.92703599887E+03  0.00000000000E+00 0. -1.
         21   -1    0    0  501  503 -0.00000000000E+00 -0.00000000000E+00 -0.12424839411E+03  0.12424839411E+03  0.00000000000E+00 0. -1.
          6    2    1    2  501    0 -0.17860791441E+02  0.24586433774E+03  0.64518148678E+03  0.71180114184E+03  0.17214364409E+03 0.  0.
         24    2    3    3    0    0 -0.15581412828E+02  0.21777660395E+03  0.38328616054E+03  0.44835215577E+03  0.80261728535E+02 0.  0.
         -6    2    1    2    0  502  0.17860791441E+02 -0.24586433774E+03  0.15760611798E+03  0.33948325115E+03  0.17216535349E+03 0.  0.
        -24    2    5    5    0    0 -0.69611021637E+01 -0.12651779991E+03  0.15504222864E+03  0.21746527697E+03  0.84840104839E+02 0.  0.
          5    1    3    3  501    0 -0.22793786132E+01  0.28087733786E+02  0.26189532624E+03  0.26344898607E+03  0.47000000000E+01 0. -1.
        -11    1    4    4    0    0  0.66067269521E+01  0.16767801569E+03  0.33762483002E+03  0.37702797195E+03  0.00000000000E+00 0.  1.
         12    1    4    4    0    0 -0.22188139780E+02  0.50098588261E+02  0.45661330519E+02  0.71324183819E+02  0.00000000000E+00 0. -1.
         -5    1    5    5    0  502  0.24821893605E+02 -0.11934653783E+03  0.25638893429E+01  0.12201797418E+03  0.47000000000E+01 0.  1.
         13    1    6    6    0    0 -0.27880281795E+02 -0.52063646271E+02  0.20940705923E+02  0.62661364018E+02  0.00000000000E+00 0. -1.
        -14    1    6    6    0    0  0.20919179631E+02 -0.74454153639E+02  0.13410152272E+03  0.15480391295E+03  0.00000000000E+00 0.  1.
</event>
<event>
12    1  0.1039610E+000  0.1882345E+03  0.7818608E-02  0.1160423E+00
         21   -1    0    0  503  502  0.00000000000E+00  0.00000000000E+00  0.34557583168E+03  0.34557583168E+03  0.00000000000E+00 0. -1.
         21   -1    0    0  501  503 -0.00000000000E+00 -0.00000000000E+00 -0.10319528349E+03  0.10319528349E+03  0.00000000000E+00 0. -1.
          6    2    1    2  501    0 -0.53617298226E+02  0.53203296763E+02  0.14790106207E+03  0.23815627725E+03  0.17069939302E+03 0.  0.
         24    2    3    3    0    0 -0.91369875197E+01  0.90145606741E+01  0.15482210472E+03  0.17490176540E+03  0.80349216462E+02 0.  0.
         -6    2    1    2    0  502  0.53617298226E+02 -0.53203296763E+02  0.94479486129E+02  0.21061483792E+03  0.17241470702E+03 0.  0.
        -24    2    5    5    0    0  0.91579908755E+02 -0.29324447518E+02  0.10704230399E+03  0.16380379614E+03  0.78274043447E+02 0.  0.
          5    1    3    3  501    0 -0.44480310706E+02  0.44188736089E+02 -0.69210426509E+01  0.63254511847E+02  0.47000000000E+01 0. -1.
        -13    1    4    4    0    0 -0.40881216090E+02  0.13891119049E+02  0.11999504953E+03  0.12752665968E+03  0.00000000000E+00 0.  1.
         14    1    4    4    0    0  0.31744228570E+02 -0.48765583747E+01  0.34827055192E+02  0.47375105725E+02  0.00000000000E+00 0. -1.
         -5    1    5    5    0  502 -0.37962610529E+02 -0.23878849245E+02 -0.12562817863E+02  0.46811041775E+02  0.47000000000E+01 0.  1.
         13    1    6    6    0    0 -0.11999398877E+02  0.37532673939E+01  0.22102405969E+01  0.12765490709E+02  0.00000000000E+00 0. -1.
        -14    1    6    6    0    0  0.10357930763E+03 -0.33077714912E+02  0.10483206339E+03  0.15103830544E+03  0.00000000000E+00 0.  1.
</event>
<event>
12    1  0.1039610E+000  0.2989852E+03  0.7818608E-02  0.1085946E+00
         21   -1    0    0  501  502  0.00000000000E+00  0.00000000000E+00  0.16817428909E+03  0.16817428909E+03  0.00000000000E+00 0.  1.
         21   -1    0    0  502  503 -0.00000000000E+00 -0.00000000000E+00 -0.77067197874E+03  0.77067197874E+03  0.00000000000E+00 0.  1.
         -6    2    1    2    0  503  0.52410913691E+02 -0.23921154907E+03 -0.38793236652E+02  0.30149140106E+03  0.17153157325E+03 0.  0.
        -24    2    3    3    0    0  0.50146868023E+02 -0.14901809451E+03  0.41234561156E+02  0.18079954728E+03  0.79164931611E+02 0.  0.
          6    2    1    2  501    0 -0.52410913691E+02  0.23921154907E+03 -0.56370445300E+03  0.63735486677E+03  0.16878817131E+03 0.  0.
         24    2    5    5    0    0  0.69711799235E+01  0.11563620795E+03 -0.17315285618E+03  0.22341074281E+03  0.80685305123E+02 0.  0.
          5    1    5    5  501    0 -0.59382093614E+02  0.12357534112E+03 -0.39055159683E+03  0.41394412396E+03  0.47000000000E+01 0. -1.
        -11    1    6    6    0    0  0.16294370635E+02 -0.23468743467E+01 -0.39588474892E+01  0.16931828224E+02  0.00000000000E+00 0.  1.
         12    1    6    6    0    0 -0.93231907110E+01  0.11798308230E+03 -0.16919400869E+03  0.20647891459E+03  0.00000000000E+00 0. -1.
         -5    1    3    3    0  503  0.22640456674E+01 -0.90193454560E+02 -0.80027797808E+02  0.12069185379E+03  0.47000000000E+01 0.  1.
         13    1    4    4    0    0 -0.72372199114E+01 -0.10086308156E+03  0.23727513033E+02  0.10386882809E+03  0.00000000000E+00 0. -1.
        -14    1    4    4    0    0  0.57384087935E+02 -0.48155012949E+02  0.17507048123E+02  0.76930719184E+02  0.00000000000E+00 0.  1.
</event>
<event>
12    1  0.1039610E+000  0.1873567E+03  0.7818608E-02  0.1162652E+00
         21   -1    0    0  501  502  0.00000000000E+00  0.00000000000E+00  0.53119258017E+03  0.53119258017E+03  0.00000000000E+00 0. -1.
         21   -1    0    0  502  503 -0.00000000000E+00 -0.00000000000E+00 -0.73476184083E+02  0.73476184083E+02  0.00000000000E+00 0. -1.
         -6    2    1    2    0  503  0.41014697758E+02 -0.10982741398E+02  0.34472531795E+03  0.39234941920E+03  0.18248204260E+03 0.  0.
        -24    2    3    3    0    0  0.55291381292E+02  0.15665494671E+02  0.34852355376E+03  0.36151974561E+03  0.76976063628E+02 0.  0.
          6    2    1    2  501    0 -0.41014697758E+02  0.10982741398E+02  0.11299107814E+03  0.21231934506E+03  0.17467024505E+03 0.  0.
         24    2    5    5    0    0  0.32902959707E+02 -0.31510535635E+02  0.43369246491E+02  0.10214317649E+03  0.80478682568E+02 0.  0.
          5    1    5    5  501    0 -0.73917657466E+02  0.42493277033E+02  0.69621831652E+02  0.11017616857E+03  0.47000000000E+01 0. -1.
        -11    1    6    6    0    0 -0.35858323791E+00 -0.26290012074E+02  0.59321079355E+02  0.64886699505E+02  0.00000000000E+00 0.  1.
         12    1    6    6    0    0  0.33261542945E+02 -0.52205235609E+01 -0.15951832864E+02  0.37256476981E+02  0.00000000000E+00 0. -1.
         -5    1    3    3    0  503 -0.14276683533E+02 -0.26648236070E+02 -0.37982358153E+01  0.30829673590E+02  0.47000000000E+01 0.  1.
         13    1    4    4    0    0  0.31482299972E+02 -0.20802463539E+02  0.26147829199E+03  0.26418700741E+03  0.00000000000E+00 0. -1.
        -14    1    4    4    0    0  0.23809081320E+02  0.36467958210E+02  0.87045261769E+02  0.97332738201E+02  0.00000000000E+00 0.  1.
</event>
<event>
12    1  0.1039610E+000  0.2173816E+03  0.7818608E-02  0.1137008E+00
         21   -1    0    0  503  502  0.00000000000E+00  0.00000000000E+00  0.19481198143E+04  0.19481198143E+04  0.00000000000E+00 0. -1.
         21   -1    0    0  501  503 -0.00000000000E+00 -0.00000000000E+00 -0.25457941816E+02  0.25457941816E+02  0.00000000000E+00 0. -1.
          6    2    1    2  501    0  0.10505671058E+03 -0.63343566063E+02  0.12161488952E+04  0.12343786166E+04  0.17211366594E+03 0.  0.
         24    2    3    3    0    0  0.67067626293E+02 -0.10827031853E+03  0.93088903371E+03  0.94307660460E+03  0.81354537011E+02 0.  0.
         -6    2    1    2    0  502 -0.10505671058E+03  0.63343566063E+02  0.70651297725E+03  0.73919913949E+03  0.17945880029E+03 0.  0.
        -24    2    5    5    0    0 -0.63573351053E+02 -0.11914613565E+02  0.56336323644E+03  0.57217039642E+03  0.76271209413E+02 0.  0.
          5    1    3    3  501    0  0.37989084289E+02  0.44926752470E+02  0.28525986153E+03  0.29130201203E+03  0.47000000000E+01 0. -1.
        -11    1    4    4    0    0  0.36899076945E+02 -0.18994922084E+02  0.12528707113E+03  0.13198181366E+03  0.00000000000E+00 0.  1.
         12    1    4    4    0    0  0.30168549348E+02 -0.89275396450E+02  0.80560196258E+03  0.81109479094E+03  0.00000000000E+00 0. -1.
         -5    1    5    5    0  502 -0.41483359529E+02  0.75258179628E+02  0.14314974081E+03  0.16702874307E+03  0.47000000000E+01 0.  1.
         13    1    6    6    0    0 -0.32352393386E+02 -0.31725943015E+02  0.13899878321E+03  0.14619806617E+03  0.00000000000E+00 0. -1.
        -14    1    6    6    0    0 -0.31220957666E+02  0.19811329450E+02  0.42436445323E+03  0.42597233025E+03  0.00000000000E+00 0.  1.
</event>
<event>
12    1  0.1039610E+000  0.2254696E+03  0.7818608E-02  0.1129989E+00
         21   -1    0    0  501  502  0.00000000000E+00  0.00000000000E+00  0.14612509294E+03  0.14612509294E+03  0.00000000000E+00 0.  1.
         21   -1    0    0  502  503 -0.00000000000E+00 -0.00000000000E+00 -0.70886695906E+03  0.70886695906E+03  0.00000000000E+00 0.  1.
         -6    2    1    2    0  503 -0.43635326778E+02  0.13869193588E+03 -0.58665926676E+03  0.62825740696E+03  0.17146072233E+03 0.  0.
        -24    2    3    3    0    0  0.14284166512E+02  0.91387422979E+02 -0.49788760977E+03  0.51208993419E+03  0.76081076809E+02 0.  0.
          6    2    1    2  501    0  0.43635326778E+02 -0.13869193588E+03  0.23917400639E+02  0.22673464504E+03  0.17232835630E+03 0.  0.
         24    2    5    5    0    0 -0.27509103948E+02 -0.58902950503E+02  0.55469043674E+02  0.11517565441E+03  0.77215984001E+02 0.  0.
          5    1    5    5  501    0  0.71144430726E+02 -0.79788985382E+02 -0.31551643036E+02  0.11155899063E+03  0.47000000000E+01 0. -1.
        -13    1    6    6    0    0 -0.40857455475E+02 -0.11306637916E+01  0.15725608427E+02  0.43793890315E+02  0.00000000000E+00 0.  1.
         14    1    6    6    0    0  0.13348351527E+02 -0.57772286711E+02  0.39743435248E+02  0.71381764097E+02  0.00000000000E+00 0. -1.
         -5    1    3    3    0  503 -0.57919493290E+02  0.47304512905E+02 -0.88771656996E+02  0.11616747277E+03  0.47000000000E+01 0.  1.
         11    1    4    4    0    0 -0.91682431918E+01  0.89958973676E+02 -0.31574376827E+03  0.32843690540E+03  0.00000000000E+00 0. -1.
        -12    1    4    4    0    0  0.23452409704E+02  0.14284493026E+01 -0.18214384150E+03  0.18365302879E+03  0.00000000000E+00 0.  1.
</event>
<event>
12    1  0.1039610E+000  0.2206960E+03  0.7818608E-02  0.1133451E+00
         21   -1    0    0  503  502  0.00000000000E+00  0.00000000000E+00  0.32854316321E+03  0.32854316321E+03  0.00000000000E+00 0.  1.
         21   -1    0    0  501  503 -0.00000000000E+00 -0.00000000000E+00 -0.15409401418E+03  0.15409401418E+03  0.00000000000E+00 0.  1.
          6    2    1    2  501    0  0.13810868179E+03 -0.18254306102E+02  0.38916024891E+02  0.22364693362E+03  0.17057627692E+03 0.  0.
         24    2    3    3    0    0  0.31489589783E+02 -0.39223174230E+02  0.61840894227E+02  0.11249404862E+03  0.79376086538E+02 0.  0.
         -6    2    1    2    0  502 -0.13810868179E+03  0.18254306102E+02  0.13553312414E+03  0.25899024377E+03  0.17117094073E+03 0.  0.
        -24    2    5    5    0    0 -0.98025582634E+02 -0.40641261922E+02  0.13167764243E+03  0.18748991153E+03  0.80948986338E+02 0.  0.
          5    1    3    3  501    0  0.10661909201E+03  0.20968868129E+02 -0.22924869336E+02  0.11115288500E+03  0.47000000000E+01 0. -1.
        -11    1    4    4    0    0 -0.56948157328E+01 -0.11840605676E+02  0.64897491793E+02  0.66214162458E+02  0.00000000000E+00 0.  1.
         12    1    4    4    0    0  0.37184405516E+02 -0.27382568555E+02 -0.30565975661E+01  0.46279886159E+02  0.00000000000E+00 0. -1.
         -5    1    5    5    0  502 -0.40083099154E+02  0.58895568024E+02  0.38554817140E+01  0.71500332236E+02  0.47000000000E+01 0.  1.
         11    1    6    6    0    0 -0.32383444409E+02 -0.57132844488E+02  0.60996402734E+02  0.89629295086E+02  0.00000000000E+00 0. -1.
        -12    1    6    6    0    0 -0.65642138225E+02  0.16491582566E+02  0.70681239697E+02  0.97860616448E+02  0.00000000000E+00 0.  1.
</event>
<event>
12    1  0.1039610E+000  0.3946863E+03  0.7818608E-02  0.1045717E+00
         21   -1    0    0  503  502  0.00000000000E+00  0.00000000000E+00  0.24239754605E+03  0.24239754605E+03  0.00000000000E+00 0.  1.
         21   -1    0    0  501  503 -0.00000000000E+00 -0.00000000000E+00 -0.75294898330E+03  0.75294898330E+03  0.00000000000E+00 0. -1.
          6    2    1    2  501    0 -0.35070309864E+03 -0.50316282182E+02 -0.63237839414E+02  0.39880084960E+03  0.17181007438E+03 0.  0.
         24    2    3    3    0    0 -0.69951105761E+02 -0.31754189285E+02 -0.43448780068E+01  0.11130006055E+03  0.80419772321E+02 0.  0.
         -6    2    1    2    0  502  0.35070309864E+03  0.50316282182E+02 -0.44731359784E+03  0.59654567975E+03  0.17393361255E+03 0.  0.
        -24    2    5    5    0    0  0.60782241903E+02  0.25789678548E+02 -0.12244636283E+03  0.16040755044E+03  0.79861642974E+02 0.  0.
          5    1    3    3  501    0 -0.28075199287E+03 -0.18562092898E+02 -0.58892961407E+02  0.28750078904E+03  0.47000000000E+01 0. -1.
        -13    1    4    4    0    0 -0.52174140510E+02  0.20350160240E+02 -0.51687880963E+01  0.56240433232E+02  0.00000000000E+00 0.  1.
         14    1    4    4    0    0 -0.17776965251E+02 -0.52104349525E+02  0.82391008943E+00  0.55059627322E+02  0.00000000000E+00 0. -1.
         -5    1    5    5    0  502  0.28992085673E+03  0.24526603635E+02 -0.32486723501E+03  0.43613812931E+03  0.47000000000E+01 0.  1.
         11    1    6    6    0    0 -0.32095149995E+01  0.15000771196E+02 -0.83126347231E+02  0.84529957571E+02  0.00000000000E+00 0. -1.
        -12    1    6    6    0    0  0.63991756903E+02  0.10788907352E+02 -0.39320015598E+02  0.75877592871E+02  0.00000000000E+00 0.  1.
</event>
<event>
12    1  0.1039610E+000  0.2562291E+03  0.7818608E-02  0.1109546E+00
         21   -1    0    0  503  502  0.00000000000E+00  0.00000000000E+00  0.10369052046E+03  0.10369052046E+03  0.00000000000E+00 0. -1.
         21   -1    0    0  501  503 -0.00000000000E+00 -0.00000000000E+00 -0.64494439669E+03  0.64494439669E+03  0.00000000000E+00 0. -1.
          6    2    1    2  501    0 -0.18096734960E+03  0.50168392752E+02 -0.32466381823E+03  0.41312841304E+03  0.17321212872E+03 0.  0.
         24    2    3    3    0    0 -0.58517553628E+02 -0.16091527231E+02 -0.74037132864E+02  0.12638784223E+03  0.82517563517E+02 0.  0.
         -6    2    1    2    0  502  0.18096734960E+03 -0.50168392752E+02 -0.21659005800E+03  0.33550650411E+03  0.17431956811E+03 0.  0.
        -24    2    5    5    0    0  0.13141593840E+03 -0.20572523078E+02 -0.55873555340E+02  0.16467576309E+03  0.79390649269E+02 0.  0.
          5    1    3    3  501    0 -0.12244979597E+03  0.66259919983E+02 -0.25062668537E+03  0.28674057081E+03  0.47000000000E+01 0. -1.
        -13    1    4    4    0    0 -0.14891251943E+02  0.31295322991E+02 -0.41988329479E+02  0.54444158897E+02  0.00000000000E+00 0.  1.
         14    1    4    4    0    0 -0.43626301686E+02 -0.47386850222E+02 -0.32048803385E+02  0.71943683330E+02  0.00000000000E+00 0. -1.
         -5    1    5    5    0  502  0.49551411206E+02 -0.29595869674E+02 -0.16071650266E+03  0.17083074103E+03  0.47000000000E+01 0.  1.
         13    1    6    6    0    0  0.39350963832E+02  0.26990283274E+02 -0.34463907845E+02  0.58861996990E+02  0.00000000000E+00 0. -1.
        -14    1    6    6    0    0  0.92064974565E+02 -0.47562806352E+02 -0.21409647495E+02  0.10581376610E+03  0.00000000000E+00 0.  1.
</event>
<event>
12    1  0.1039610E+000  0.1996617E+03  0.7818608E-02  0.1150186E+00
         21   -1    0    0  503  502  0.00000000000E+00  0.00000000000E+00  0.26291444647E+03  0.26291444647E+03  0.00000000000E+00 0.  1.
         21   -1    0    0  501  503 -0.00000000000E+00 -0.00000000000E+00 -0.16702437777E+03  0.16702437777E+03  0.00000000000E+00 0.  1.
          6    2    1    2  501    0 -0.95427573291E+02  0.36680005049E+02 -0.18617284443E+02  0.19977204983E+03  0.17061777193E+03 0.  0.
         24    2    3    3    0    0 -0.92848244768E+02 -0.13562907008E+02 -0.57554691705E+02  0.13598165218E+03  0.79835569703E+02 0.  0.
         -6    2    1    2    0  502  0.95427573291E+02 -0.36680005049E+02  0.11450735314E+03  0.23016677441E+03  0.17150208630E+03 0.  0.
        -24    2    5    5    0    0  0.97445564824E+02  0.91358442250E+01  0.24343649055E+02  0.12890104542E+03  0.80273062149E+02 0.  0.
          5    1    3    3  501    0 -0.25793285232E+01  0.50242912056E+02  0.38937407262E+02  0.63790397646E+02  0.47000000000E+01 0. -1.
        -11    1    4    4    0    0 -0.57560442440E+02 -0.53203435951E+01 -0.75866983733E+02  0.95379818675E+02  0.00000000000E+00 0.  1.
         12    1    4    4    0    0 -0.35287802329E+02 -0.82425634126E+01  0.18312292028E+02  0.40601833507E+02  0.00000000000E+00 0. -1.
         -5    1    5    5    0  502 -0.20179915324E+01 -0.45815849274E+02  0.90163704083E+02  0.10126572899E+03  0.47000000000E+01 0.  1.
         11    1    6    6    0    0  0.11783046949E+02  0.31012282001E+02  0.23198647510E+02  0.40481836379E+02  0.00000000000E+00 0. -1.
        -12    1    6    6    0    0  0.85662517875E+02 -0.21876437776E+02  0.11450015446E+01  0.88419209038E+02  0.00000000000E+00 0.  1.
</event>
<event>
12    1  0.1039610E+000  0.4523730E+03  0.7818608E-02  0.1027035E+00
         21   -1    0    0  501  502  0.00000000000E+00  0.00000000000E+00  0.39819583552E+03  0.39819583552E+03  0.00000000000E+00 0. -1.
         21   -1    0    0  502  503 -0.00000000000E+00 -0.00000000000E+00 -0.56898614241E+03  0.56898614241E+03  0.00000000000E+00 0. -1.
         -6    2    1    2    0  503  0.37286096964E+03 -0.18996976099E+03 -0.23622798177E+03  0.51033813473E+03  0.17183579260E+03 0.  0.
        -24    2    3    3    0    0  0.14646137173E+03 -0.12176683399E+03 -0.16112434055E+03  0.26220296167E+03  0.80692284156E+02 0.  0.
          6    2    1    2  501    0 -0.37286096964E+03  0.18996976099E+03  0.65437674875E+02  0.45684384320E+03  0.17120278912E+03 0.  0.
         24    2    5    5    0    0 -0.34133751257E+03  0.13954050514E+03  0.96565817812E+02  0.38955424910E+03  0.80278924764E+02 0.  0.
          5    1    5    5  501    0 -0.31523457073E+02  0.50429255845E+02 -0.31128142937E+02  0.67289594097E+02  0.47000000000E+01 0. -1.
        -13    1    6    6    0    0 -0.18901257493E+03  0.34189999651E+02  0.44485091911E+02  0.19716397481E+03  0.00000000000E+00 0.  1.
         14    1    6    6    0    0 -0.15232493763E+03  0.10535050549E+03  0.52080725902E+02  0.19239027429E+03  0.00000000000E+00 0. -1.
         -5    1    3    3    0  503  0.22639959791E+03 -0.68202927003E+02 -0.75103641220E+02  0.24813517306E+03  0.47000000000E+01 0.  1.
         11    1    4    4    0    0  0.11028056058E+03 -0.78381044941E+02 -0.15443156610E+03  0.20531560792E+03  0.00000000000E+00 0. -1.
        -12    1    4    4    0    0  0.36180811157E+02 -0.43385789044E+02 -0.66927744499E+01  0.56887353751E+02  0.00000000000E+00 0.  1.
</event>
<event>
12    1  0.1039610E+000  0.2540816E+03  0.7818608E-02  0.1110988E+00
         21   -1    0    0  501  502  0.00000000000E+00  0.00000000000E+00  0.10748163459E+04  0.10748163459E+04  0.00000000000E+00 0. -1.
         21   -1    0    0  502  503 -0.00000000000E+00 -0.00000000000E+00 -0.74202416728E+02  0.74202416728E+02  0.00000000000E+00 0.  1.
         -6    2    1    2    0  503 -0.69815040654E+02  0.17367624813E+03  0.24515892898E+03  0.35198066199E+03  0.16955797501E+03 0.  0.
        -24    2    3    3    0    0 -0.82606305209E+02  0.17152681923E+03  0.25966914173E+03  0.33195885469E+03  0.80767361388E+02 0.  0.
          6    2    1    2  501    0  0.69815040654E+02 -0.17367624813E+03  0.75545500019E+03  0.79703810063E+03  0.17181355443E+03 0.  0.
         24    2    5    5    0    0  0.11437760073E+03 -0.14756759084E+03  0.57756804249E+03  0.61174551183E+03  0.76087437362E+02 0.  0.
          5    1    5    5  501    0 -0.44562560074E+02 -0.26108657288E+02  0.17788695770E+03  0.18529258880E+03  0.47000000000E+01 0. -1.
        -13    1    6    6    0    0  0.27129367217E+02 -0.97057254923E+02  0.28433264012E+03  0.30166399112E+03  0.00000000000E+00 0.  1.
         14    1    6    6    0    0  0.87248233512E+02 -0.50510335921E+02  0.29323540237E+03  0.31008152071E+03  0.00000000000E+00 0. -1.
         -5    1    3    3    0  503  0.12791264555E+02  0.21494288985E+01 -0.14510212748E+02  0.20021807299E+02  0.47000000000E+01 0.  1.
         11    1    4    4    0    0 -0.47401453978E+02  0.68668923527E+02  0.17598807594E+03  0.19476683951E+03  0.00000000000E+00 0. -1.
        -12    1    4    4    0    0 -0.35204851232E+02  0.10285789571E+03  0.83681065785E+02  0.13719201518E+03  0.00000000000E+00 0.  1.
</event>
<event>
12    1  0.1039610E+000  0.2576118E+03  0.7818608E-02  0.1111618E+00
         21   -1    0    0  503  502  0.00000000000E+00  0.00000000000E+00  0.10241405831E+04  0.10241405831E+04  0.00000000000E+00 0. -1.
         21   -1    0    0  501  503 -0.00000000000E+00 -0.00000000000E+00 -0.11484135068E+03  0.11484135068E+03  0.00000000000E+00 0. -1.
          6    2    1    2  501    0 -0.63759779295E+02  0.15698606132E+03  0.85694814754E+03  0.89483182097E+03  0.19404619900E+03 0.  0.
         24    2    3    3    0    0  0.56733678110E+01  0.46219807999E+02  0.58865377435E+03  0.59634549720E+03  0.83344035317E+02 0.  0.
         -6    2    1    2    0  502  0.63759779295E+02 -0.15698606132E+03  0.52351084919E+02  0.24415011285E+03  0.16780556786E+03 0.  0.
        -24    2    5    5    0    0 -0.29648695390E+02 -0.30142855329E+02  0.12120995521E+02  0.81500513578E+02  0.68613251748E+02 0.  0.
          5    1    3    3  501    0 -0.69433147106E+02  0.11076625332E+03  0.26829437320E+03  0.29848632377E+03  0.47000000000E+01 0. -1.
        -13    1    4    4    0    0 -0.32006094955E+02  0.21751666295E+02  0.13395715902E+03  0.13943473582E+03  0.00000000000E+00 0.  1.
         14    1    4    4    0    0  0.37679462766E+02  0.24468141704E+02  0.45469661533E+03  0.45691076138E+03  0.00000000000E+00 0. -1.
         -5    1    5    5    0  502  0.93408474685E+02 -0.12684320599E+03  0.40230089398E+02  0.16264959927E+03  0.47000000000E+01 0.  1.
         13    1    6    6    0    0  0.13002764828E+02  0.11292352611E+02  0.13713455001E+02  0.22014721637E+02  0.00000000000E+00 0. -1.
        -14    1    6    6    0    0 -0.42651460218E+02 -0.41435207940E+02 -0.15924594806E+01  0.59485791942E+02  0.00000000000E+00 0.  1.
</event>
<event>
12    1  0.1039610E+000  0.3046418E+03  0.7818608E-02  0.1083084E+00
         21   -1    0    0  503  502  0.00000000000E+00  0.00000000000E+00  0.11806271774E+03  0.11806271774E+03  0.00000000000E+00 0.  1.
         21   -1    0    0  501  503 -0.00000000000E+00 -0.00000000000E+00 -0.86904032492E+03  0.86904032492E+03  0.00000000000E+00 0.  1.
          6    2    1    2  501    0 -0.15161544770E+03  0.19515620255E+03 -0.22093518297E+03  0.37632298065E+03  0.17813883159E+03 0.  0.
         24    2    3    3    0    0 -0.71004950334E+02  0.17564366718E+03 -0.99922300493E+02  0.22954083240E+03  0.82535609328E+02 0.  0.
         -6    2    1    2    0  502  0.15161544770E+03 -0.19515620255E+03 -0.53004242421E+03  0.61078006201E+03  0.17616505134E+03 0.  0.
        -24    2    5    5    0    0  0.13417800583E+03 -0.13931386135E+03 -0.50506637333E+03  0.54699664280E+03  0.81860836472E+02 0.  0.
          5    1    3    3  501    0 -0.80610497365E+02  0.19512535362E+02 -0.12101288247E+03  0.14678214826E+03  0.47000000000E+01 0. -1.
        -11    1    4    4    0    0  0.24394570535E+01  0.89430029722E+02 -0.22185324902E+02  0.92173042739E+02  0.00000000000E+00 0.  1.
         12    1    4    4    0    0 -0.73444407388E+02  0.86213637462E+02 -0.77736975591E+02  0.13736778966E+03  0.00000000000E+00 0. -1.
         -5    1    5    5    0  502  0.17437441871E+02 -0.55842341193E+02 -0.24976050876E+02  0.63783419211E+02  0.47000000000E+01 0.  1.
         11    1    6    6    0    0  0.12668116430E+03 -0.10837008405E+03 -0.33745664750E+03  0.37638966704E+03  0.00000000000E+00 0. -1.
        -12    1    6    6    0    0  0.74968415226E+01 -0.30943777308E+02 -0.16760972583E+03  0.17060697576E+03  0.00000000000E+00 0.  1.
</event>
<event>
12    1  0.1039610E+000  0.3575501E+03  0.7818608E-02  0.1060186E+00
         21   -1    0    0  503  502  0.00000000000E+00  0.00000000000E+00  0.27075657308E+03  0.27075657308E+03  0.00000000000E+00 0.  1.
         21   -1    0    0  501  503 -0.00000000000E+00 -0.00000000000E+00 -0.47364475809E+03  0.47364475809E+03  0.00000000000E+00 0.  1.
          6    2    1    2  501    0 -0.81601705006E+02  0.29688187068E+03 -0.49129506998E+02  0.36090969482E+03  0.18178123104E+03 0.  0.
         24    2    3    3    0    0 -0.28374763503E+01  0.14751869678E+03  0.36434070718E+02  0.17155189259E+03  0.79578848767E+02 0.  0.
         -6    2    1    2    0  502  0.81601705006E+02 -0.29688187068E+03 -0.15375867801E+03  0.38349163635E+03  0.16919344162E+03 0.  0.
        -24    2    5    5    0    0  0.63659170934E+02 -0.11872649107E+03 -0.12957584010E+03  0.20274824515E+03  0.78539689635E+02 0.  0.
          5    1    3    3  501    0 -0.78764228655E+02  0.14936317390E+03 -0.85563577715E+02  0.18935780223E+03  0.47000000000E+01 0. -1.
        -13    1    4    4    0    0  0.15206814160E+02  0.89996040828E+02 -0.14764976496E+02  0.92458310025E+02  0.00000000000E+00 0.  1.
         14    1    4    4    0    0 -0.18044290510E+02  0.57522655953E+02  0.51199047214E+02  0.79093582568E+02  0.00000000000E+00 0. -1.
         -5    1    5    5    0  502  0.17942534072E+02 -0.17815537960E+03 -0.24182837905E+02  0.18074339119E+03  0.47000000000E+01 0.  1.
         13    1    6    6    0    0  0.41163248318E+02 -0.12501592456E+03 -0.10139715892E+03  0.16614685746E+03  0.00000000000E+00 0. -1.
        -14    1    6    6    0    0  0.22495922616E+02  0.62894334901E+01 -0.28178681182E+02  0.36601387694E+02  0.00000000000E+00 0.  1.
</event>
<event>
12    1  0.1039610E+000  0.1980609E+03  0.7818608E-02  0.1151588E+00
         21   -1    0    0  503  502  0.00000000000E+00  0.00000000000E+00  0.83357187316E+02  0.83357187316E+02  0.00000000000E+00 0.  1.
         21   -1    0    0  501  503 -0.00000000000E+00 -0.00000000000E+00 -0.52841324677E+03  0.52841324677E+03  0.00000000000E+00 0.  1.
          6    2    1    2  501    0 -0.91842245070E+02  0.41812829412E+02 -0.32611734280E+03  0.38155031468E+03  0.17042538155E+03 0.  0.
         24    2    3    3    0    0 -0.37100336744E+02 -0.42221654071E+02 -0.14608166368E+03  0.17541102513E+03  0.79183787577E+02 0.  0.
         -6    2    1    2    0  502  0.91842245070E+02 -0.41812829412E+02 -0.11893871666E+03  0.23022011940E+03  0.16932682710E+03 0.  0.
        -24    2    5    5    0    0  0.40617833437E+02 -0.17143069500E+02 -0.14200011494E+03  0.16868593791E+03  0.79669440700E+02 0.  0.
          5    1    3    3  501    0 -0.54741908327E+02  0.84034483482E+02 -0.18003567912E+03  0.20613928955E+03  0.47000000000E+01 0. -1.
        -11    1    4    4    0    0  0.20815294139E+01 -0.21618117017E+02 -0.12409831257E+03  0.12598439161E+03  0.00000000000E+00 0.  1.
         12    1    4    4    0    0 -0.39181866158E+02 -0.20603537054E+02 -0.21983351111E+02  0.49426633517E+02  0.00000000000E+00 0. -1.
         -5    1    5    5    0  502  0.51224411634E+02 -0.24669759911E+02  0.23061398281E+02  0.61534181493E+02  0.47000000000E+01 0.  1.
         11    1    6    6    0    0 -0.15922093513E+02 -0.19950699005E+02 -0.83355680063E+02  0.87176331945E+02  0.00000000000E+00 0. -1.
        -12    1    6    6    0    0  0.56539926950E+02  0.28076295050E+01 -0.58644434875E+02  0.81509605966E+02  0.00000000000E+00 0.  1.
</event>
<event>
12    1  0.1039610E+000  0.2261115E+03  0.7818608E-02  0.1129520E+00
         21   -1    0    0  503  502  0.00000000000E+00  0.00000000000E+00  0.29794315973E+03  0.29794315973E+03  0.00000000000E+00 0.  1.
         21   -1    0    0  501  503 -0.00000000000E+00 -0.00000000000E+00 -0.17674369571E+03  0.17674369571E+03  0.00000000000E+00 0.  1.
          6    2    1    2  501    0  0.37147277079E+02  0.14246608304E+03  0.18197774424E+02  0.22622004837E+03  0.17078596628E+03 0.  0.
         24    2    3    3    0    0 -0.26670861087E+02  0.50467116070E+02  0.43922430812E+02  0.11123999519E+03  0.84775538727E+02 0.  0.
         -6    2    1    2    0  502 -0.37147277079E+02 -0.14246608304E+03  0.10300168959E+03  0.24846680708E+03  0.17160973501E+03 0.  0.
        -24    2    5    5    0    0 -0.20087020420E+02 -0.16529912079E+03  0.58448391106E+02  0.19536797115E+03  0.83816120216E+02 0.  0.
          5    1    3    3  501    0  0.63818138166E+02  0.91998966966E+02 -0.25724656389E+02  0.11498005317E+03  0.47000000000E+01 0. -1.
        -11    1    4    4    0    0 -0.17670921510E+02  0.73001706258E+02  0.21316574883E+02  0.78076289284E+02  0.00000000000E+00 0.  1.
         12    1    4    4    0    0 -0.89999395766E+01 -0.22534590188E+02  0.22605855930E+02  0.33163705909E+02  0.00000000000E+00 0. -1.
         -5    1    5    5    0  502 -0.17060256659E+02  0.22833037750E+02  0.44553298488E+02  0.53098835922E+02  0.47000000000E+01 0.  1.
         11    1    6    6    0    0 -0.47946194777E+02 -0.64374101797E+02  0.37491599268E+02  0.88591662088E+02  0.00000000000E+00 0. -1.
        -12    1    6    6    0    0  0.27859174357E+02 -0.10092501899E+03  0.20956791838E+02  0.10677630907E+03  0.00000000000E+00 0.  1.
</event>
<event>
12    1  0.1330273E+000  0.4055790E+03  0.7818608E-02  0.1042247E+00
         21   -1    0    0  503  502  0.00000000000E+00  0.00000000000E+00  0.69701329061E+03  0.69701329061E+03  0.00000000000E+00 0.  1.
         21   -1    0    0  501  503 -0.00000000000E+00 -0.00000000000E+00 -0.51538033572E+03  0.51538033572E+03  0.00000000000E+00 0. -1.
          6    2    1    2  501    0 -0.35717371661E+03  0.57933794753E+02  0.53942764170E+03  0.67489001810E+03  0.18320744387E+03 0.  0.
         24    2    3    3    0    0 -0.22030830603E+03  0.16880628987E+02  0.20773187438E+03  0.31369522980E+03  0.80196385371E+02 0.  0.
         -6    2    1    2    0  502  0.35717371661E+03 -0.57933794753E+02 -0.35779468682E+03  0.53750360823E+03  0.17310026730E+03 0.  0.
        -24    2    5    5    0    0  0.18128143637E+03 -0.47253937646E+02 -0.27624543873E+03  0.34327558899E+03  0.80191606689E+02 0.  0.
          5    1    3    3  501    0 -0.13686541057E+03  0.41053165766E+02  0.33169576733E+03  0.36119478830E+03  0.47000000000E+01 0. -1.
        -11    1    4    4    0    0 -0.51600330865E+02 -0.15154448939E+02  0.15577843404E+02  0.55990362324E+02  0.00000000000E+00 0.  1.
         12    1    4    4    0    0 -0.16870797517E+03  0.32035077926E+02  0.19215403097E+03  0.25770486748E+03  0.00000000000E+00 0. -1.
         -5    1    5    5    0  502  0.17589228024E+03 -0.10679857107E+02 -0.81549248092E+02  0.19422801924E+03  0.47000000000E+01 0.  1.
         11    1    6    6    0    0  0.15728394027E+03 -0.80507055208E+01 -0.22171549700E+03  0.27195737411E+03  0.00000000000E+00 0. -1.
        -12    1    6    6    0    0  0.23997496105E+02 -0.39203232125E+02 -0.54529941725E+02  0.71318214874E+02  0.00000000000E+00 0.  1.
</event>
<event>
12    1  0.1039610E+000  0.1730679E+03  0.7818608E-02  0.1175580E+00
         21   -1    0    0  501  502  0.00000000000E+00  0.00000000000E+00  0.67497820003E+03  0.67497820003E+03  0.00000000000E+00 0. -1.
         21   -1    0    0  502  503 -0.00000000000E+00 -0.00000000000E+00 -0.49448653345E+02  0.49448653345E+02  0.00000000000E+00 0. -1.
         -6    2    1    2    0  503  0.17211999502E+02 -0.29106286062E+01  0.44129044887E+03  0.47401449829E+03  0.17218524803E+03 0.  0.
        -24    2    3    3    0    0  0.66146218055E+02 -0.63935703367E+01  0.38690591182E+03  0.40062201571E+03  0.79910042976E+02 0.  0.
          6    2    1    2  501    0 -0.17211999502E+02  0.29106286062E+01  0.18423909782E+03  0.25041235509E+03  0.16869373945E+03 0.  0.
         24    2    5    5    0    0 -0.13872939875E+02 -0.80395362396E+01  0.20880296075E+03  0.22290728662E+03  0.76366808286E+02 0.  0.
          5    1    5    5  501    0 -0.33390596273E+01  0.10950164846E+02 -0.24563862930E+02  0.27505068467E+02  0.47000000000E+01 0. -1.
        -13    1    6    6    0    0 -0.40831458282E+01 -0.41773503136E+02  0.13057482665E+03  0.13715495980E+03  0.00000000000E+00 0.  1.
         14    1    6    6    0    0 -0.97897940467E+01  0.33733966897E+02  0.78228134101E+02  0.85752326820E+02  0.00000000000E+00 0. -1.
         -5    1    3    3    0  503 -0.48934218552E+02  0.34829417305E+01  0.54384537049E+02  0.73392482575E+02  0.47000000000E+01 0.  1.
         13    1    4    4    0    0  0.38824088965E+02  0.17436014461E+02  0.72014882179E+02  0.83650868134E+02  0.00000000000E+00 0. -1.
        -14    1    4    4    0    0  0.27322129089E+02 -0.23829584798E+02  0.31489102964E+03  0.31697114758E+03  0.00000000000E+00 0.  1.
</event>
<event>
12    1  0.1039610E+000  0.2914143E+03  0.7818608E-02  0.1090963E+00
         21   -1    0    0  503  502  0.00000000000E+00  0.00000000000E+00  0.66266753888E+02  0.66266753888E+02  0.00000000000E+00 0. -1.
         21   -1    0    0  501  503 -0.00000000000E+00 -0.00000000000E+00 -0.12372350245E+04  0.12372350245E+04  0.00000000000E+00 0. -1.
          6    2    1    2  501    0  0.20237269015E+03 -0.91685446503E+02 -0.58363839577E+03  0.64785044771E+03  0.17238183999E+03 0.  0.
         24    2    3    3    0    0  0.20786002818E+03 -0.39243876465E+02 -0.43547929748E+03  0.49051819560E+03  0.78867030658E+02 0.  0.
         -6    2    1    2    0  502 -0.20237269015E+03  0.91685446503E+02 -0.58732987482E+03  0.65565133066E+03  0.18857719565E+03 0.  0.
        -24    2    5    5    0    0 -0.16348151849E+03  0.88931406319E+02 -0.58204341411E+03  0.61602628004E+03  0.77966915210E+02 0.  0.
          5    1    3    3  501    0 -0.54873380346E+01 -0.52441570038E+02 -0.14815909829E+03  0.15733225211E+03  0.47000000000E+01 0. -1.
        -11    1    4    4    0    0  0.17941044371E+03 -0.56407844961E+02 -0.39943820086E+03  0.44149839025E+03  0.00000000000E+00 0.  1.
         12    1    4    4    0    0  0.28449584474E+02  0.17163968496E+02 -0.36041096624E+02  0.49019805356E+02  0.00000000000E+00 0. -1.
         -5    1    5    5    0  502 -0.38891171656E+02  0.27540401837E+01 -0.52864607105E+01  0.39625050624E+02  0.47000000000E+01 0.  1.
         11    1    6    6    0    0 -0.50903299778E+02  0.47828085548E+02 -0.32493430146E+03  0.33235669387E+03  0.00000000000E+00 0. -1.
        -12    1    6    6    0    0 -0.11257821872E+03  0.41103320771E+02 -0.25710911266E+03  0.28366958617E+03  0.00000000000E+00 0.  1.
</event>
<event>
12    1  0.1039610E+000  0.3436358E+03  0.7818608E-02  0.1065311E+00
         21   -1    0    0  501  502  0.00000000000E+00  0.00000000000E+00  0.88670831259E+03  0.88670831259E+03  0.00000000000E+00 0.  1.
         21   -1    0    0  502  503 -0.00000000000E+00 -0.00000000000E+00 -0.13557573021E+03  0.13557573021E+03  0.00000000000E+00 0.  1.
         -6    2    1    2    0  503  0.29210293813E+03 -0.55904950316E+02  0.30453431067E+03  0.45878108695E+03  0.17114160637E+03 0.  0.
        -24    2    3    3    0    0  0.30190841494E+03 -0.38725289227E+02  0.25333941936E+03  0.40369665152E+03  0.78369547695E+02 0.  0.
          6    2    1    2  501    0 -0.29210293813E+03  0.55904950316E+02  0.44659827171E+03  0.56350295585E+03  0.17215131431E+03 0.  0.
         24    2    5    5    0    0 -0.29936894506E+03  0.67877000417E+02  0.44786412074E+03  0.54867672186E+03  0.78960889159E+02 0.  0.
          5    1    5    5  501    0  0.72660069267E+01 -0.11972050101E+02 -0.12658490351E+01  0.14826233981E+02  0.47000000000E+01 0. -1.
        -13    1    6    6    0    0 -0.59077828574E+02 -0.62451178421E+01  0.13342639037E+03  0.14605407551E+03  0.00000000000E+00 0.  1.
         14    1    6    6    0    0 -0.24029111648E+03  0.74122118259E+02  0.31443773038E+03  0.40262264636E+03  0.00000000000E+00 0. -1.
         -5    1    3    3    0  503 -0.98054768093E+01 -0.17179661090E+02  0.51194891308E+02  0.55084435430E+02  0.47000000000E+01 0.  1.
         11    1    4    4    0    0  0.21538322105E+03 -0.55211621980E+02  0.20869990345E+03  0.30494902002E+03  0.00000000000E+00 0. -1.
        -12    1    4    4    0    0  0.86525193888E+02  0.16486332753E+02  0.44639515914E+02  0.98747631496E+02  0.00000000000E+00 0.  1.
</event>
<event>
12    1  0.1039610E+000  0.9088353E+03  0.7818608E-02  0.9414640E-01
         21   -1    0    0  501  502  0.00000000000E+00  0.00000000000E+00  0.18466552453E+04  0.18466552453E+04  0.00000000000E+00 0.  1.
         21   -1    0    0  502  503 -0.00000000000E+00 -0.00000000000E+00 -0.55029610939E+03  0.55029610939E+03  0.00000000000E+00 0.  1.
         -6    2    1    2    0  503  0.79178642504E+03  0.41169626376E+03  0.12947256310E+03  0.91789562357E+03  0.17131746755E+03 0.  0.
        -24    2    3    3    0    0  0.49391856257E+03  0.19754206849E+03  0.59192328389E+02  0.54433346777E+03  0.99079650419E+02 0.  0.
          6    2    1    2  501    0 -0.79178642504E+03 -0.41169626376E+03  0.11668865728E+04  0.14790557311E+04  0.17193610887E+03 0.  0.
         24    2    5    5    0    0 -0.23250114770E+03 -0.10281016563E+03  0.29109576486E+03  0.39496981556E+03  0.81472062961E+02 0.  0.
          5    1    5    5  501    0 -0.55928527734E+03 -0.30888609813E+03  0.87579080796E+03  0.10840859156E+04  0.47000000000E+01 0. -1.
        -13    1    6    6    0    0 -0.11801532376E+03 -0.94183766077E+01  0.11424748388E+03  0.16452601628E+03  0.00000000000E+00 0.  1.
         14    1    6    6    0    0 -0.11448582395E+03 -0.93391789025E+02  0.17684828098E+03  0.23044379928E+03  0.00000000000E+00 0. -1.
         -5    1    3    3    0  503  0.29786786247E+03  0.21415419527E+03  0.70280234716E+02  0.37356215579E+03  0.47000000000E+01 0.  1.
         13    1    4    4    0    0  0.11590604091E+03  0.83432615402E+02 -0.11191078961E+02  0.14324961390E+03  0.00000000000E+00 0. -1.
        -14    1    4    4    0    0  0.37801252166E+03  0.11410945308E+03  0.70383407350E+02  0.40108385388E+03  0.00000000000E+00 0.  1.
</event>
<event>
12    1  0.1039610E+000  0.3147403E+03  0.7818608E-02  0.1078883E+00
         21   -1    0    0  503  502  0.00000000000E+00  0.00000000000E+00  0.10366939670E+03  0.10366939670E+03  0.00000000000E+00 0.  1.
         21   -1    0    0  501  503 -0.00000000000E+00 -0.00000000000E+00 -0.96645392941E+03  0.96645392941E+03  0.00000000000E+00 0. -1.
          6    2    1    2  501    0 -0.79731196792E+02 -0.24249359571E+03 -0.33129026389E+03  0.45242792764E+03  0.17256182388E+03 0.  0.
         24    2    3    3    0    0 -0.53612075287E+02 -0.13597688128E+03 -0.94545502113E+02  0.19147162634E+03  0.79740609881E+02 0.  0.
         -6    2    1    2    0  502  0.79731196792E+02  0.24249359571E+03 -0.53149426882E+03  0.61769539846E+03  0.18412289316E+03 0.  0.
        -24    2    5    5    0    0 -0.69798054939E+01  0.15938798332E+03 -0.21592654151E+03  0.28001149116E+03  0.79554490401E+02 0.  0.
          5    1    3    3  501    0 -0.26119121505E+02 -0.10651671443E+03 -0.23674476178E+03  0.26095630130E+03  0.47000000000E+01 0. -1.
        -11    1    4    4    0    0 -0.10441471795E+02 -0.27197481074E+02  0.13574215550E+02  0.32140109487E+02  0.00000000000E+00 0.  1.
         12    1    4    4    0    0 -0.43170603492E+02 -0.10877940021E+03 -0.10811971766E+03  0.15933151685E+03  0.00000000000E+00 0. -1.
         -5    1    5    5    0  502  0.86711002286E+02  0.83105612396E+02 -0.31556772731E+03  0.33768390730E+03  0.47000000000E+01 0.  1.
         13    1    6    6    0    0  0.94274465943E+00  0.11279874867E+02 -0.73547427828E+02  0.74413362272E+02  0.00000000000E+00 0. -1.
        -14    1    6    6    0    0 -0.79225501533E+01  0.14810810845E+03 -0.14237911368E+03  0.20559812889E+03  0.00000000000E+00 0.  1.
</event>
<event>
12    1  0.1039610E+000  0.5310133E+03  0.7818608E-02  0.1005988E+00
         21   -1    0    0  501  502  0.00000000000E+00  0.00000000000E+00  0.30384080095E+03  0.30384080095E+03  0.00000000000E+00 0.  1.
         21   -1    0    0  502  503 -0.00000000000E+00 -0.00000000000E+00 -0.97875872313E+03  0.97875872313E+03  0.00000000000E+00 0.  1.
         -6    2    1    2    0  503 -0.33428504122E+03 -0.37486608428E+03 -0.48350728845E+03  0.71816041668E+03  0.17234853108E+03 0.  0.
        -24    2    3    3    0    0 -0.30921057254E+03 -0.38800803738E+03 -0.45822397444E+03  0.67991416355E+03  0.78438790153E+02 0.  0.
          6    2    1    2  501    0  0.33428504122E+03  0.37486608428E+03 -0.19141063374E+03  0.56443910740E+03  0.17228582450E+03 0.  0.
         24    2    5    5    0    0  0.14669616080E+03  0.23472592639E+03 -0.44661200135E+02  0.28805832266E+03  0.66082905068E+02 0.  0.
          5    1    5    5  501    0  0.18758888042E+03  0.14014015789E+03 -0.14674943360E+03  0.27638078474E+03  0.47000000000E+01 0. -1.
        -13    1    6    6    0    0  0.10451606255E+02  0.12529643935E+01 -0.11698579212E+02  0.15737304365E+02  0.00000000000E+00 0.  1.
         14    1    6    6    0    0  0.13624455455E+03  0.23347296199E+03 -0.32962620923E+02  0.27232101829E+03  0.00000000000E+00 0. -1.
         -5    1    3    3    0  503 -0.25074468685E+02  0.13141953099E+02 -0.25283314014E+02  0.38246253131E+02  0.47000000000E+01 0.  1.
         13    1    4    4    0    0 -0.10295924510E+03 -0.78357863653E+02 -0.10109603610E+03  0.16419795816E+03  0.00000000000E+00 0. -1.
        -14    1    4    4    0    0 -0.20625132744E+03 -0.30965017373E+03 -0.35712793834E+03  0.51571620539E+03  0.00000000000E+00 0.  1.
</event>
<event>
12    1  0.1039610E+000  0.1752225E+03  0.7818608E-02  0.1172960E+00
         21   -1    0    0  503  502  0.00000000000E+00  0.00000000000E+00  0.69210173519E+03  0.69210173519E+03  0.00000000000E+00 0.  1.
         21   -1    0    0  501  503 -0.00000000000E+00 -0.00000000000E+00 -0.50742823109E+02  0.50742823109E+02  0.00000000000E+00 0.  1.
          6    2    1    2  501    0 -0.27488283544E+02 -0.12544244614E+02  0.45555325703E+03  0.48744942211E+03  0.17077823434E+03 0.  0.
         24    2    3    3    0    0 -0.56926548493E+02 -0.10680313317E+02  0.44490038857E+03  0.45573729053E+03  0.80033875430E+02 0.  0.
         -6    2    1    2    0  502  0.27488283544E+02  0.12544244614E+02  0.18580565505E+03  0.25539513618E+03  0.17259771242E+03 0.  0.
        -24    2    5    5    0    0  0.21520386128E+02 -0.53072345885E+02  0.71871129769E+02  0.12369730477E+03  0.82799534998E+02 0.  0.
          5    1    3    3  501    0  0.29438264949E+02 -0.18639312967E+01  0.10652868460E+02  0.31712131582E+02  0.47000000000E+01 0. -1.
        -13    1    4    4    0    0 -0.15188884577E+02 -0.38400058876E+02  0.29025259191E+03  0.29317543186E+03  0.00000000000E+00 0.  1.
         14    1    4    4    0    0 -0.41737663916E+02  0.27719745559E+02  0.15464779666E+03  0.16256185868E+03  0.00000000000E+00 0. -1.
         -5    1    5    5    0  502  0.59678974159E+01  0.65616590499E+02  0.11393452528E+03  0.13169783141E+03  0.47000000000E+01 0.  1.
         13    1    6    6    0    0 -0.30528754937E+02 -0.32610251426E+02  0.29495145182E+02  0.53529402812E+02  0.00000000000E+00 0. -1.
        -14    1    6    6    0    0  0.52049141065E+02 -0.20462094458E+02  0.42375984587E+02  0.70167901956E+02  0.00000000000E+00 0.  1.
</event>
<event>
12    1  0.1039610E+000  0.1894749E+03  0.7818608E-02  0.1158960E+00
         21   -1    0    0  503  502  0.00000000000E+00  0.00000000000E+00  0.91357948088E+02  0.91357948088E+02  0.00000000000E+00 0. -1.
         21   -1    0    0  501  503 -0.00000000000E+00 -0.00000000000E+00 -0.41014695485E+03  0.41014695485E+03  0.00000000000E+00 0. -1.
          6    2    1    2  501    0  0.75597627432E+02 -0.19610218900E+02 -0.21099751630E+03  0.28351469808E+03  0.17251397098E+03 0.  0.
         24    2    3    3    0    0  0.80169020022E+02 -0.63122034782E+02 -0.19950460684E+03  0.23803555209E+03  0.80295534520E+02 0.  0.
         -6    2    1    2    0  502 -0.75597627432E+02  0.19610218900E+02 -0.10779149046E+03  0.21799020486E+03  0.17263013074E+03 0.  0.
        -24    2    5    5    0    0  0.25189970624E+00 -0.35473443822E+02 -0.26229724491E+02  0.93644829657E+02  0.82601010917E+02 0.  0.
          5    1    3    3  501    0 -0.45713925902E+01  0.43511815882E+02 -0.11492909457E+02  0.45479145983E+02  0.47000000000E+01 0. -1.
        -11    1    4    4    0    0 -0.24640661697E+01 -0.45101351056E+02 -0.65101476854E+02  0.79236391751E+02  0.00000000000E+00 0.  1.
         12    1    4    4    0    0  0.82633086191E+02 -0.18020683726E+02 -0.13440312999E+03  0.15879916034E+03  0.00000000000E+00 0. -1.
         -5    1    5    5    0  502 -0.75849527138E+02  0.55083662722E+02 -0.81561765974E+02  0.12434537520E+03  0.47000000000E+01 0.  1.
         13    1    6    6    0    0  0.25716460478E+02 -0.13934729966E+02 -0.46266624358E+02  0.54736766147E+02  0.00000000000E+00 0. -1.
        -14    1    6    6    0    0 -0.25464560772E+02 -0.21538713856E+02  0.20036899866E+02  0.38908063510E+02  0.00000000000E+00 0.  1.
</event>
<event>
12    1  0.1039610E+000  0.2788136E+03  0.7818608E-02  0.1096434E+00
         21   -1    0    0  501  502  0.00000000000E+00  0.00000000000E+00  0.53019973192E+03  0.53019973192E+03  0.00000000000E+00 0.  1.
         21   -1    0    0  502  503 -0.00000000000E+00 -0.00000000000E+00 -0.14825907648E+03  0.14825907648E+03  0.00000000000E+00 0. -1.
         -6    2    1    2    0  503  0.21812796165E+03  0.13956644560E+02  0.15127527666E+03  0.31659760086E+03  0.17197452126E+03 0.  0.
        -24    2    3    3    0    0  0.51903616268E+02 -0.35929093598E+02  0.73936245036E+02  0.12653830569E+03  0.80996847647E+02 0.  0.
          6    2    1    2  501    0 -0.21812796165E+03 -0.13956644560E+02  0.23066537879E+03  0.36186120754E+03  0.17309656546E+03 0.  0.
         24    2    5    5    0    0 -0.36381678464E+02 -0.15012586653E+02  0.36524699104E+02  0.95880907574E+02  0.79436078118E+02 0.  0.
          5    1    5    5  501    0 -0.18174628318E+03  0.10559420929E+01  0.19414067968E+03  0.26598029997E+03  0.47000000000E+01 0. -1.
        -11    1    6    6    0    0 -0.31878527611E+02  0.29513754624E+02  0.13143590989E+02  0.45387842191E+02  0.00000000000E+00 0.  1.
         12    1    6    6    0    0 -0.45031508524E+01 -0.44526341277E+02  0.23381108115E+02  0.50493065383E+02  0.00000000000E+00 0. -1.
         -5    1    3    3    0  503  0.16622434538E+03  0.49885738159E+02  0.77339031621E+02  0.19005929517E+03  0.47000000000E+01 0.  1.
         11    1    4    4    0    0  0.57304117197E+02 -0.37200204164E+02  0.18439090135E+02  0.70764518529E+02  0.00000000000E+00 0. -1.
        -12    1    4    4    0    0 -0.54005009296E+01  0.12711105655E+01  0.55497154901E+02  0.55773787163E+02  0.00000000000E+00 0.  1.
</event>
<event>
12    1  0.1039610E+000  0.1905985E+03  0.7818608E-02  0.1158982E+00
         21   -1    0    0  501  502  0.00000000000E+00  0.00000000000E+00  0.50109561301E+03  0.50109561301E+03  0.00000000000E+00 0.  1.
         21   -1    0    0  502  503 -0.00000000000E+00 -0.00000000000E+00 -0.13795987021E+03  0.13795987021E+03  0.00000000000E+00 0.  1.
         -6    2    1    2    0  503  0.25827311357E+02 -0.76013629198E+02  0.40575551062E+03  0.44829156129E+03  0.17286603972E+03 0.  0.
        -24    2    3    3    0    0  0.41337202090E+02 -0.23023731524E+02  0.10171805755E+03  0.13924569280E+03  0.82486018452E+02 0.  0.
          6    2    1    2  501    0 -0.25827311357E+02  0.76013629198E+02 -0.42619767814E+02  0.19076392193E+03  0.16771794020E+03 0.  0.
         24    2    5    5    0    0  0.61485948605E+01  0.92316477017E+02 -0.73403460219E+02  0.14324585017E+03  0.81062744042E+02 0.  0.
          5    1    5    5  501    0 -0.31975906218E+02 -0.16302847820E+02  0.30783692405E+02  0.47518071758E+02  0.47000000000E+01 0. -1.
        -13    1    6    6    0    0  0.26483962373E+02  0.15292501117E+01 -0.31571835215E+02  0.41237357429E+02  0.00000000000E+00 0.  1.
         14    1    6    6    0    0 -0.20335367513E+02  0.90787226906E+02 -0.41831625003E+02  0.10200849274E+03  0.00000000000E+00 0. -1.
         -5    1    3    3    0  503 -0.15509890732E+02 -0.52989897673E+02  0.30403745306E+03  0.30904586849E+03  0.47000000000E+01 0.  1.
         13    1    4    4    0    0  0.44419609718E+02  0.17948911554E+01  0.10499868680E+03  0.11402213641E+03  0.00000000000E+00 0. -1.
        -14    1    4    4    0    0 -0.30824076282E+01 -0.24818622679E+02 -0.32806292472E+01  0.25223556386E+02  0.00000000000E+00 0.  1.
</event>
<event>
12    1  0.1039610E+000  0.3860065E+03  0.7818608E-02  0.1048815E+00
         21   -1    0    0  503  502  0.00000000000E+00  0.00000000000E+00  0.19724955256E+03  0.19724955256E+03  0.00000000000E+00 0. -1.
         21   -1    0    0  501  503 -0.00000000000E+00 -0.00000000000E+00 -0.75945091884E+03  0.75945091884E+03  0.00000000000E+00 0. -1.
          6    2    1    2  501    0 -0.14770285615E+03 -0.31261132716E+03 -0.23974172318E+03  0.45439751857E+03  0.17163634657E+03 0.  0.
         24    2    3    3    0    0 -0.12511430664E+03 -0.13296488262E+03 -0.86366285263E+02  0.21705977913E+03  0.79514544267E+02 0.  0.
         -6    2    1    2    0  502  0.14770285615E+03  0.31261132716E+03 -0.32245964309E+03  0.50230295283E+03  0.16966454966E+03 0.  0.
        -24    2    5    5    0    0  0.13028829510E+03  0.32699611054E+03 -0.31160513584E+03  0.47680590874E+03  0.79653109038E+02 0.  0.
          5    1    3    3  501    0 -0.22588549508E+02 -0.17964644454E+03 -0.15337543792E+03  0.23733773944E+03  0.47000000000E+01 0. -1.
        -13    1    4    4    0    0 -0.11534969166E+03 -0.11412074970E+03 -0.10113801624E+03  0.19120145190E+03  0.00000000000E+00 0.  1.
         14    1    4    4    0    0 -0.97646149808E+01 -0.18844132922E+02  0.14771730979E+02  0.25858327236E+02  0.00000000000E+00 0. -1.
         -5    1    5    5    0  502  0.17414561053E+02 -0.14384783378E+02 -0.10854507252E+02  0.25497044087E+02  0.47000000000E+01 0.  1.
         13    1    6    6    0    0  0.50503810821E+02  0.20077973340E+03 -0.21762888283E+03  0.30037554310E+03  0.00000000000E+00 0. -1.
        -14    1    6    6    0    0  0.79784484274E+02  0.12621637714E+03 -0.93976253012E+02  0.17643036564E+03  0.00000000000E+00 0.  1.
</event>
<event>
12    1  0.1039610E+000  0.2280623E+03  0.7818608E-02  0.1128130E+00
         21   -1    0    0  503  502  0.00000000000E+00  0.00000000000E+00  0.50989905777E+03  0.50989905777E+03  0.00000000000E+00 0. -1.
         21   -1    0    0  501  503 -0.00000000000E+00 -0.00000000000E+00 -0.97190747797E+03  0.97190747797E+03  0.00000000000E+00 0. -1.
          6    2    1    2  501    0 -0.13140374972E+03  0.74273898611E+02 -0.93210548093E+03  0.95960045141E+03  0.17096444459E+03 0.  0.
         24    2    3    3    0    0 -0.12277971528E+03  0.68781978858E+01 -0.76332645069E+03  0.77759768909E+03  0.82877787456E+02 0.  0.
         -6    2    1    2    0  502  0.13140374972E+03 -0.74273898611E+02  0.47009706073E+03  0.52220608433E+03  0.17007172177E+03 0.  0.
        -24    2    5    5    0    0  0.15790835811E+03 -0.74637651475E+02  0.34825968220E+03  0.39743003138E+03  0.78485635745E+02 0.  0.
          5    1    3    3  501    0 -0.86240344387E+01  0.67395700725E+02 -0.16877903024E+03  0.18200276233E+03  0.47000000000E+01 0. -1.
        -11    1    4    4    0    0 -0.18165443086E+02  0.28166319708E+02 -0.31301680651E+03  0.31480604512E+03  0.00000000000E+00 0.  1.
         12    1    4    4    0    0 -0.10461427219E+03 -0.21288121823E+02 -0.45030964418E+03  0.46279164396E+03  0.00000000000E+00 0. -1.
         -5    1    5    5    0  502 -0.26504608390E+02  0.36375286425E+00  0.12183737853E+03  0.12477605295E+03  0.47000000000E+01 0.  1.
         13    1    6    6    0    0  0.13326238090E+01 -0.23019338028E+02  0.21941281265E+02  0.31829006158E+02  0.00000000000E+00 0. -1.
        -14    1    6    6    0    0  0.15657573430E+03 -0.51618313447E+02  0.32631840093E+03  0.36560102522E+03  0.00000000000E+00 0.  1.
</event>
<event>
12    1  0.1039610E+000  0.1835576E+03  0.7818608E-02  0.1164883E+00
         21   -1    0    0  501  502  0.00000000000E+00  0.00000000000E+00  0.14445959596E+03  0.14445959596E+03  0.00000000000E+00 0.  1.
         21   -1    0    0  502  503 -0.00000000000E+00 -0.00000000000E+00 -0.23984120874E+03  0.23984120874E+03  0.00000000000E+00 0.  1.
         -6    2    1    2    0  503 -0.59540127577E+01  0.62537304965E+02 -0.10386455056E+02  0.18385122809E+03  0.17247327574E+03 0.  0.
        -24    2    3    3    0    0  0.22321392463E+01  0.10550366829E+03  0.15890419827E+02  0.13260978378E+03  0.78720028224E+02 0.  0.
          6    2    1    2  501    0  0.59540127577E+01 -0.62537304965E+02 -0.84995157714E+02  0.20044957661E+03  0.17032172834E+03 0.  0.
         24    2    5    5    0    0 -0.13808200388E+02  0.16504970094E+02 -0.81232065746E+00  0.83201692318E+02  0.80366543437E+02 0.  0.
          5    1    5    5  501    0  0.19762213146E+02 -0.79042275059E+02 -0.84182837057E+02  0.11724788429E+03  0.47000000000E+01 0. -1.
        -11    1    6    6    0    0 -0.47576174018E+02  0.12369424156E+02 -0.13678927184E+01  0.49176886020E+02  0.00000000000E+00 0.  1.
         12    1    6    6    0    0  0.33767973630E+02  0.41355459382E+01  0.55557206090E+00  0.34024806298E+02  0.00000000000E+00 0. -1.
         -5    1    3    3    0  503 -0.81861520040E+01 -0.42966363324E+02 -0.26276874884E+02  0.51241444315E+02  0.47000000000E+01 0.  1.
         13    1    4    4    0    0 -0.35614066457E+02  0.57262985671E+02 -0.55305498561E+01  0.67660906285E+02  0.00000000000E+00 0. -1.
        -14    1    4    4    0    0  0.37846205703E+02  0.48240682617E+02  0.21420969683E+02  0.64948877494E+02  0.00000000000E+00 0.  1.
</event>
<event>
12    1  0.1039610E+000  0.2110291E+03  0.7818608E-02  0.1140962E+00
         21   -1    0    0  501  502  0.00000000000E+00  0.00000000000E+00  0.39579336770E+03  0.39579336770E+03  0.00000000000E+00 0.  1.
         21   -1    0    0  502  503 -0.00000000000E+00 -0.00000000000E+00 -0.14811494303E+03  0.14811494303E+03  0.00000000000E+00 0.  1.
         -6    2    1    2    0  503  0.63224862235E+02 -0.10819775545E+03  0.25844652026E+03  0.33365830532E+03  0.16979141140E+03 0.  0.
        -24    2    3    3    0    0  0.14551609237E+02  0.84105264622E+01  0.10318480721E+03  0.13342127951E+03  0.82895398538E+02 0.  0.
          6    2    1    2  501    0 -0.63224862235E+02  0.10819775545E+03 -0.10768095589E+02  0.21025000541E+03  0.16847841228E+03 0.  0.
         24    2    5    5    0    0 -0.81191996595E+02  0.12624962348E+03  0.19501501122E+02  0.17041250622E+03  0.78287968372E+02 0.  0.
          5    1    5    5  501    0  0.17967134360E+02 -0.18051868027E+02 -0.30269596710E+02  0.39837499186E+02  0.47000000000E+01 0. -1.
        -13    1    6    6    0    0 -0.24799789703E+01  0.76621108623E+01 -0.20948860499E+02  0.22443551296E+02  0.00000000000E+00 0.  1.
         14    1    6    6    0    0 -0.78712017624E+02  0.11858751262E+03  0.40450361621E+02  0.14796895493E+03  0.00000000000E+00 0. -1.
         -5    1    3    3    0  503  0.48673252998E+02 -0.11660828191E+03  0.15526171305E+03  0.20023702581E+03  0.47000000000E+01 0.  1.
         11    1    4    4    0    0  0.38380428540E+02 -0.71557468450E+01  0.96622222984E+02  0.10421188023E+03  0.00000000000E+00 0. -1.
        -12    1    4    4    0    0 -0.23828819303E+02  0.15566273307E+02  0.65625842298E+01  0.29209399272E+02  0.00000000000E+00 0.  1.
</event>
<event>
12    1  0.1039610E+000  0.2023528E+03  0.7818608E-02  0.1148267E+00
         21   -1    0    0  501  502  0.00000000000E+00  0.00000000000E+00  0.35185607561E+03  0.35185607561E+03  0.00000000000E+00 0.  1.
         21   -1    0    0  502  503 -0.00000000000E+00 -0.00000000000E+00 -0.15019400984E+03  0.15019400984E+03  0.00000000000E+00 0.  1.
         -6    2    1    2    0  503 -0.10531469328E+03 -0.55972775703E+01  0.22278502041E+03  0.30096483230E+03  0.17269670185E+03 0.  0.
        -24    2    3    3    0    0 -0.14212613663E+03  0.55563275151E+00  0.19582855214E+03  0.25468652369E+03  0.79474876987E+02 0.  0.
          6    2    1    2  501    0  0.10531469328E+03  0.55972775703E+01 -0.21122954641E+02  0.20108525314E+03  0.16990169417E+03 0.  0.
         24    2    5    5    0    0  0.43771222130E+02 -0.35870913528E+01  0.52656477766E+02  0.10445479148E+03  0.78799185923E+02 0.  0.
          5    1    5    5  501    0  0.61543471148E+02  0.91843689231E+01 -0.73779432407E+02  0.96630461656E+02  0.47000000000E+01 0. -1.
        -11    1    6    6    0    0  0.51726094324E+02 -0.31619223925E+02  0.30602078261E+02  0.67910612937E+02  0.00000000000E+00 0.  1.
         12    1    6    6    0    0 -0.79548721937E+01  0.28032132572E+02  0.22054399505E+02  0.36544178547E+02  0.00000000000E+00 0. -1.
         -5    1    3    3    0  503  0.36811443352E+02 -0.61529103218E+01  0.26956468264E+02  0.46278308616E+02  0.47000000000E+01 0.  1.
         13    1    4    4    0    0 -0.57719865062E+02 -0.27561099792E+02  0.12702192847E+03  0.14221732439E+03  0.00000000000E+00 0. -1.
        -14    1    4    4    0    0 -0.84406271568E+02  0.28116732544E+02  0.68806623671E+02  0.11246919929E+03  0.00000000000E+00 0.  1.
</event>
<event>
12    1  0.1039610E+000  0.1826821E+03  0.7818608E-02  0.1165313E+00
         21   -1    0    0  503  502  0.00000000000E+00  0.00000000000E+00  0.94292849115E+02  0.94292849115E+02  0.00000000000E+00 0.  1.
         21   -1    0    0  501  503 -0.00000000000E+00 -0.00000000000E+00 -0.36028307503E+03  0.36028307503E+03  0.00000000000E+00 0.  1.
          6    2    1    2  501    0  0.97127396417E+01  0.60820040573E+02 -0.10140033814E+03  0.20893722752E+03  0.17198640012E+03 0.  0.
         24    2    3    3    0    0  0.27018934067E+02  0.93319648965E+02 -0.10146429721E+03  0.17181818926E+03  0.98933850982E+02 0.  0.
         -6    2    1    2    0  502 -0.97127396417E+01 -0.60820040573E+02 -0.16458988778E+03  0.24563869662E+03  0.17162495003E+03 0.  0.
        -24    2    5    5    0    0 -0.22032589227E+02  0.32119207873E+02 -0.74882340577E+02  0.11579642068E+03  0.79274003369E+02 0.  0.
          5    1    3    3  501    0 -0.17306194425E+02 -0.32499608393E+02  0.63959074048E-01  0.37119038268E+02  0.47000000000E+01 0. -1.
        -11    1    4    4    0    0  0.49753531383E+02  0.40153769497E+02 -0.11631796869E+02  0.64984904311E+02  0.00000000000E+00 0.  1.
         12    1    4    4    0    0 -0.22734597316E+02  0.53165879469E+02 -0.89832500341E+02  0.10683328495E+03  0.00000000000E+00 0. -1.
         -5    1    5    5    0  502  0.12319849586E+02 -0.92939248446E+02 -0.89707547202E+02  0.12984227594E+03  0.47000000000E+01 0.  1.
         11    1    6    6    0    0  0.10128939164E+02  0.29457133874E+02  0.31942318829E+01  0.31313276130E+02  0.00000000000E+00 0. -1.
        -12    1    6    6    0    0 -0.32161528392E+02  0.26620739995E+01 -0.78076572460E+02  0.84483144553E+02  0.00000000000E+00 0.  1.
</event>
<event>
12    1  0.1039610E+000  0.1785418E+03  0.7818608E-02  0.1169468E+00
         21   -1    0    0  501  502  0.00000000000E+00  0.00000000000E+00  0.63750901771E+02  0.63750901771E+02  0.00000000000E+00 0. -1.
         21   -1    0    0  502  503 -0.00000000000E+00 -0.00000000000E+00 -0.81802921318E+03  0.81802921318E+03  0.00000000000E+00 0. -1.
         -6    2    1    2    0  503  0.40505747229E+02 -0.16578705455E+02 -0.65388541579E+03  0.67782247023E+03  0.17309417993E+03 0.  0.
        -24    2    3    3    0    0 -0.33276461742E+02 -0.54479463382E+02 -0.36691564489E+03  0.37906835523E+03  0.70642711158E+02 0.  0.
          6    2    1    2  501    0 -0.40505747229E+02  0.16578705455E+02 -0.10039289562E+03  0.20395764472E+03  0.17205934534E+03 0.  0.
         24    2    5    5    0    0 -0.24230543959E+01  0.70861134754E+01  0.13326328754E+02  0.83564319381E+02  0.82154246626E+02 0.  0.
          5    1    5    5  501    0 -0.38082692833E+02  0.94925919800E+01 -0.11371922437E+03  0.12039332534E+03  0.47000000000E+01 0. -1.
        -11    1    6    6    0    0  0.27674940845E+02 -0.24829563720E+02  0.13892764326E+02  0.39691541743E+02  0.00000000000E+00 0.  1.
         12    1    6    6    0    0 -0.30097995241E+02  0.31915677195E+02 -0.56643557260E+00  0.43872777638E+02  0.00000000000E+00 0. -1.
         -5    1    3    3    0  503  0.73782208970E+02  0.37900757927E+02 -0.28696977090E+03  0.29875411499E+03  0.47000000000E+01 0.  1.
         11    1    4    4    0    0 -0.23629489066E+02 -0.37431695982E+02 -0.79556868617E+02  0.91042737007E+02  0.00000000000E+00 0. -1.
        -12    1    4    4    0    0 -0.96469726755E+01 -0.17047767401E+02 -0.28735877627E+03  0.28802561823E+03  0.00000000000E+00 0.  1.
</event>
<event>
12    1  0.1039610E+000  0.3221913E+03  0.7818608E-02  0.1074887E+00
         21   -1    0    0  501  502  0.00000000000E+00  0.00000000000E+00  0.16990104786E+03  0.16990104786E+03  0.00000000000E+00 0. -1.
         21   -1    0    0  502  503 -0.00000000000E+00 -0.00000000000E+00 -0.80318717407E+03  0.80318717407E+03  0.00000000000E+00 0. -1.
         -6    2    1    2    0  503 -0.12313566311E+03  0.24101800454E+03 -0.76961522518E+02  0.33125569655E+03  0.17480043050E+03 0.  0.
        -24    2    3    3    0    0 -0.41084349204E+02  0.33430881672E+02 -0.45803486692E+02  0.10582778148E+03  0.79347415462E+02 0.  0.
          6    2    1    2  501    0  0.12313566311E+03 -0.24101800454E+03 -0.55632460369E+03  0.64183252538E+03  0.17087965332E+03 0.  0.
         24    2    5    5    0    0 -0.45246284610E+01 -0.98637083051E+02 -0.24925518439E+03  0.28005469975E+03  0.80949005485E+02 0.  0.
          5    1    5    5  501    0  0.12766029157E+03 -0.14238092149E+03 -0.30706941930E+03  0.36177782563E+03  0.47000000000E+01 0. -1.
        -11    1    6    6    0    0 -0.24219748649E+01 -0.83706422988E+02 -0.10174136203E+03  0.13177228829E+03  0.00000000000E+00 0.  1.
         12    1    6    6    0    0 -0.21026535962E+01 -0.14930660063E+02 -0.14751382236E+03  0.14828241146E+03  0.00000000000E+00 0. -1.
         -5    1    3    3    0  503 -0.82051313907E+02  0.20758712287E+03 -0.31158035827E+02  0.22542791507E+03  0.47000000000E+01 0.  1.
         13    1    4    4    0    0 -0.60520550384E+02  0.29825759300E+02 -0.51920242439E+02  0.85135330571E+02  0.00000000000E+00 0. -1.
        -14    1    4    4    0    0  0.19436201180E+02  0.36051223726E+01  0.61167557468E+01  0.20692450906E+02  0.00000000000E+00 0.  1.
</event>
<event>
12    1  0.1039610E+000  0.3879631E+03  0.7818608E-02  0.1048064E+00
         21   -1    0    0  503  502  0.00000000000E+00  0.00000000000E+00  0.35825459267E+03  0.35825459267E+03  0.00000000000E+00 0. -1.
         21   -1    0    0  501  503 -0.00000000000E+00 -0.00000000000E+00 -0.42550449009E+03  0.42550449009E+03  0.00000000000E+00 0.  1.
          6    2    1    2  501    0  0.30181208530E+03  0.17310892389E+03 -0.79291062049E+02  0.39560913434E+03  0.17076967029E+03 0.  0.
         24    2    3    3    0    0  0.28333517762E+03  0.10753023347E+03 -0.91026887798E+02  0.32631425458E+03  0.79708998589E+02 0.  0.
         -6    2    1    2    0  502 -0.30181208530E+03 -0.17310892389E+03  0.12041164626E+02  0.38814994843E+03  0.17163379171E+03 0.  0.
        -24    2    5    5    0    0 -0.28043956647E+03 -0.18974708077E+03  0.38547403831E+02  0.34996246956E+03  0.79608558920E+02 0.  0.
          5    1    3    3  501    0  0.18476907679E+02  0.65578690422E+02  0.11735825749E+02  0.69294879760E+02  0.47000000000E+01 0. -1.
        -11    1    4    4    0    0  0.17693545789E+03  0.10373187868E+03 -0.76297359026E+02  0.21883268930E+03  0.00000000000E+00 0.  1.
         12    1    4    4    0    0  0.10639971973E+03  0.37983547888E+01 -0.14729528772E+02  0.10748156528E+03  0.00000000000E+00 0. -1.
         -5    1    5    5    0  502 -0.21372518826E+02  0.16638156882E+02 -0.26506239205E+02  0.38187478867E+02  0.47000000000E+01 0.  1.
         11    1    6    6    0    0 -0.14703860478E+03 -0.12679830975E+03  0.54317067034E+02  0.20161474753E+03  0.00000000000E+00 0. -1.
        -12    1    6    6    0    0 -0.13340096169E+03 -0.62948771024E+02 -0.15769663203E+02  0.14834772202E+03  0.00000000000E+00 0.  1.
</event>
<event>
12    1  0.1039610E+000  0.2484296E+03  0.7818608E-02  0.1114331E+00
         21   -1    0    0  503  502  0.00000000000E+00  0.00000000000E+00  0.25141111318E+04  0.25141111318E+04  0.00000000000E+00 0. -1.
         21   -1    0    0  501  503 -0.00000000000E+00 -0.00000000000E+00 -0.76430454292E+02  0.76430454292E+02  0.00000000000E+00 0. -1.
          6    2    1    2  501    0  0.44851793418E+02 -0.17391125950E+03  0.22860586598E+04  0.22994977941E+04  0.17137415036E+03 0.  0.
         24    2    3    3    0    0  0.69066857662E+02 -0.11153417385E+03  0.10037699103E+04  0.10154558177E+04  0.79914842286E+02 0.  0.
         -6    2    1    2    0  502 -0.44851793418E+02  0.17391125950E+03  0.15162201771E+03  0.29104379200E+03  0.17164044703E+03 0.  0.
        -24    2    5    5    0    0 -0.65568897498E+02  0.16185432443E+03  0.69678305179E+02  0.20553689107E+03  0.83031588692E+02 0.  0.
          5    1    3    3  501    0 -0.24215064244E+02 -0.62377085645E+02  0.12822887495E+04  0.12840419764E+04  0.47000000000E+01 0. -1.
        -13    1    4    4    0    0  0.19309857138E+02 -0.38879318504E+02  0.12577048726E+03  0.13305144665E+03  0.00000000000E+00 0.  1.
         14    1    4    4    0    0  0.49757000524E+02 -0.72654855348E+02  0.87799942306E+03  0.88240437102E+03  0.00000000000E+00 0. -1.
         -5    1    5    5    0  502  0.20717104080E+02  0.12056935063E+02  0.81943712528E+02  0.85506900935E+02  0.47000000000E+01 0.  1.
         13    1    6    6    0    0  0.12154457411E+02  0.58702498531E+02  0.26072543439E+01  0.60004266048E+02  0.00000000000E+00 0. -1.
        -14    1    6    6    0    0 -0.77723354909E+02  0.10315182590E+03  0.67071050835E+02  0.14553262502E+03  0.00000000000E+00 0.  1.
</event>
<event>
12    1  0.1039610E+000  0.1973196E+03  0.7818608E-02  0.1152045E+00
         21   -1    0    0  501  502  0.00000000000E+00  0.00000000000E+00  0.71733238563E+03  0.71733238563E+03  0.00000000000E+00 0. -1.
         21   -1    0    0  502  503 -0.00000000000E+00 -0.00000000000E+00 -0.54547227036E+02  0.54547227036E+02  0.00000000000E+00 0. -1.
         -6    2    1    2    0  503 -0.44338025467E+02 -0.86068014761E+02  0.30263100701E+03  0.36121427333E+03  0.17180413610E+03 0.  0.
        -24    2    3    3    0    0 -0.73849375849E+02 -0.53248921927E+01  0.14687232462E+03  0.18324453213E+03  0.80777435113E+02 0.  0.
          6    2    1    2  501    0  0.44338025467E+02  0.86068014761E+02  0.36015415159E+03  0.41066533934E+03  0.17193441880E+03 0.  0.
         24    2    5    5    0    0  0.27503657361E+02  0.76977017207E+02  0.37134353194E+03  0.38800845477E+03  0.77282791814E+02 0.  0.
          5    1    5    5  501    0  0.16834368106E+02  0.90909975543E+01 -0.11189380354E+02  0.22656884578E+02  0.47000000000E+01 0. -1.
        -13    1    6    6    0    0  0.10501613415E+02 -0.88201400904E+01  0.14020943076E+03  0.14087854070E+03  0.00000000000E+00 0.  1.
         14    1    6    6    0    0  0.17002043946E+02  0.85797157297E+02  0.23113410118E+03  0.24712991406E+03  0.00000000000E+00 0. -1.
         -5    1    3    3    0  503  0.29511350382E+02 -0.80743122569E+02  0.15575868239E+03  0.17796974120E+03  0.47000000000E+01 0.  1.
         13    1    4    4    0    0 -0.62161542631E+01 -0.19808269049E+02  0.93779770627E+02  0.96050265359E+02  0.00000000000E+00 0. -1.
        -14    1    4    4    0    0 -0.67633221585E+02  0.14483376856E+02  0.53092553997E+02  0.87194266768E+02  0.00000000000E+00 0.  1.
</event>
<event>
12    1  0.1039610E+000  0.1872768E+03  0.7818608E-02  0.1160956E+00
         21   -1    0    0  503  502  0.00000000000E+00  0.00000000000E+00  0.11504860948E+04  0.11504860948E+04  0.00000000000E+00 0.  1.
         21   -1    0    0  501  503 -0.00000000000E+00 -0.00000000000E+00 -0.31269825108E+02  0.31269825108E+02  0.00000000000E+00 0.  1.
          6    2    1    2  501    0 -0.71667277154E+02 -0.92390579701E+00  0.65375586290E+03  0.68003288317E+03  0.17294780050E+03 0.  0.
         24    2    3    3    0    0 -0.27127550884E+01  0.46630408874E+02  0.45172826221E+03  0.46127872802E+03  0.80857207260E+02 0.  0.
         -6    2    1    2    0  502  0.71667277154E+02  0.92390579701E+00  0.46546040683E+03  0.50172303677E+03  0.17301896743E+03 0.  0.
        -24    2    5    5    0    0  0.76594459642E+02  0.49696765612E+02  0.40794096043E+03  0.42600219621E+03  0.82009537372E+02 0.  0.
          5    1    3    3  501    0 -0.68954522066E+02 -0.47554314671E+02  0.20202760068E+03  0.21875415515E+03  0.47000000000E+01 0. -1.
        -11    1    4    4    0    0  0.21615060370E+02  0.22918551967E+02  0.57292754922E+02  0.65382953632E+02  0.00000000000E+00 0.  1.
         12    1    4    4    0    0 -0.24327815459E+02  0.23711856907E+02  0.39443550729E+03  0.39589577439E+03  0.00000000000E+00 0. -1.
         -5    1    5    5    0  502 -0.49271824878E+01 -0.48772859815E+02  0.57519446394E+02  0.75720840561E+02  0.47000000000E+01 0.  1.
         13    1    6    6    0    0  0.83773921902E+02  0.64827715479E+02  0.34786960609E+03  0.36363988440E+03  0.00000000000E+00 0. -1.
        -14    1    6    6    0    0 -0.71794622599E+01 -0.15130949867E+02  0.60071354341E+02  0.62362311813E+02  0.00000000000E+00 0.  1.
</event>
<event>
12    1  0.1039610E+000  0.2832711E+03  0.7818608E-02  0.1094084E+00
         21   -1    0    0  503  502  0.00000000000E+00  0.00000000000E+00  0.80163885094E+02  0.80163885094E+02  0.00000000000E+00 0. -1.
         21   -1    0    0  501  503 -0.00000000000E+00 -0.00000000000E+00 -0.10247954243E+04  0.10247954243E+04  0.00000000000E+00 0.  1.
          6    2    1    2  501    0  0.15945977421E+03 -0.15799657413E+03 -0.56298306188E+03  0.62967194215E+03  0.17072343055E+03 0.  0.
         24    2    3    3    0    0  0.12179359102E+03 -0.13548847667E+03 -0.28082034726E+03  0.34407914929E+03  0.79621526108E+02 0.  0.
         -6    2    1    2    0  502 -0.15945977421E+03  0.15799657413E+03 -0.38164847735E+03  0.47528736727E+03  0.17277784637E+03 0.  0.
        -24    2    5    5    0    0 -0.45312050358E+02  0.72780897440E+01 -0.10111361905E+03  0.13695666941E+03  0.80168652477E+02 0.  0.
          5    1    3    3  501    0  0.37666183186E+02 -0.22508097456E+02 -0.28216271463E+03  0.28559279286E+03  0.47000000000E+01 0. -1.
        -13    1    4    4    0    0  0.19597240892E+02 -0.73773960675E+02 -0.80913515666E+02  0.11123689200E+03  0.00000000000E+00 0.  1.
         14    1    4    4    0    0  0.10219635013E+03 -0.61714515995E+02 -0.19990683159E+03  0.23284225729E+03  0.00000000000E+00 0. -1.
         -5    1    5    5    0  502 -0.11414772385E+03  0.15071848438E+03 -0.28053485830E+03  0.33833069786E+03  0.47000000000E+01 0.  1.
         11    1    6    6    0    0 -0.42349578655E+02  0.15016983202E+02 -0.11349054514E+03  0.12206187133E+03  0.00000000000E+00 0. -1.
        -12    1    6    6    0    0 -0.29624717033E+01 -0.77388934576E+01  0.12376926086E+02  0.14894798081E+02  0.00000000000E+00 0.  1.
</event>
<event>
12    1  0.1039610E+000  0.3841783E+03  0.7818608E-02  0.1049413E+00
         21   -1    0    0  503  502  0.00000000000E+00  0.00000000000E+00  0.19661577693E+04  0.19661577693E+04  0.00000000000E+00 0.  1.
         21   -1    0    0  501  503 -0.00000000000E+00 -0.00000000000E+00 -0.15318681287E+03  0.15318681287E+03  0.00000000000E+00 0. -1.
          6    2    1    2  501    0  0.70655904801E+02 -0.33607070635E+03  0.16632695342E+04  0.17070298369E+04  0.17189980859E+03 0.  0.
         24    2    3    3    0    0 -0.42049756690E+01 -0.11646021037E+03  0.54071078146E+03  0.56073442791E+03  0.92055890828E+02 0.  0.
         -6    2    1    2    0  502 -0.70655904801E+02  0.33607070635E+03  0.14970142224E+03  0.41231474525E+03  0.17221253373E+03 0.  0.
        -24    2    5    5    0    0  0.11617536561E+02  0.78269843991E+02  0.55135181517E+02  0.12561792337E+03  0.80491234288E+02 0.  0.
          5    1    3    3  501    0  0.74860880470E+02 -0.21961049599E+03  0.11225587527E+04  0.11462954090E+04  0.47000000000E+01 0. -1.
        -13    1    4    4    0    0 -0.83291899352E+01  0.55305049114E+01  0.47845743563E+01  0.11083954228E+02  0.00000000000E+00 0.  1.
         14    1    4    4    0    0  0.41242142661E+01 -0.12199071528E+03  0.53592620710E+03  0.54965047368E+03  0.00000000000E+00 0. -1.
         -5    1    5    5    0  502 -0.82273441362E+02  0.25780086236E+03  0.94566240722E+02  0.28669682187E+03  0.47000000000E+01 0.  1.
         13    1    6    6    0    0 -0.34249332304E+02  0.25137472154E+02  0.17225816154E+02  0.45843625639E+02  0.00000000000E+00 0. -1.
        -14    1    6    6    0    0  0.45866868865E+02  0.53132371838E+02  0.37909365363E+02  0.79774297733E+02  0.00000000000E+00 0.  1.
</event>
<event>
12    1  0.1449703E+000  0.5072145E+03  0.7818608E-02  0.1011913E+00
         21   -1    0    0  503  502  0.00000000000E+00  0.00000000000E+00  0.60761305281E+03  0.60761305281E+03  0.00000000000E+00 0.  1.
         21   -1    0    0  501  503 -0.00000000000E+00 -0.00000000000E+00 -0.85012816355E+03  0.85012816355E+03  0.00000000000E+00 0.  1.
          6    2    1    2  501    0  0.44945627661E+03  0.15986154716E+03  0.39514018307E+03  0.64296368528E+03  0.17233652389E+03 0.  0.
         24    2    3    3    0    0  0.17578977732E+03  0.11708181488E+03  0.22255856217E+03  0.31657440206E+03  0.77954097120E+02 0.  0.
         -6    2    1    2    0  502 -0.44945627661E+03 -0.15986154716E+03 -0.63765529380E+03  0.81477753108E+03  0.17231219517E+03 0.  0.
        -24    2    5    5    0    0 -0.42842741566E+03 -0.15353546153E+03 -0.64285475311E+03  0.79172635478E+03  0.80281995644E+02 0.  0.
          5    1    3    3  501    0  0.27366649929E+03  0.42779732275E+02  0.17258162090E+03  0.32638928322E+03  0.47000000000E+01 0. -1.
        -11    1    4    4    0    0  0.30946107628E+02 -0.96261797729E+01  0.37882160006E+02  0.49853615326E+02  0.00000000000E+00 0.  1.
         12    1    4    4    0    0  0.14484366969E+03  0.12670799466E+03  0.18467640216E+03  0.26672078673E+03  0.00000000000E+00 0. -1.
         -5    1    5    5    0  502 -0.21028860942E+02 -0.63260856253E+01  0.51994593037E+01  0.23051176302E+02  0.47000000000E+01 0.  1.
         11    1    6    6    0    0 -0.23090244649E+03 -0.69059976762E+02 -0.27437434454E+03  0.36519378572E+03  0.00000000000E+00 0. -1.
        -12    1    6    6    0    0 -0.19752496917E+03 -0.84475484772E+02 -0.36848040857E+03  0.42653256906E+03  0.00000000000E+00 0.  1.
</event>
<event>
12    1  0.1039610E+000  0.1941131E+03  0.7818608E-02  0.1154811E+00
         21   -1    0    0  503  502  0.00000000000E+00  0.00000000000E+00  0.13756547114E+04  0.13756547114E+04  0.00000000000E+00 0.  1.
         21   -1    0    0  501  503 -0.00000000000E+00 -0.00000000000E+00 -0.63240753337E+02  0.63240753337E+02  0.00000000000E+00 0.  1.
          6    2    1    2  501    0 -0.68486012491E+02  0.61359324244E+02  0.11979043954E+04  0.12135239486E+04  0.17090972076E+03 0.  0.
         24    2    3    3    0    0 -0.59032067283E+02  0.63486236565E+01  0.10599435466E+04  0.10646251908E+04  0.80133544407E+02 0.  0.
         -6    2    1    2    0  502  0.68486012491E+02 -0.61359324244E+02  0.11450956270E+03  0.22537151620E+03  0.17095198094E+03 0.  0.
        -24    2    5    5    0    0  0.56446739661E+02 -0.10652830053E+03  0.99859150066E+02  0.17615866119E+03  0.80780633984E+02 0.  0.
          5    1    3    3  501    0 -0.94539452086E+01  0.55010700588E+02  0.13796084876E+03  0.14889875772E+03  0.47000000000E+01 0. -1.
        -13    1    4    4    0    0 -0.30787008364E+02  0.40417555731E+02  0.40253441844E+03  0.40572820548E+03  0.00000000000E+00 0.  1.
         14    1    4    4    0    0 -0.28245058918E+02 -0.34068932075E+02  0.65740912818E+03  0.65889698535E+03  0.00000000000E+00 0. -1.
         -5    1    5    5    0  502  0.12039272831E+02  0.45168976285E+02  0.14650412632E+02  0.49212855019E+02  0.47000000000E+01 0.  1.
         11    1    6    6    0    0  0.23015405483E+02 -0.48528833856E+00  0.48491549541E+02  0.53678438606E+02  0.00000000000E+00 0. -1.
        -12    1    6    6    0    0  0.33431334177E+02 -0.10604301219E+03  0.51367600525E+02  0.12248022258E+03  0.00000000000E+00 0.  1.
</event>
<event>
12    1  0.1039610E+000  0.2161939E+03  0.7818608E-02  0.1136822E+00
         21   -1    0    0  503  502  0.00000000000E+00  0.00000000000E+00  0.92817119182E+03  0.92817119182E+03  0.00000000000E+00 0.  1.
         21   -1    0    0  501  503 -0.00000000000E+00 -0.00000000000E+00 -0.59433692219E+02  0.59433692219E+02  0.00000000000E+00 0.  1.
          6    2    1    2  501    0 -0.12999994673E+03 -0.87985523897E+01  0.62793031236E+03  0.66398796204E+03  0.17206433642E+03 0.  0.
         24    2    3    3    0    0 -0.68946574020E+02  0.57731264746E+02  0.42478073433E+03  0.44162435903E+03  0.80665192186E+02 0.  0.
         -6    2    1    2    0  502  0.12999994673E+03  0.87985523897E+01  0.24080718724E+03  0.32361692201E+03  0.17251785446E+03 0.  0.
        -24    2    5    5    0    0  0.80257190191E+02 -0.16895504592E+02  0.24297174149E+03  0.26739146792E+03  0.75738070331E+02 0.  0.
          5    1    3    3  501    0 -0.61053372713E+02 -0.66529817136E+02  0.20314957803E+03  0.22236360301E+03  0.47000000000E+01 0. -1.
        -11    1    4    4    0    0  0.17220231371E+01  0.40750609291E+02  0.86634408868E+02  0.95755408835E+02  0.00000000000E+00 0.  1.
         12    1    4    4    0    0 -0.70668597157E+02  0.16980655455E+02  0.33814632546E+03  0.34586895019E+03  0.00000000000E+00 0. -1.
         -5    1    5    5    0  502  0.49742756541E+02  0.25694056982E+02 -0.21645542520E+01  0.56225454090E+02  0.47000000000E+01 0.  1.
         11    1    6    6    0    0  0.19309175077E+02  0.11955281146E+02  0.15445612981E+03  0.15611684415E+03  0.00000000000E+00 0. -1.
        -12    1    6    6    0    0  0.60948015115E+02 -0.28850785738E+02  0.88515611681E+02  0.11127462377E+03  0.00000000000E+00 0.  1.
</event>
<event>
12    1  0.1039610E+000  0.1798737E+03  0.7818608E-02  0.1168233E+00
         21   -1    0    0  501  502  0.00000000000E+00  0.00000000000E+00  0.62686050406E+02  0.62686050406E+02  0.00000000000E+00 0.  1.
         21   -1    0    0  502  503 -0.00000000000E+00 -0.00000000000E+00 -0.52762747111E+03  0.52762747111E+03  0.00000000000E+00 0.  1.
         -6    2    1    2    0  503 -0.37268086138E+02 -0.14779870412E+02 -0.28163973822E+03  0.33349827824E+03  0.17404828247E+03 0.  0.
        -24    2    3    3    0    0  0.42933284072E+02  0.70043949452E+01 -0.97466114786E+02  0.13138734937E+03  0.76620255893E+02 0.  0.
          6    2    1    2  501    0  0.37268086138E+02  0.14779870412E+02 -0.18330168249E+03  0.25681524328E+03  0.17534881683E+03 0.  0.
         24    2    5    5    0    0  0.20681163916E+02  0.32737789153E+02 -0.20534742042E+03  0.22356291410E+03  0.79456529692E+02 0.  0.
          5    1    5    5  501    0  0.16586922222E+02 -0.17957918741E+02  0.22045737933E+02  0.33252329171E+02  0.47000000000E+01 0. -1.
        -11    1    6    6    0    0  0.36351171762E+02  0.13631310839E+02 -0.37739448288E+02  0.54143201611E+02  0.00000000000E+00 0.  1.
         12    1    6    6    0    0 -0.15670007846E+02  0.19106478314E+02 -0.16760797213E+03  0.16941971249E+03  0.00000000000E+00 0. -1.
         -5    1    3    3    0  503 -0.80201370210E+02 -0.21784265357E+02 -0.18417362343E+03  0.20211092887E+03  0.47000000000E+01 0.  1.
         13    1    4    4    0    0  0.13951211981E+02  0.33907704425E+02 -0.80305869167E+02  0.88280243304E+02  0.00000000000E+00 0. -1.
        -14    1    4    4    0    0  0.28982072091E+02 -0.26903309480E+02 -0.17160245618E+02  0.43107106065E+02  0.00000000000E+00 0.  1.
</event>
<event>
12    1  0.1039610E+000  0.2985101E+03  0.7818608E-02  0.1086116E+00
         21   -1    0    0  501  502  0.00000000000E+00  0.00000000000E+00  0.11059280595E+03  0.11059280595E+03  0.00000000000E+00 0. -1.
         21   -1    0    0  502  503 -0.00000000000E+00 -0.00000000000E+00 -0.90598772624E+03  0.90598772624E+03  0.00000000000E+00 0. -1.
         -6    2    1    2    0  503 -0.97351332118E+02  0.22386151963E+03 -0.22570782287E+03  0.37342295035E+03  0.17002769393E+03 0.  0.
        -24    2    3    3    0    0 -0.78630432880E+02  0.73104800724E+02 -0.53072472961E+02  0.14341618001E+03  0.78895224429E+02 0.  0.
          6    2    1    2  501    0  0.97351332118E+02 -0.22386151963E+03 -0.56968709742E+03  0.64315758184E+03  0.17180519280E+03 0.  0.
         24    2    5    5    0    0  0.81171916113E+02 -0.88872559591E+02 -0.40293510250E+03  0.42795509430E+03  0.79382958457E+02 0.  0.
          5    1    5    5  501    0  0.16179416005E+02 -0.13498896004E+03 -0.16675199492E+03  0.21520248754E+03  0.47000000000E+01 0. -1.
        -11    1    6    6    0    0  0.43011694691E+02 -0.25717493195E+02 -0.65095717422E+02  0.82151371036E+02  0.00000000000E+00 0.  1.
         12    1    6    6    0    0  0.38160221422E+02 -0.63155066396E+02 -0.33783938508E+03  0.34580372326E+03  0.00000000000E+00 0. -1.
         -5    1    3    3    0  503 -0.18720899238E+02  0.15075671891E+03 -0.17263534991E+03  0.23000677034E+03  0.47000000000E+01 0.  1.
         11    1    4    4    0    0 -0.16052357471E+02 -0.16682716645E+02 -0.14781455809E+02  0.27467847583E+02  0.00000000000E+00 0. -1.
        -12    1    4    4    0    0 -0.62578075409E+02  0.89787517369E+02 -0.38291017152E+02  0.11594833242E+03  0.00000000000E+00 0.  1.
</event>
<event>
12    1  0.1039610E+000  0.1888310E+03  0.7818608E-02  0.1160081E+00
         21   -1    0    0  503  502  0.00000000000E+00  0.00000000000E+00  0.17356094581E+03  0.17356094581E+03  0.00000000000E+00 0. -1.
         21   -1    0    0  501  503 -0.00000000000E+00 -0.00000000000E+00 -0.20750614819E+03  0.20750614819E+03  0.00000000000E+00 0. -1.
          6    2    1    2  501    0  0.26961622775E+02  0.68214427095E+02  0.11866855594E+02  0.18675838815E+03  0.17134099369E+03 0.  0.
         24    2    3    3    0    0  0.65365508879E+02  0.41484341008E+02 -0.38529249654E+02  0.11782934207E+03  0.80035307667E+02 0.  0.
         -6    2    1    2    0  502 -0.26961622775E+02 -0.68214427095E+02 -0.45812057971E+02  0.19430870584E+03  0.17400284866E+03 0.  0.
        -24    2    5    5    0    0 -0.24662997440E+02  0.24325958193E+02 -0.51823389874E+02  0.10142580807E+03  0.80009468934E+02 0.  0.
          5    1    3    3  501    0 -0.38403886104E+02  0.26730086087E+02  0.50396105248E+02  0.68929046085E+02  0.47000000000E+01 0. -1.
        -13    1    4    4    0    0  0.57094033090E+02  0.59655313509E+02 -0.10243137116E+02  0.83207012339E+02  0.00000000000E+00 0.  1.
         14    1    4    4    0    0  0.82714757883E+01 -0.18170972500E+02 -0.28286112538E+02  0.34622329729E+02  0.00000000000E+00 0. -1.
         -5    1    5    5    0  502 -0.22986253355E+01 -0.92540385288E+02  0.60113319032E+01  0.92882897774E+02  0.47000000000E+01 0.  1.
         11    1    6    6    0    0 -0.48183114583E+02  0.90651629636E+01 -0.84079126139E+01  0.49744172573E+02  0.00000000000E+00 0. -1.
        -12    1    6    6    0    0  0.23520117144E+02  0.15260795230E+02 -0.43415477260E+02  0.51681635493E+02  0.00000000000E+00 0.  1.
</event>
<event>
12    1  0.1039610E+000  0.2015237E+03  0.7818608E-02  0.1148784E+00
         21   -1    0    0  503  502  0.00000000000E+00  0.00000000000E+00  0.36762978893E+03  0.36762978893E+03  0.00000000000E+00 0. -1.
         21   -1    0    0  501  503 -0.00000000000E+00 -0.00000000000E+00 -0.11636640012E+03  0.11636640012E+03  0.00000000000E+00 0. -1.
          6    2    1    2  501    0  0.11330947279E+02  0.10189515043E+03  0.18433731458E+03  0.27311545636E+03  0.17349580659E+03 0.  0.
         24    2    3    3    0    0  0.32229747721E+02  0.96564703508E+02  0.53043732085E+02  0.13997917907E+03  0.80106394614E+02 0.  0.
         -6    2    1    2    0  502 -0.11330947279E+02 -0.10189515043E+03  0.66926074233E+02  0.21088073269E+03  0.17169907385E+03 0.  0.
        -24    2    5    5    0    0 -0.49551390254E+02 -0.12163073414E+03  0.34418235100E+02  0.15675915538E+03  0.78354592245E+02 0.  0.
          5    1    3    3  501    0 -0.20898800442E+02  0.53304469253E+01  0.13129358250E+03  0.13313627729E+03  0.47000000000E+01 0. -1.
        -11    1    4    4    0    0  0.57948622900E+02  0.77129045063E+02  0.32717688933E+02  0.10186942455E+03  0.00000000000E+00 0.  1.
         12    1    4    4    0    0 -0.25718875179E+02  0.19435658445E+02  0.20326043152E+02  0.38109754525E+02  0.00000000000E+00 0. -1.
         -5    1    5    5    0  502  0.38220442975E+02  0.19735583706E+02  0.32507839133E+02  0.54121577310E+02  0.47000000000E+01 0.  1.
         13    1    6    6    0    0  0.18900990232E+02 -0.96898914357E+01  0.55083397385E+00  0.21247231486E+02  0.00000000000E+00 0. -1.
        -14    1    6    6    0    0 -0.68452380486E+02 -0.11194084270E+03  0.33867401126E+02  0.13551192390E+03  0.00000000000E+00 0.  1.
</event>
<event>
12    1  0.1039610E+000  0.2040441E+03  0.7818608E-02  0.1146718E+00
         21   -1    0    0  503  502  0.00000000000E+00  0.00000000000E+00  0.22152725559E+04  0.22152725559E+04  0.00000000000E+00 0. -1.
         21   -1    0    0  501  503 -0.00000000000E+00 -0.00000000000E+00 -0.22351684124E+02  0.22351684124E+02  0.00000000000E+00 0. -1.
          6    2    1    2  501    0 -0.10492479469E+03 -0.58627727705E+01  0.63672299449E+03  0.66810653347E+03  0.17293520089E+03 0.  0.
         24    2    3    3    0    0  0.39560565697E+01 -0.23926979667E+02  0.18075513134E+03  0.19894756513E+03  0.79495694399E+02 0.  0.
         -6    2    1    2    0  502  0.10492479469E+03  0.58627727705E+01  0.15561978773E+04  0.15695177065E+04  0.17490115286E+03 0.  0.
        -24    2    5    5    0    0  0.53283702678E+02 -0.50828686559E+02  0.12108870381E+04  0.12157630040E+04  0.80059692844E+02 0.  0.
          5    1    3    3  501    0 -0.10888085126E+03  0.18064206896E+02  0.45596786316E+03  0.46915896834E+03  0.47000000000E+01 0. -1.
        -13    1    4    4    0    0 -0.78483291148E+00  0.22315795389E+02  0.15254971376E+02  0.27043018290E+02  0.00000000000E+00 0.  1.
         14    1    4    4    0    0  0.47408894812E+01 -0.46242775056E+02  0.16550015996E+03  0.17190454684E+03  0.00000000000E+00 0. -1.
         -5    1    5    5    0  502  0.51641092015E+02  0.56691459329E+02  0.34531083914E+03  0.35375470255E+03  0.47000000000E+01 0.  1.
         11    1    6    6    0    0  0.18667157081E+02 -0.59700581846E+01  0.86834622470E+03  0.86856736659E+03  0.00000000000E+00 0. -1.
        -12    1    6    6    0    0  0.34616545597E+02 -0.44858628374E+02  0.34254081341E+03  0.34719563739E+03  0.00000000000E+00 0.  1.
</event>
<event>
12    1  0.1039610E+000  0.2089978E+03  0.7818608E-02  0.1142513E+00
         21   -1    0    0  501  502  0.00000000000E+00  0.00000000000E+00  0.27135173224E+03  0.27135173224E+03  0.00000000000E+00 0. -1.
         21   -1    0    0  502  503 -0.00000000000E+00 -0.00000000000E+00 -0.16354283082E+03  0.16354283082E+03  0.00000000000E+00 0. -1.
         -6    2    1    2    0  503  0.70632910668E+02 -0.96767207015E+02  0.23816705324E+02  0.21035041863E+03  0.17125175252E+03 0.  0.
        -24    2    3    3    0    0  0.39697735993E+02 -0.29495278778E+02  0.75016638620E+02  0.12020597603E+03  0.79850478340E+02 0.  0.
          6    2    1    2  501    0 -0.70632910668E+02  0.96767207015E+02  0.83992196089E+02  0.22454414443E+03  0.17033051216E+03 0.  0.
         24    2    5    5    0    0 -0.34672141942E+02 -0.12036709797E+02  0.11624985772E+02  0.88932300075E+02  0.80167162185E+02 0.  0.
          5    1    5    5  501    0 -0.35960768726E+02  0.10880391681E+03  0.72367210316E+02  0.13561184436E+03  0.47000000000E+01 0. -1.
        -11    1    6    6    0    0 -0.53743498822E+01  0.79706763423E+01  0.41470753976E+02  0.42570397618E+02  0.00000000000E+00 0.  1.
         12    1    6    6    0    0 -0.29297792060E+02 -0.20007386139E+02 -0.29845768204E+02  0.46361902457E+02  0.00000000000E+00 0. -1.
         -5    1    3    3    0  503  0.30935174675E+02 -0.67271928237E+02 -0.51199933296E+02  0.90144442594E+02  0.47000000000E+01 0.  1.
         11    1    4    4    0    0  0.14070237372E+02 -0.52638580490E+02  0.26324558274E+02  0.60512594590E+02  0.00000000000E+00 0. -1.
        -12    1    4    4    0    0  0.25627498621E+02  0.23143301712E+02  0.48692080346E+02  0.59693381443E+02  0.00000000000E+00 0.  1.
</event>
<event>
12    1  0.1039610E+000  0.1997014E+03  0.7818608E-02  0.1150445E+00
         21   -1    0    0  501  502  0.00000000000E+00  0.00000000000E+00  0.34674523142E+03  0.34674523142E+03  0.00000000000E+00 0.  1.
         21   -1    0    0  502  503 -0.00000000000E+00 -0.00000000000E+00 -0.11402191558E+03  0.11402191558E+03  0.00000000000E+00 0.  1.
         -6    2    1    2    0  503 -0.11945133655E+00  0.97193103413E+02  0.12617445808E+03  0.23441936344E+03  0.17200561172E+03 0.  0.
        -24    2    3    3    0    0  0.21971980114E+02  0.13270188299E+03  0.10452400288E+03  0.18709350391E+03  0.77370242130E+02 0.  0.
          6    2    1    2  501    0  0.11945133655E+00 -0.97193103413E+02  0.10654885776E+03  0.22634778356E+03  0.17445385182E+03 0.  0.
         24    2    5    5    0    0  0.19944390931E+02  0.15596894012E+02  0.38015990124E+02  0.92805821260E+02  0.80787765919E+02 0.  0.
          5    1    5    5  501    0 -0.19824939595E+02 -0.11278999743E+03  0.68532867635E+02  0.13354196230E+03  0.47000000000E+01 0. -1.
        -11    1    6    6    0    0  0.40904258612E+02  0.31037974774E+02  0.42168555052E+02  0.66443218510E+02  0.00000000000E+00 0.  1.
         12    1    6    6    0    0 -0.20959867681E+02 -0.15441080762E+02 -0.41525649279E+01  0.26362602750E+02  0.00000000000E+00 0. -1.
         -5    1    3    3    0  503 -0.22091431451E+02 -0.35508779574E+02  0.21650455200E+02  0.47325859535E+02  0.47000000000E+01 0.  1.
         13    1    4    4    0    0 -0.56090552651E+01  0.10833638403E+03  0.45719136906E+02  0.11772201614E+03  0.00000000000E+00 0. -1.
        -14    1    4    4    0    0  0.27581035380E+02  0.24365498958E+02  0.58804865975E+02  0.69371487763E+02  0.00000000000E+00 0.  1.
</event>
<event>
12    1  0.1039610E+000  0.2584029E+03  0.7818608E-02  0.1108289E+00
         21   -1    0    0  503  502  0.00000000000E+00  0.00000000000E+00  0.39846241206E+03  0.39846241206E+03  0.00000000000E+00 0.  1.
         21   -1    0    0  501  503 -0.00000000000E+00 -0.00000000000E+00 -0.16712497427E+03  0.16712497427E+03  0.00000000000E+00 0. -1.
          6    2    1    2  501    0  0.14018068700E+03 -0.13238956285E+03  0.12846098849E+03  0.28857286834E+03  0.17203038516E+03 0.  0.
         24    2    3    3    0    0  0.11405814330E+03 -0.15899338266E+03  0.13489478578E+03  0.25044631243E+03  0.78984785853E+02 0.  0.
         -6    2    1    2    0  502 -0.14018068700E+03  0.13238956285E+03  0.10287644930E+03  0.27701451799E+03  0.17022296555E+03 0.  0.
        -24    2    5    5    0    0 -0.12663011047E+03  0.29237079527E+02  0.49517838284E+02  0.15999621041E+03  0.79099806207E+02 0.  0.
          5    1    3    3  501    0  0.26122543696E+02  0.26603819814E+02 -0.64337972897E+01  0.38126555908E+02  0.47000000000E+01 0. -1.
        -13    1    4    4    0    0  0.25138321832E+02 -0.79098920126E+02  0.21632546459E+02  0.85770283059E+02  0.00000000000E+00 0.  1.
         14    1    4    4    0    0  0.88919821468E+02 -0.79894462534E+02  0.11326223932E+03  0.16467602937E+03  0.00000000000E+00 0. -1.
         -5    1    5    5    0  502 -0.13550576527E+02  0.10315248332E+03  0.53358611012E+02  0.11701830758E+03  0.47000000000E+01 0.  1.
         13    1    6    6    0    0 -0.23630371756E+02  0.96459113777E+00 -0.21311720583E+02  0.31835739972E+02  0.00000000000E+00 0. -1.
        -14    1    6    6    0    0 -0.10299973871E+03  0.28272488390E+02  0.70829558867E+02  0.12816047044E+03  0.00000000000E+00 0.  1.
</event>
<event>
12    1  0.1039610E+000  0.2274281E+03  0.7818608E-02  0.1128746E+00
         21   -1    0    0  501  502  0.00000000000E+00  0.00000000000E+00  0.75881305240E+03  0.75881305240E+03  0.00000000000E+00 0.  1.
         21   -1    0    0  502  503 -0.00000000000E+00 -0.00000000000E+00 -0.90889454617E+02  0.90889454617E+02  0.00000000000E+00 0.  1.
         -6    2    1    2    0  503  0.88337148493E+02 -0.11881137243E+03  0.54946273907E+03  0.59467034532E+03  0.17263813006E+03 0.  0.
        -24    2    3    3    0    0  0.11309550238E+02  0.12527691544E+00  0.24301815157E+03  0.25701733903E+03  0.82898546105E+02 0.  0.
          6    2    1    2  501    0 -0.88337148493E+02  0.11881137243E+03  0.11846085871E+03  0.25503216170E+03  0.17055449109E+03 0.  0.
         24    2    5    5    0    0  0.27410881575E+01  0.35878804980E+02  0.31260764587E+01  0.86220853037E+02  0.78290873883E+02 0.  0.
          5    1    5    5  501    0 -0.91078236650E+02  0.82932567447E+02  0.11533478225E+03  0.16881130866E+03  0.47000000000E+01 0. -1.
        -13    1    6    6    0    0  0.17895632703E+02 -0.20720750109E+02 -0.16830852690E+01  0.27430565632E+02  0.00000000000E+00 0.  1.
         14    1    6    6    0    0 -0.15154544545E+02  0.56599555089E+02  0.48091617277E+01  0.58790287405E+02  0.00000000000E+00 0. -1.
         -5    1    3    3    0  503  0.77027598254E+02 -0.11893664934E+03  0.30644458750E+03  0.33765300629E+03  0.47000000000E+01 0.  1.
         11    1    4    4    0    0 -0.24072556125E+02 -0.23642366205E+02  0.57526447546E+02  0.66691390789E+02  0.00000000000E+00 0. -1.
        -12    1    4    4    0    0  0.35382106363E+02  0.23767643121E+02  0.18549170403E+03  0.19032594824E+03  0.00000000000E+00 0.  1.
</event>
<event>
12    1  0.1039610E+000  0.2496753E+03  0.7818608E-02  0.1113613E+00
         21   -1    0    0  503  502  0.00000000000E+00  0.00000000000E+00  0.95254737811E+03  0.95254737811E+03  0.00000000000E+00 0. -1.
         21   -1    0    0  501  503 -0.00000000000E+00 -0.00000000000E+00 -0.65274337513E+02  0.65274337513E+02  0.00000000000E+00 0. -1.
          6    2    1    2  501    0  0.11748933109E+03 -0.13710337648E+03  0.44294156767E+03  0.50846336232E+03  0.17244326515E+03 0.  0.
         24    2    3    3    0    0  0.53101844193E+02 -0.31611400779E+02  0.30380868447E+03  0.32230656123E+03  0.88106277510E+02 0.  0.
         -6    2    1    2    0  502 -0.11748933109E+03  0.13710337648E+03  0.44433147293E+03  0.50935835330E+03  0.17150625492E+03 0.  0.
        -24    2    5    5    0    0 -0.14095744077E+02  0.35675094982E+02  0.26769791761E+03  0.28088640099E+03  0.75918329600E+02 0.  0.
          5    1    3    3  501    0  0.64387486899E+02 -0.10549197570E+03  0.13913288320E+03  0.18615680110E+03  0.47000000000E+01 0. -1.
        -11    1    4    4    0    0  0.66983755850E+02 -0.50470793847E+02  0.24742640071E+03  0.26125456618E+03  0.00000000000E+00 0.  1.
         12    1    4    4    0    0 -0.13881911657E+02  0.18859393068E+02  0.56382283753E+02  0.61051995048E+02  0.00000000000E+00 0. -1.
         -5    1    5    5    0  502 -0.10339358702E+03  0.10142828150E+03  0.17663355532E+03  0.22847195230E+03  0.47000000000E+01 0.  1.
         13    1    6    6    0    0  0.25032434210E+02  0.13197129535E+02  0.41490499033E+02  0.50221992199E+02  0.00000000000E+00 0. -1.
        -14    1    6    6    0    0 -0.39128178288E+02  0.22477965447E+02  0.22620741857E+03  0.23066440879E+03  0.00000000000E+00 0.  1.
</event>
<event>
12    1  0.1039610E+000  0.1935980E+03  0.7818608E-02  0.1155967E+00
         21   -1    0    0  503  502  0.00000000000E+00  0.00000000000E+00  0.69618125543E+02  0.69618125543E+02  0.00000000000E+00 0. -1.
         21   -1    0    0  501  503 -0.00000000000E+00 -0.00000000000E+00 -0.52961658518E+03  0.52961658518E+03  0.00000000000E+00 0. -1.
          6    2    1    2  501    0  0.29367030808E+02 -0.80880051254E+02 -0.22731493303E+03  0.29858377578E+03  0.17342487477E+03 0.  0.
         24    2    3    3    0    0 -0.16653164316E+02 -0.18552374922E+02 -0.18702830172E+02  0.75999640998E+02  0.69315446175E+02 0.  0.
         -6    2    1    2    0  502 -0.29367030808E+02  0.80880051254E+02 -0.23268352660E+03  0.30065093494E+03  0.16983920613E+03 0.  0.
        -24    2    5    5    0    0 -0.74257274088E+02  0.17724085809E+02 -0.10806132958E+03  0.15382930199E+03  0.78472397865E+02 0.  0.
          5    1    3    3  501    0  0.46020195125E+02 -0.62327676332E+02 -0.20861210286E+03  0.22258413478E+03  0.47000000000E+01 0. -1.
        -13    1    4    4    0    0  0.19692241060E+02 -0.19430038067E+02 -0.27056993319E+02  0.38696144830E+02  0.00000000000E+00 0.  1.
         14    1    4    4    0    0 -0.36345405376E+02  0.87766314476E+00  0.83541631465E+01  0.37303496169E+02  0.00000000000E+00 0. -1.
         -5    1    5    5    0  502  0.44890243279E+02  0.63155965445E+02 -0.12462219702E+03  0.14682163295E+03  0.47000000000E+01 0.  1.
         13    1    6    6    0    0 -0.80700845504E+02  0.33581143352E+02 -0.10469212501E+03  0.13638460578E+03  0.00000000000E+00 0. -1.
        -14    1    6    6    0    0  0.64435714166E+01 -0.15857057542E+02 -0.33692045734E+01  0.17444696213E+02  0.00000000000E+00 0.  1.
</event>
<event>
12    1  0.1039610E+000  0.3675647E+03  0.7818608E-02  0.1055648E+00
         21   -1    0    0  501  502  0.00000000000E+00  0.00000000000E+00  0.15782120874E+03  0.15782120874E+03  0.00000000000E+00 0.  1.
         21   -1    0    0  502  503 -0.00000000000E+00 -0.00000000000E+00 -0.94223450073E+03  0.94223450073E+03  0.00000000000E+00 0.  1.
         -6    2    1    2    0  503  0.17627243614E+03  0.27282255948E+03 -0.55892137210E+03  0.66883606767E+03  0.17159389420E+03 0.  0.
        -24    2    3    3    0    0  0.18877274029E+03  0.17650880792E+03 -0.38856376093E+03  0.47268204139E+03  0.75206443858E+02 0.  0.
          6    2    1    2  501    0 -0.17627243614E+03 -0.27282255948E+03 -0.22549191989E+03  0.43121964179E+03  0.17204549637E+03 0.  0.
         24    2    5    5    0    0 -0.12368421410E+03 -0.97643727878E+02 -0.66059615705E+02  0.18853900029E+03  0.79693157748E+02 0.  0.
          5    1    5    5  501    0 -0.52588222047E+02 -0.17517883160E+03 -0.15943230419E+03  0.24268064150E+03  0.47000000000E+01 0. -1.
        -11    1    6    6    0    0 -0.56843974072E+02 -0.48230424300E+02 -0.73998003749E+02  0.10503863944E+03  0.00000000000E+00 0.  1.
         12    1    6    6    0    0 -0.66840240026E+02 -0.49413303578E+02  0.79383880440E+01  0.83500360849E+02  0.00000000000E+00 0. -1.
         -5    1    3    3    0  503 -0.12500304142E+02  0.96313751558E+02 -0.17035761117E+03  0.19615402628E+03  0.47000000000E+01 0.  1.
         11    1    4    4    0    0  0.11128846757E+03  0.14046911934E+03 -0.30113129269E+03  0.35042367491E+03  0.00000000000E+00 0. -1.
        -12    1    4    4    0    0  0.77484272721E+02  0.36039688587E+02 -0.87432468236E+02  0.12225836648E+03  0.00000000000E+00 0.  1.
</event>
<event>
12    1  0.1039610E+000  0.2744717E+03  0.7818608E-02  0.1099011E+00
         21   -1    0    0  501  502  0.00000000000E+00  0.00000000000E+00  0.50650552399E+02  0.50650552399E+02  0.00000000000E+00 0.  1.
         21   -1    0    0  502  503 -0.00000000000E+00 -0.00000000000E+00 -0.29713913734E+04  0.29713913734E+04  0.00000000000E+00 0.  1.
         -6    2    1    2    0  503  0.78374194417E+02  0.19858260551E+03 -0.25293821832E+04  0.25440290539E+04  0.16950525775E+03 0.  0.
        -24    2    3    3    0    0  0.55010183655E+02  0.14489047091E+03 -0.11699544023E+04  0.11833326498E+04  0.86391480144E+02 0.  0.
          6    2    1    2  501    0 -0.78374194417E+02 -0.19858260551E+03 -0.39135863771E+03  0.47801287189E+03  0.17250262846E+03 0.  0.
         24    2    5    5    0    0 -0.22018576678E+02 -0.69839189829E+02 -0.75506297344E+02  0.13227364408E+03  0.80204649651E+02 0.  0.
          5    1    5    5  501    0 -0.56355617739E+02 -0.12874341568E+03 -0.31585234037E+03  0.34573922781E+03  0.47000000000E+01 0. -1.
        -11    1    6    6    0    0 -0.23365589131E+02 -0.32980162508E+01  0.85148400231E+01  0.25086453860E+02  0.00000000000E+00 0.  1.
         12    1    6    6    0    0  0.13470124528E+01 -0.66541173579E+02 -0.84021137367E+02  0.10718719022E+03  0.00000000000E+00 0. -1.
         -5    1    3    3    0  503  0.23364010762E+02  0.53692134595E+02 -0.13594277810E+04  0.13606964040E+04  0.47000000000E+01 0.  1.
         11    1    4    4    0    0 -0.92490125654E+01  0.90076990387E+02 -0.70214415827E+03  0.70795891648E+03  0.00000000000E+00 0. -1.
        -12    1    4    4    0    0  0.64259196220E+02  0.54813480525E+02 -0.46781024401E+03  0.47537373334E+03  0.00000000000E+00 0.  1.
</event>
<event>
12    1  0.1039610E+000  0.2101413E+03  0.7818608E-02  0.1141711E+00
         21   -1    0    0  503  502  0.00000000000E+00  0.00000000000E+00  0.42800662870E+03  0.42800662870E+03  0.00000000000E+00 0. -1.
         21   -1    0    0  501  503 -0.00000000000E+00 -0.00000000000E+00 -0.22815596775E+03  0.22815596775E+03  0.00000000000E+00 0. -1.
          6    2    1    2  501    0  0.52196337120E+02 -0.10868180767E+03  0.34322355370E+03  0.40177084392E+03  0.17053213858E+03 0.  0.
         24    2    3    3    0    0  0.58274933196E+02 -0.42573687084E+02  0.30865240513E+03  0.32677426233E+03  0.79414259793E+02 0.  0.
         -6    2    1    2    0  502 -0.52196337120E+02  0.10868180767E+03 -0.14337289274E+03  0.25439175253E+03  0.17211387060E+03 0.  0.
        -24    2    5    5    0    0 -0.53413266072E+02 -0.69721181580E+01 -0.68807646122E+02  0.11669869722E+03  0.77346663438E+02 0.  0.
          5    1    3    3  501    0 -0.60785960758E+01 -0.66108120585E+02  0.34571148570E+02  0.74996581595E+02  0.47000000000E+01 0. -1.
        -13    1    4    4    0    0 -0.14316042912E+02 -0.12893520005E+02  0.13328001206E+03  0.13466533911E+03  0.00000000000E+00 0.  1.
         14    1    4    4    0    0  0.72590976108E+02 -0.29680167078E+02  0.17537239307E+03  0.19210892322E+03  0.00000000000E+00 0. -1.
         -5    1    5    5    0  502  0.12169289516E+01  0.11565392583E+03 -0.74565246618E+02  0.13769305530E+03  0.47000000000E+01 0.  1.
         11    1    6    6    0    0  0.13340291636E+02  0.28354960417E+01  0.69040397758E+01  0.15286241656E+02  0.00000000000E+00 0. -1.
        -12    1    6    6    0    0 -0.66753557708E+02 -0.98076141997E+01 -0.75711685898E+02  0.10141245557E+03  0.00000000000E+00 0.  1.
</event>
<event>
12    1  0.1039610E+000  0.1738674E+03  0.7818608E-02  0.1174092E+00
         21   -1    0    0  503  502  0.00000000000E+00  0.00000000000E+00  0.15132254508E+03  0.15132254508E+03  0.00000000000E+00 0.  1.
         21   -1    0    0  501  503 -0.00000000000E+00 -0.00000000000E+00 -0.30379240703E+03  0.30379240703E+03  0.00000000000E+00 0.  1.
          6    2    1    2  501    0 -0.66306071436E+01 -0.24214965317E+02  0.57675184916E+02  0.18236817290E+03  0.17117649965E+03 0.  0.
         24    2    3    3    0    0  0.40426765542E+02  0.21233546219E+02  0.68648503736E+02  0.11586653945E+03  0.81407929848E+02 0.  0.
         -6    2    1    2    0  502  0.66306071436E+01  0.24214965317E+02 -0.21014504687E+03  0.27274677921E+03  0.17204515497E+03 0.  0.
        -24    2    5    5    0    0 -0.35737707687E+02  0.69159211573E+02 -0.11625020117E+03  0.16025948472E+03  0.78158895038E+02 0.  0.
          5    1    3    3  501    0 -0.47057372685E+02 -0.45448511535E+02 -0.10973318819E+02  0.66501633444E+02  0.47000000000E+01 0. -1.
        -13    1    4    4    0    0  0.51450330724E+02  0.11607826339E+02  0.78415011760E+01  0.53323234192E+02  0.00000000000E+00 0.  1.
         14    1    4    4    0    0 -0.11023565182E+02  0.96257198802E+01  0.60807002560E+02  0.62543305260E+02  0.00000000000E+00 0. -1.
         -5    1    5    5    0  502  0.42368314831E+02 -0.44944246257E+02 -0.93894845698E+02  0.11248729449E+03  0.47000000000E+01 0.  1.
         11    1    6    6    0    0  0.18755329134E+02  0.32359758742E+02 -0.71592059852E+02  0.80773382934E+02  0.00000000000E+00 0. -1.
        -12    1    6    6    0    0 -0.54493036821E+02  0.36799452831E+02 -0.44658141317E+02  0.79486101782E+02  0.00000000000E+00 0.  1.
</event>
<event>
12    1  0.1039610E+000  0.2572402E+03  0.7818608E-02  0.1108822E+00
         21   -1    0    0  501  502  0.00000000000E+00  0.00000000000E+00  0.21637039416E+03  0.21637039416E+03  0.00000000000E+00 0.  1.
         21   -1    0    0  502  503 -0.00000000000E+00 -0.00000000000E+00 -0.32731196985E+03  0.32731196985E+03  0.00000000000E+00 0.  1.
         -6    2    1    2    0  503  0.19049423916E+03 -0.15905840864E+02 -0.12522743931E+03  0.28604581479E+03  0.17204431312E+03 0.  0.
        -24    2    3    3    0    0  0.12094099132E+03  0.28369514643E+02 -0.13860857335E+03  0.20238515415E+03  0.79472393143E+02 0.  0.
          6    2    1    2  501    0 -0.19049423916E+03  0.15905840864E+02  0.14285863616E+02  0.25763654922E+03  0.17213789433E+03 0.  0.
         24    2    5    5    0    0 -0.61916448366E+02 -0.63201125810E+01 -0.48554347082E+02  0.11273236234E+03  0.80482734158E+02 0.  0.
          5    1    5    5  501    0 -0.12857779080E+03  0.22225953445E+02  0.62840210699E+02  0.14490418687E+03  0.47000000000E+01 0. -1.
        -11    1    6    6    0    0  0.15262423224E+02  0.14916150617E+02 -0.64906807834E+01  0.22306098918E+02  0.00000000000E+00 0.  1.
         12    1    6    6    0    0 -0.77178871590E+02 -0.21236263198E+02 -0.42063666299E+02  0.90426263425E+02  0.00000000000E+00 0. -1.
         -5    1    3    3    0  503  0.69553247844E+02 -0.44275355507E+02  0.13381134040E+02  0.83660660643E+02  0.47000000000E+01 0.  1.
         13    1    4    4    0    0  0.10852339667E+03  0.58955904915E+01 -0.70370441489E+02  0.12947619336E+03  0.00000000000E+00 0. -1.
        -14    1    4    4    0    0  0.12417594650E+02  0.22473924152E+02 -0.68238131858E+02  0.72908960788E+02  0.00000000000E+00 0.  1.
</event>
<event>
12    1  0.1039610E+000  0.2463688E+03  0.7818608E-02  0.1115826E+00
         21   -1    0    0  503  502  0.00000000000E+00  0.00000000000E+00  0.29957184824E+03  0.29957184824E+03  0.00000000000E+00 0. -1.
         21   -1    0    0  501  503 -0.00000000000E+00 -0.00000000000E+00 -0.27251039442E+03  0.27251039442E+03  0.00000000000E+00 0.  1.
          6    2    1    2  501    0 -0.17284346615E+03  0.38088800288E+02  0.15944163250E+03  0.29240009239E+03  0.16955989903E+03 0.  0.
         24    2    3    3    0    0 -0.10292252730E+03  0.20207655398E+02  0.17628949893E+02  0.13320964048E+03  0.80203693681E+02 0.  0.
         -6    2    1    2    0  502  0.17284346615E+03 -0.38088800288E+02 -0.13238017867E+03  0.27968215027E+03  0.17138253405E+03 0.  0.
        -24    2    5    5    0    0  0.10992007910E+03 -0.72177617859E+02 -0.12720052632E+03  0.20777722054E+03  0.98485365265E+02 0.  0.
          5    1    3    3  501    0 -0.69920938844E+02  0.17881144891E+02  0.14181268260E+03  0.15919045191E+03  0.47000000000E+01 0. -1.
        -11    1    4    4    0    0 -0.79095150428E+02 -0.23088319627E+02  0.14754081618E+02  0.83706608155E+02  0.00000000000E+00 0.  1.
         12    1    4    4    0    0 -0.23827376875E+02  0.43295975024E+02  0.28748682753E+01  0.49503032328E+02  0.00000000000E+00 0. -1.
         -5    1    5    5    0  502  0.62923387047E+02  0.34088817571E+02 -0.51796523496E+01  0.71904929729E+02  0.47000000000E+01 0.  1.
         11    1    6    6    0    0  0.10964229763E+03 -0.60966255868E+02 -0.58951868754E+02  0.13861327719E+03  0.00000000000E+00 0. -1.
        -12    1    6    6    0    0  0.27778146866E+00 -0.11211361991E+02 -0.68248657566E+02  0.69163943351E+02  0.00000000000E+00 0.  1.
</event>
<event>
12    1  0.1039610E+000  0.2046133E+03  0.7818608E-02  0.1148708E+00
         21   -1    0    0  501  502  0.00000000000E+00  0.00000000000E+00  0.13530379776E+04  0.13530379776E+04  0.00000000000E+00 0.  1.
         21   -1    0    0  502  503 -0.00000000000E+00 -0.00000000000E+00 -0.51776838560E+02  0.51776838560E+02  0.00000000000E+00 0.  1.
         -6    2    1    2    0  503  0.59188390489E+02 -0.34014477113E+02  0.17251227331E+03  0.25767026496E+03  0.17881060031E+03 0.  0.
        -24    2    3    3    0    0 -0.34169587924E+02  0.12830575652E+02  0.90608446749E+02  0.12485272882E+03  0.77756857324E+02 0.  0.
          6    2    1    2  501    0 -0.59188390489E+02  0.34014477113E+02  0.11287488657E+04  0.11471445512E+04  0.19288952597E+03 0.  0.
         24    2    5    5    0    0 -0.96992499634E+02  0.67405120656E+02  0.98154092692E+03  0.99146426024E+03  0.75018616579E+02 0.  0.
          5    1    5    5  501    0  0.37804109145E+02 -0.33390643544E+02  0.14720793882E+03  0.15568029097E+03  0.47000000000E+01 0. -1.
        -11    1    6    6    0    0 -0.27889154071E+02 -0.48167488853E+01  0.90193340458E+02  0.94529596675E+02  0.00000000000E+00 0.  1.
         12    1    6    6    0    0 -0.69103345563E+02  0.72221869542E+02  0.89134758646E+03  0.89693466356E+03  0.00000000000E+00 0. -1.
         -5    1    3    3    0  503  0.93357978413E+02 -0.46845052765E+02  0.81903826557E+02  0.13281753614E+03  0.47000000000E+01 0.  1.
         13    1    4    4    0    0 -0.88945531765E+00 -0.41754840707E+01 -0.13542379509E+02  0.14199360575E+02  0.00000000000E+00 0. -1.
        -14    1    4    4    0    0 -0.33280132607E+02  0.17006059723E+02  0.10415082626E+03  0.11065336824E+03  0.00000000000E+00 0.  1.
</event>
<event>
12    1  0.1039610E+000  0.2368352E+03  0.7818608E-02  0.1122307E+00
         21   -1    0    0  501  502  0.00000000000E+00  0.00000000000E+00  0.14423900351E+03  0.14423900351E+03  0.00000000000E+00 0. -1.
         21   -1    0    0  502  503 -0.00000000000E+00 -0.00000000000E+00 -0.38801932960E+03  0.38801932960E+03  0.00000000000E+00 0. -1.
         -6    2    1    2    0  503  0.77339352207E+02  0.14201430440E+03 -0.14536473732E+03  0.27788814830E+03  0.17303605998E+03 0.  0.
        -24    2    3    3    0    0  0.86535496886E+02  0.14089152872E+03 -0.62272397350E+02  0.19414893010E+03  0.80480684031E+02 0.  0.
          6    2    1    2  501    0 -0.77339352207E+02 -0.14201430440E+03 -0.98415588768E+02  0.25437018482E+03  0.16990916620E+03 0.  0.
         24    2    5    5    0    0 -0.10497512670E+02 -0.74023962724E+02 -0.11320867194E+03  0.15777078842E+03  0.80533678960E+02 0.  0.
          5    1    5    5  501    0 -0.66841839538E+02 -0.67990341674E+02  0.14793083175E+02  0.96599396393E+02  0.47000000000E+01 0. -1.
        -13    1    6    6    0    0  0.57466545170E+01  0.79947211639E+01 -0.55043987974E+02  0.55917619913E+02  0.00000000000E+00 0.  1.
         14    1    6    6    0    0 -0.16244167187E+02 -0.82018683888E+02 -0.58164683969E+02  0.10185316851E+03  0.00000000000E+00 0. -1.
         -5    1    3    3    0  503 -0.91961446785E+01  0.11227756824E+01 -0.83092339972E+02  0.83739218197E+02  0.47000000000E+01 0.  1.
         11    1    4    4    0    0 -0.77277158679E+01  0.32918240037E+02  0.76563313741E+01  0.34669114926E+02  0.00000000000E+00 0. -1.
        -12    1    4    4    0    0  0.94263212754E+02  0.10797328868E+03 -0.69928728724E+02  0.15947981517E+03  0.00000000000E+00 0.  1.
</event>
<event>
12    1  0.1039610E+000  0.2822985E+03  0.7818608E-02  0.1094524E+00
         21   -1    0    0  503  502  0.00000000000E+00  0.00000000000E+00  0.79348599779E+03  0.79348599779E+03  0.00000000000E+00 0. -1.
         21   -1    0    0  501  503 -0.00000000000E+00 -0.00000000000E+00 -0.11026133576E+03  0.11026133576E+03  0.00000000000E+00 0. -1.
          6    2    1    2  501    0  0.21802924323E+03  0.52737615363E+02  0.20554151545E+03  0.34919876025E+03  0.17138976810E+03 0.  0.
         24    2    3    3    0    0  0.93316834170E+02 -0.26465767586E+02  0.13821897440E+03  0.18677716261E+03  0.79829538378E+02 0.  0.
         -6    2    1    2    0  502 -0.21802924323E+03 -0.52737615363E+02  0.47768314658E+03  0.55454857330E+03  0.17036702922E+03 0.  0.
        -24    2    5    5    0    0 -0.92466104506E+02 -0.26195434548E+02  0.11498321099E+03  0.16978381082E+03  0.79807407761E+02 0.  0.
          5    1    3    3  501    0  0.12471240906E+03  0.79203382948E+02  0.67322541054E+02  0.16242159764E+03  0.47000000000E+01 0. -1.
        -11    1    4    4    0    0  0.57102854804E+02  0.23548693344E+02  0.86151307159E+02  0.10600624845E+03  0.00000000000E+00 0.  1.
         12    1    4    4    0    0  0.36213979366E+02 -0.50014460930E+02  0.52067667237E+02  0.80770914165E+02  0.00000000000E+00 0. -1.
         -5    1    5    5    0  502 -0.12556313873E+03 -0.26542180815E+02  0.36269993559E+03  0.38476476248E+03  0.47000000000E+01 0.  1.
         11    1    6    6    0    0 -0.45708976167E+02  0.23925404737E+02  0.73044342166E+02  0.89427129086E+02  0.00000000000E+00 0. -1.
        -12    1    6    6    0    0 -0.46757128339E+02 -0.50120839285E+02  0.41938868822E+02  0.80356681734E+02  0.00000000000E+00 0.  1.
</event>
<event>
12    1  0.1039610E+000  0.2844743E+03  0.7818608E-02  0.1093318E+00
         21   -1    0    0  503  502  0.00000000000E+00  0.00000000000E+00  0.94877384397E+03  0.94877384397E+03  0.00000000000E+00 0.  1.
         21   -1    0    0  501  503 -0.00000000000E+00 -0.00000000000E+00 -0.88403256724E+02  0.88403256724E+02  0.00000000000E+00 0.  1.
          6    2    1    2  501    0 -0.21498609949E+03 -0.68603863717E+02  0.52936584016E+03  0.60096076087E+03  0.17320545686E+03 0.  0.
         24    2    3    3    0    0 -0.79726263780E+02  0.22226863596E+02  0.15867535071E+03  0.19601758813E+03  0.79966976507E+02 0.  0.
         -6    2    1    2    0  502  0.21498609949E+03  0.68603863717E+02  0.33100474709E+03  0.43621633983E+03  0.17261239655E+03 0.  0.
        -24    2    5    5    0    0  0.24588980838E+02  0.54134413353E+00  0.10454665757E+03  0.13259004703E+03  0.77750922387E+02 0.  0.
          5    1    3    3  501    0 -0.13525983571E+03 -0.90830727313E+02  0.37069048945E+03  0.40494317274E+03  0.47000000000E+01 0. -1.
        -13    1    4    4    0    0 -0.46034437042E+01 -0.17386304978E+02  0.23846144610E+01  0.18142813477E+02  0.00000000000E+00 0.  1.
         14    1    4    4    0    0 -0.75122820075E+02  0.39613168574E+02  0.15629073625E+03  0.17787477465E+03  0.00000000000E+00 0. -1.
         -5    1    5    5    0  502  0.19039711866E+03  0.68062519583E+02  0.22645808952E+03  0.30362629279E+03  0.47000000000E+01 0.  1.
         13    1    6    6    0    0  0.74075968019E+01 -0.53072690815E+01 -0.11759095162E+02  0.14876690308E+02  0.00000000000E+00 0. -1.
        -14    1    6    6    0    0  0.17181384036E+02  0.58486132150E+01  0.11630575273E+03  0.11771335673E+03  0.00000000000E+00 0.  1.
</event>
<event>
12    1  0.1039610E+000  0.2142271E+03  0.7818608E-02  0.1138539E+00
         21   -1    0    0  501  502  0.00000000000E+00  0.00000000000E+00  0.25266039282E+03  0.25266039282E+03  0.00000000000E+00 0. -1.
         21   -1    0    0  502  503 -0.00000000000E+00 -0.00000000000E+00 -0.18042868215E+03  0.18042868215E+03  0.00000000000E+00 0. -1.
         -6    2    1    2    0  503 -0.11341078024E+03  0.60164792001E+02  0.36195050406E+02  0.21585217516E+03  0.16970643057E+03 0.  0.
        -24    2    3    3    0    0 -0.29838398860E+02 -0.16223915459E+02  0.52194000566E+02  0.10140728028E+03  0.80035475383E+02 0.  0.
          6    2    1    2  501    0  0.11341078024E+03 -0.60164792001E+02  0.36036660255E+02  0.21723689981E+03  0.17149758740E+03 0.  0.
         24    2    5    5    0    0  0.20161916094E+02  0.10803857609E+02 -0.21617168580E+02  0.86554254167E+02  0.80629465688E+02 0.  0.
          5    1    5    5  501    0  0.93248864150E+02 -0.70968649610E+02  0.57653828834E+02  0.13068264564E+03  0.47000000000E+01 0. -1.
        -11    1    6    6    0    0  0.45847697346E+02 -0.12853729706E+02 -0.49864713805E+01  0.47875824966E+02  0.00000000000E+00 0.  1.
         12    1    6    6    0    0 -0.25685781253E+02  0.23657587315E+02 -0.16630697199E+02  0.38678429201E+02  0.00000000000E+00 0. -1.
         -5    1    3    3    0  503 -0.83572381384E+02  0.76388707460E+02 -0.15998950160E+02  0.11444489488E+03  0.47000000000E+01 0.  1.
         13    1    4    4    0    0  0.27624035771E+02 -0.63225961679E+01  0.13206226746E+02  0.31264468642E+02  0.00000000000E+00 0. -1.
        -14    1    4    4    0    0 -0.57462434631E+02 -0.99013192912E+01  0.38987773821E+02  0.70142811641E+02  0.00000000000E+00 0.  1.
</event>
<event>
12    1  0.1039610E+000  0.1960401E+03  0.7818608E-02  0.1153143E+00
         21   -1    0    0  501  502  0.00000000000E+00  0.00000000000E+00  0.67691412713E+02  0.67691412713E+02  0.00000000000E+00 0.  1.
         21   -1    0    0  502  503 -0.00000000000E+00 -0.00000000000E+00 -0.90051181064E+03  0.90051181064E+03  0.00000000000E+00 0.  1.
         -6    2    1    2    0  503  0.88453671113E+02 -0.35759127132E+02 -0.12195742622E+03  0.23080380320E+03  0.17115494341E+03 0.  0.
        -24    2    3    3    0    0 -0.12780166783E+02 -0.33146344414E+02 -0.83078163116E+02  0.12222754581E+03  0.82313905007E+02 0.  0.
          6    2    1    2  501    0 -0.88453671113E+02  0.35759127132E+02 -0.71086297171E+03  0.73739942016E+03  0.17125703838E+03 0.  0.
         24    2    5    5    0    0 -0.13249635504E+02 -0.26928473478E+02 -0.19584838199E+03  0.21314041941E+03  0.78559239642E+02 0.  0.
          5    1    5    5  501    0 -0.75204035609E+02  0.62687600610E+02 -0.51501458972E+03  0.52425900074E+03  0.47000000000E+01 0. -1.
        -11    1    6    6    0    0 -0.22050042738E+02 -0.45279399958E+02 -0.18118990303E+03  0.18805905829E+03  0.00000000000E+00 0.  1.
         12    1    6    6    0    0  0.88004072338E+01  0.18350926481E+02 -0.14658478962E+02  0.25081361121E+02  0.00000000000E+00 0. -1.
         -5    1    3    3    0  503  0.10123383790E+03 -0.26127827182E+01 -0.38879263108E+02  0.10857625739E+03  0.47000000000E+01 0.  1.
         13    1    4    4    0    0  0.50241167778E+01 -0.23434391574E+02  0.10724881009E+02  0.26257104382E+02  0.00000000000E+00 0. -1.
        -14    1    4    4    0    0 -0.17804283561E+02 -0.97119528394E+01 -0.93803044126E+02  0.95970441430E+02  0.00000000000E+00 0.  1.
</event>
<event>
12    1  0.1039610E+000  0.2214079E+03  0.7818608E-02  0.1133288E+00
         21   -1    0    0  501  502  0.00000000000E+00  0.00000000000E+00  0.14216414390E+03  0.14216414390E+03  0.00000000000E+00 0.  1.
         21   -1    0    0  502  503 -0.00000000000E+00 -0.00000000000E+00 -0.38191293342E+03  0.38191293342E+03  0.00000000000E+00 0.  1.
         -6    2    1    2    0  503  0.13388456806E+03 -0.24664456997E+02 -0.34763363800E+02  0.22412043800E+03  0.17460832244E+03 0.  0.
        -24    2    3    3    0    0 -0.10967970069E+01 -0.25061229593E+02  0.79960597178E+01  0.82449747162E+02  0.78132935716E+02 0.  0.
          6    2    1    2  501    0 -0.13388456806E+03  0.24664456997E+02 -0.20498542572E+03  0.29995663932E+03  0.17152710489E+03 0.  0.
         24    2    5    5    0    0 -0.75574966874E+01  0.35626018792E+02 -0.11784644278E+03  0.14602815870E+03  0.78167193164E+02 0.  0.
          5    1    5    5  501    0 -0.12632707137E+03 -0.10961561795E+02 -0.87138982942E+02  0.15392848062E+03  0.47000000000E+01 0. -1.
        -13    1    6    6    0    0  0.24909337416E+01  0.29021355775E+02 -0.16111975125E+01  0.29172586436E+02  0.00000000000E+00 0.  1.
         14    1    6    6    0    0 -0.10048430429E+02  0.66046630170E+01 -0.11623524526E+03  0.11685557226E+03  0.00000000000E+00 0. -1.
         -5    1    3    3    0  503  0.13498136506E+03  0.39677259564E+00 -0.42759423518E+02  0.14167069084E+03  0.47000000000E+01 0.  1.
         11    1    4    4    0    0 -0.70592485114E+00 -0.33428203463E+02  0.38397959928E+02  0.50915090526E+02  0.00000000000E+00 0. -1.
        -12    1    4    4    0    0 -0.39087215578E+00  0.83669738702E+01 -0.30401900210E+02  0.31534656636E+02  0.00000000000E+00 0.  1.
</event>
<event>
12    1  0.1039610E+000  0.3565451E+03  0.7818608E-02  0.1060221E+00
         21   -1    0    0  503  502  0.00000000000E+00  0.00000000000E+00  0.64922775787E+02  0.64922775787E+02  0.00000000000E+00 0.  1.
         21   -1    0    0  501  503 -0.00000000000E+00 -0.00000000000E+00 -0.22086794895E+04  0.22086794895E+04  0.00000000000E+00 0. -1.
          6    2    1    2  501    0 -0.23202999988E+03  0.20284398618E+03 -0.68169594010E+03  0.76930733217E+03  0.17927859048E+03 0.  0.
         24    2    3    3    0    0 -0.22732778009E+03  0.18632403856E+03 -0.68635720145E+03  0.75089980930E+03  0.79810705316E+02 0.  0.
         -6    2    1    2    0  502  0.23202999988E+03 -0.20284398618E+03 -0.14620607736E+04  0.15042949331E+04  0.17406302447E+03 0.  0.
        -24    2    5    5    0    0  0.13762857701E+03 -0.10984387878E+03 -0.56620673321E+03  0.59868066627E+03  0.82590389958E+02 0.  0.
          5    1    3    3  501    0 -0.47022197970E+01  0.16519947622E+02  0.46612613576E+01  0.18407522862E+02  0.47000000000E+01 0. -1.
        -13    1    4    4    0    0 -0.10196549387E+03  0.39703107830E+02 -0.29353381215E+03  0.31326569806E+03  0.00000000000E+00 0.  1.
         14    1    4    4    0    0 -0.12536228622E+03  0.14662093073E+03 -0.39282338931E+03  0.43763411124E+03  0.00000000000E+00 0. -1.
         -5    1    5    5    0  502  0.94401422873E+02 -0.93000107403E+02 -0.89585404042E+03  0.90561426687E+03  0.47000000000E+01 0.  1.
         11    1    6    6    0    0  0.58024155343E+02 -0.66875916099E+02 -0.39760949159E+03  0.40734812944E+03  0.00000000000E+00 0. -1.
        -12    1    6    6    0    0  0.79604421668E+02 -0.42967962678E+02 -0.16859724163E+03  0.19133253683E+03  0.00000000000E+00 0.  1.
</event>
<event>
12    1  0.1039610E+000  0.3140835E+03  0.7818608E-02  0.1078465E+00
         21   -1    0    0  503  502  0.00000000000E+00  0.00000000000E+00  0.16255086203E+03  0.16255086203E+03  0.00000000000E+00 0. -1.
         21   -1    0    0  501  503 -0.00000000000E+00 -0.00000000000E+00 -0.62278961041E+03  0.62278961041E+03  0.00000000000E+00 0.  1.
          6    2    1    2  501    0  0.26103859917E+03 -0.30961020590E+02 -0.29496465081E+03  0.43087421721E+03  0.17189738443E+03 0.  0.
         24    2    3    3    0    0  0.37772921468E+02 -0.23151486938E+02 -0.10092489061E+03  0.13493153662E+03  0.77832519466E+02 0.  0.
         -6    2    1    2    0  502 -0.26103859917E+03  0.30961020590E+02 -0.16527409757E+03  0.35446625523E+03  0.17097094407E+03 0.  0.
        -24    2    5    5    0    0 -0.96394092364E+02 -0.29487197645E+02 -0.28890761900E+02  0.13224045799E+03  0.80570135526E+02 0.  0.
          5    1    3    3  501    0  0.22326567770E+03 -0.78095336514E+01 -0.19403976021E+03  0.29594268059E+03  0.47000000000E+01 0. -1.
        -11    1    4    4    0    0  0.10743222422E+02  0.55429505264E+01  0.10952355497E+02  0.16312425309E+02  0.00000000000E+00 0.  1.
         12    1    4    4    0    0  0.27029699046E+02 -0.28694437465E+02 -0.11187724610E+03  0.11861911131E+03  0.00000000000E+00 0. -1.
         -5    1    5    5    0  502 -0.16464450681E+03  0.60448218235E+02 -0.13638333567E+03  0.22222579724E+03  0.47000000000E+01 0.  1.
         13    1    6    6    0    0 -0.42929061595E+02 -0.81001765693E+01  0.27518132058E+02  0.51631044748E+02  0.00000000000E+00 0. -1.
        -14    1    6    6    0    0 -0.53465030769E+02 -0.21387021076E+02 -0.56408893958E+02  0.80609413242E+02  0.00000000000E+00 0.  1.
</event>
<event>
12    1  0.1039610E+000  0.3475639E+03  0.7818608E-02  0.1063694E+00
         21   -1    0    0  501  502  0.00000000000E+00  0.00000000000E+00  0.29800969389E+03  0.29800969389E+03  0.00000000000E+00 0.  1.
         21   -1    0    0  502  503 -0.00000000000E+00 -0.00000000000E+00 -0.40973136567E+03  0.40973136567E+03  0.00000000000E+00 0.  1.
         -6    2    1    2    0  503  0.14495398708E+03 -0.26256930783E+03 -0.15898461666E+02  0.34720987454E+03  0.17420572928E+03 0.  0.
        -24    2    3    3    0    0  0.66233292022E+02 -0.23844568767E+03 -0.35636349683E+02  0.26241263931E+03  0.79669623508E+02 0.  0.
          6    2    1    2  501    0 -0.14495398708E+03  0.26256930783E+03 -0.95823210111E+02  0.36053118501E+03  0.17563128420E+03 0.  0.
         24    2    5    5    0    0 -0.52550326860E+02  0.19921016539E+03 -0.13307813889E+02  0.22130583543E+03  0.79705382740E+02 0.  0.
          5    1    5    5  501    0 -0.92403660220E+02  0.63359142434E+02 -0.82515396222E+02  0.13922534958E+03  0.47000000000E+01 0. -1.
        -13    1    6    6    0    0  0.42596882324E+01 -0.18922669858E+01  0.10004378266E+02  0.11036901860E+02  0.00000000000E+00 0.  1.
         14    1    6    6    0    0 -0.56810015092E+02  0.20110243238E+03 -0.23312192154E+02  0.21026893357E+03  0.00000000000E+00 0. -1.
         -5    1    3    3    0  503  0.78720695058E+02 -0.24123620160E+02  0.19737888017E+02  0.84797235235E+02  0.47000000000E+01 0.  1.
         13    1    4    4    0    0  0.57158867464E+02 -0.11145021524E+03 -0.48780674759E+02  0.13441666875E+03  0.00000000000E+00 0. -1.
        -14    1    4    4    0    0  0.90744245576E+01 -0.12699547243E+03  0.13144325076E+02  0.12799597056E+03  0.00000000000E+00 0.  1.
</event>
<event>
12    1  0.1039610E+000  0.1757039E+03  0.7818608E-02  0.1174014E+00
         21   -1    0    0  501  502  0.00000000000E+00  0.00000000000E+00  0.30931150741E+03  0.30931150741E+03  0.00000000000E+00 0.  1.
         21   -1    0    0  502  503 -0.00000000000E+00 -0.00000000000E+00 -0.13458904092E+03  0.13458904092E+03  0.00000000000E+00 0.  1.
         -6    2    1    2    0  503  0.37327310665E+02 -0.61339317988E+01  0.20843594137E+03  0.27261221030E+03  0.17158357237E+03 0.  0.
        -24    2    3    3    0    0  0.26517514143E+02 -0.46427689162E+01  0.23154087241E+03  0.24663138840E+03  0.80567563498E+02 0.  0.
          6    2    1    2  501    0 -0.37327310665E+02  0.61339317988E+01 -0.33713474871E+02  0.17128833803E+03  0.16362195182E+03 0.  0.
         24    2    5    5    0    0  0.23315829801E+01 -0.80808057824E+01  0.39313748796E+02  0.86849294891E+02  0.76983722159E+02 0.  0.
          5    1    5    5  501    0 -0.39658893645E+02  0.14214737581E+02 -0.73027223667E+02  0.84439043139E+02  0.47000000000E+01 0. -1.
        -13    1    6    6    0    0  0.34177464228E+02 -0.16427627494E+02  0.33125778277E+01  0.38064933706E+02  0.00000000000E+00 0.  1.
         14    1    6    6    0    0 -0.31845881248E+02  0.83468217118E+01  0.36001170968E+02  0.48784361185E+02  0.00000000000E+00 0. -1.
         -5    1    3    3    0  503  0.10809796522E+02 -0.14911628827E+01 -0.23104931047E+02  0.25980821893E+02  0.47000000000E+01 0.  1.
         13    1    4    4    0    0  0.39106051422E+02 -0.34497669158E+02  0.15415720447E+03  0.16273848999E+03  0.00000000000E+00 0. -1.
        -14    1    4    4    0    0 -0.12588537279E+02  0.29854900242E+02  0.77383667943E+02  0.83892898410E+02  0.00000000000E+00 0.  1.
</event>
<event>
12    1  0.1039610E+000  0.1741828E+03  0.7818608E-02  0.1173905E+00
         21   -1    0    0  501  502  0.00000000000E+00  0.00000000000E+00  0.41401139837E+03  0.41401139837E+03  0.00000000000E+00 0. -1.
         21   -1    0    0  502  503 -0.00000000000E+00 -0.00000000000E+00 -0.12202208400E+03  0.12202208400E+03  0.00000000000E+00 0.  1.
         -6    2    1    2    0  503 -0.16890762808E+02  0.28586499278E+02 -0.24744291048E+02  0.17456448454E+03  0.16958181953E+03 0.  0.
        -24    2    3    3    0    0 -0.69681667195E+02  0.45375530183E+02 -0.30061622699E+02  0.11871544551E+03  0.79216048629E+02 0.  0.
          6    2    1    2  501    0  0.16890762808E+02 -0.28586499278E+02  0.31673360542E+03  0.36146899784E+03  0.17098881187E+03 0.  0.
         24    2    5    5    0    0  0.11447713158E+02 -0.45010023795E+02  0.77749810787E+02  0.12181361391E+03  0.81465152541E+02 0.  0.
          5    1    5    5  501    0  0.54430496508E+01  0.16423524517E+02  0.23898379463E+03  0.23965538393E+03  0.47000000000E+01 0. -1.
        -13    1    6    6    0    0  0.28519767575E+02 -0.61665906593E+02  0.67757983963E+02  0.95954184741E+02  0.00000000000E+00 0.  1.
         14    1    6    6    0    0 -0.17072054417E+02  0.16655882799E+02  0.99918268233E+01  0.25859429172E+02  0.00000000000E+00 0. -1.
         -5    1    3    3    0  503  0.52790904387E+02 -0.16789030906E+02  0.53173316508E+01  0.55849039030E+02  0.47000000000E+01 0.  1.
         13    1    4    4    0    0  0.31177845266E+00  0.29869842715E+02 -0.36000270467E+02  0.46779527395E+02  0.00000000000E+00 0. -1.
        -14    1    4    4    0    0 -0.69993445648E+02  0.15505687468E+02  0.59386477673E+01  0.71935918113E+02  0.00000000000E+00 0.  1.
</event>
<event>
12    1  0.1039610E+000  0.1848412E+03  0.7818608E-02  0.1166112E+00
         21   -1    0    0  503  502  0.00000000000E+00  0.00000000000E+00  0.10213869427E+04  0.10213869427E+04  0.00000000000E+00 0.  1.
         21   -1    0    0  501  503 -0.00000000000E+00 -0.00000000000E+00 -0.33038059179E+02  0.33038059179E+02  0.00000000000E+00 0.  1.
          6    2    1    2  501    0 -0.23243586803E+02 -0.20377509566E+01  0.38940663572E+03  0.43104966013E+03  0.18336265922E+03 0.  0.
         24    2    3    3    0    0 -0.23079091785E+02  0.53013894272E+02  0.11645909383E+03  0.15256597780E+03  0.79815660005E+02 0.  0.
         -6    2    1    2    0  502  0.23243586803E+02  0.20377509566E+01  0.59894224780E+03  0.62337534175E+03  0.17123254289E+03 0.  0.
        -24    2    5    5    0    0  0.30951615662E+01  0.12520039826E+02  0.59434252587E+03  0.59973036636E+03  0.79165288184E+02 0.  0.
          5    1    3    3  501    0 -0.16449501806E+00 -0.55051645229E+02  0.27294754189E+03  0.27848368233E+03  0.47000000000E+01 0. -1.
        -13    1    4    4    0    0  0.28697619030E+02  0.94413756960E+01  0.44498153099E+02  0.53784556727E+02  0.00000000000E+00 0.  1.
         14    1    4    4    0    0 -0.51776710815E+02  0.43572518576E+02  0.71960940731E+02  0.98781421071E+02  0.00000000000E+00 0. -1.
         -5    1    5    5    0  502  0.20148425237E+02 -0.10482288869E+02  0.45997219317E+01  0.23644975393E+02  0.47000000000E+01 0.  1.
         11    1    6    6    0    0  0.16256896150E+02 -0.33620633957E+01  0.24973101595E+02  0.29987429800E+02  0.00000000000E+00 0. -1.
        -12    1    6    6    0    0 -0.13161734584E+02  0.15882103221E+02  0.56936942427E+03  0.56974293656E+03  0.00000000000E+00 0.  1.
</event>
<event>
12    1  0.1039610E+000  0.1730211E+03  0.7818608E-02  0.1175173E+00
         21   -1    0    0  501  502  0.00000000000E+00  0.00000000000E+00  0.39665510355E+03  0.39665510355E+03  0.00000000000E+00 0. -1.
         21   -1    0    0  502  503 -0.00000000000E+00 -0.00000000000E+00 -0.89819724570E+02  0.89819724570E+02  0.00000000000E+00 0. -1.
         -6    2    1    2    0  503  0.10658290579E+00  0.12347528698E+02  0.25249328150E+03  0.30512057112E+03  0.17086027300E+03 0.  0.
        -24    2    3    3    0    0  0.26575046429E+02  0.66266817487E+02  0.19179041848E+03  0.21959398552E+03  0.79626814976E+02 0.  0.
          6    2    1    2  501    0 -0.10658290579E+00 -0.12347528698E+02  0.54342097479E+02  0.18135425700E+03  0.17257992395E+03 0.  0.
         24    2    5    5    0    0  0.22576056014E+01  0.13612309629E+02 -0.33026357774E+02  0.90058914480E+02  0.82640643832E+02 0.  0.
          5    1    5    5  501    0 -0.23641885072E+01 -0.25959838327E+02  0.87368455253E+02  0.91295342524E+02  0.47000000000E+01 0. -1.
        -11    1    6    6    0    0  0.11480640923E+02 -0.30510232888E+02  0.24585055324E+01  0.32691339470E+02  0.00000000000E+00 0.  1.
         12    1    6    6    0    0 -0.92230353215E+01  0.44122542517E+02 -0.35484863306E+02  0.57367575010E+02  0.00000000000E+00 0. -1.
         -5    1    3    3    0  503 -0.26468463523E+02 -0.53919288789E+02  0.60702863016E+02  0.85526585592E+02  0.47000000000E+01 0.  1.
         11    1    4    4    0    0 -0.17711793658E+02  0.33164874421E+02  0.28448722965E+02  0.47148132182E+02  0.00000000000E+00 0. -1.
        -12    1    4    4    0    0  0.44286840086E+02  0.33101943066E+02  0.16334169552E+03  0.17244585334E+03  0.00000000000E+00 0.  1.
</event>
<event>
12    1  0.1039610E+000  0.1840449E+03  0.7818608E-02  0.1164419E+00
         21   -1    0    0  501  502  0.00000000000E+00  0.00000000000E+00  0.79234375428E+03  0.79234375428E+03  0.00000000000E+00 0.  1.
         21   -1    0    0  502  503 -0.00000000000E+00 -0.00000000000E+00 -0.60568106084E+02  0.60568106084E+02  0.00000000000E+00 0.  1.
         -6    2    1    2    0  503  0.44090850844E+02 -0.20708506983E+02  0.59878580001E+03  0.62584621153E+03  0.17540296695E+03 0.  0.
        -24    2    3    3    0    0  0.23843073200E+02  0.52715636185E+02  0.25225043225E+03  0.27100832122E+03  0.80422628410E+02 0.  0.
          6    2    1    2  501    0 -0.44090850844E+02  0.20708506983E+02  0.13298984819E+03  0.22706564883E+03  0.17748144626E+03 0.  0.
         24    2    5    5    0    0 -0.63841513476E+02  0.26061004173E+02  0.14632629435E+02  0.10686057767E+03  0.80312853484E+02 0.  0.
          5    1    5    5  501    0  0.19750662632E+02 -0.53524971909E+01  0.11835721876E+03  0.12020507116E+03  0.47000000000E+01 0. -1.
        -11    1    6    6    0    0  0.45321487711E+01 -0.15309708761E+02 -0.14728298255E+02  0.21722116019E+02  0.00000000000E+00 0.  1.
         12    1    6    6    0    0 -0.68373662247E+02  0.41370712934E+02  0.29360927690E+02  0.85138461653E+02  0.00000000000E+00 0. -1.
         -5    1    3    3    0  503  0.20247777644E+02 -0.73424143167E+02  0.34653536775E+03  0.35483789032E+03  0.47000000000E+01 0.  1.
         11    1    4    4    0    0  0.15604815172E+02  0.59784036805E+02  0.25269995023E+03  0.26014401042E+03  0.00000000000E+00 0. -1.
        -12    1    4    4    0    0  0.82382580286E+01 -0.70684006208E+01 -0.44951797553E+00  0.10864310797E+02  0.00000000000E+00 0.  1.
</event>
<event>
12    1  0.1039610E+000  0.3073426E+03  0.7818608E-02  0.1081660E+00
         21   -1    0    0  501  502  0.00000000000E+00  0.00000000000E+00  0.10173829311E+03  0.10173829311E+03  0.00000000000E+00 0.  1.
         21   -1    0    0  502  503 -0.00000000000E+00 -0.00000000000E+00 -0.14845737855E+04  0.14845737855E+04  0.00000000000E+00 0. -1.
         -6    2    1    2    0  503  0.21607156024E+02  0.25375220029E+03 -0.11774235460E+04  0.12168753761E+04  0.17205355541E+03 0.  0.
        -24    2    3    3    0    0  0.20058460654E+02  0.40018946720E+02 -0.30038275135E+03  0.31415341025E+03  0.80366099339E+02 0.  0.
          6    2    1    2  501    0 -0.21607156024E+02 -0.25375220029E+03 -0.20541194637E+03  0.36943670250E+03  0.17155862291E+03 0.  0.
         24    2    5    5    0    0 -0.81205734539E+02 -0.14638546151E+03 -0.10508059403E+03  0.21079220237E+03  0.73269002145E+02 0.  0.
          5    1    5    5  501    0  0.59598578515E+02 -0.10736673878E+03 -0.10033135234E+03  0.15864450012E+03  0.47000000000E+01 0. -1.
        -13    1    6    6    0    0 -0.28156250151E+02 -0.20433461273E+02  0.52041758443E+01  0.35176472370E+02  0.00000000000E+00 0.  1.
         14    1    6    6    0    0 -0.53049484388E+02 -0.12595200024E+03 -0.11028476988E+03  0.17561573000E+03  0.00000000000E+00 0. -1.
         -5    1    3    3    0  503  0.15486953700E+01  0.21373325357E+03 -0.87704079467E+03  0.90272196586E+03  0.47000000000E+01 0.  1.
         11    1    4    4    0    0  0.19610589132E+02  0.63827386973E+02 -0.19505212043E+03  0.20616459496E+03  0.00000000000E+00 0. -1.
        -12    1    4    4    0    0  0.44787152208E+00 -0.23808440252E+02 -0.10533063092E+03  0.10798881528E+03  0.00000000000E+00 0.  1.
</event>
<event>
12    1  0.1039610E+000  0.1874045E+03  0.7818608E-02  0.1160955E+00
         21   -1    0    0  501  502  0.00000000000E+00  0.00000000000E+00  0.27005993204E+04  0.27005993204E+04  0.00000000000E+00 0. -1.
         21   -1    0    0  502  503 -0.00000000000E+00 -0.00000000000E+00 -0.14067178417E+02  0.14067178417E+02  0.00000000000E+00 0. -1.
         -6    2    1    2    0  503  0.72578157282E+02 -0.17110653480E+02  0.96522532153E+03  0.98324989528E+03  0.17193042744E+03 0.  0.
        -24    2    3    3    0    0  0.36536077642E+02  0.57240189284E+02  0.53109231876E+03  0.54129895522E+03  0.79587584741E+02 0.  0.
          6    2    1    2  501    0 -0.72578157282E+02  0.17110653480E+02  0.17213068204E+04  0.17314166035E+04  0.17130651321E+03 0.  0.
         24    2    5    5    0    0 -0.70764330118E+02 -0.44932254007E+02  0.13472066030E+04  0.13521730472E+04  0.79873778394E+02 0.  0.
          5    1    5    5  501    0 -0.18138271634E+01  0.62042907486E+02  0.37410021741E+03  0.37924355631E+03  0.47000000000E+01 0. -1.
        -13    1    6    6    0    0 -0.20638310515E+02  0.15528088362E+02  0.65789836227E+03  0.65840513096E+03  0.00000000000E+00 0.  1.
         14    1    6    6    0    0 -0.50126019603E+02 -0.60460342368E+02  0.68930824074E+03  0.69376791623E+03  0.00000000000E+00 0. -1.
         -5    1    3    3    0  503  0.36042079640E+02 -0.74350842763E+02  0.43413300277E+03  0.44195094006E+03  0.47000000000E+01 0.  1.
         11    1    4    4    0    0 -0.17543775998E+02  0.87331725011E+01  0.36764219711E+02  0.41661255732E+02  0.00000000000E+00 0. -1.
        -12    1    4    4    0    0  0.54079853640E+02  0.48507016783E+02  0.49432809905E+03  0.49963769949E+03  0.00000000000E+00 0.  1.
</event>
<event>
12    1  0.1039610E+000  0.1787272E+03  0.7818608E-02  0.1169785E+00
         21   -1    0    0  501  502  0.00000000000E+00  0.00000000000E+00  0.84964366530E+02  0.84964366530E+02  0.00000000000E+00 0. -1.
         21   -1    0    0  502  503 -0.00000000000E+00 -0.00000000000E+00 -0.63846824368E+03  0.63846824368E+03  0.00000000000E+00 0. -1.
         -6    2    1    2    0  503  0.46582078302E+02 -0.50361245741E+01 -0.43407469517E+02  0.18392290043E+03  0.17247658485E+03 0.  0.
        -24    2    3    3    0    0 -0.11593320300E+02 -0.53988875708E+02  0.93928582743E+00  0.95778283149E+02  0.78252114919E+02 0.  0.
          6    2    1    2  501    0 -0.46582078302E+02  0.50361245741E+01 -0.51009640764E+03  0.53950970978E+03  0.16934322926E+03 0.  0.
         24    2    5    5    0    0 -0.11576096926E+02 -0.18787461076E+02 -0.10450619002E+03  0.13168806176E+03  0.77027444104E+02 0.  0.
          5    1    5    5  501    0 -0.35005981376E+02  0.23823585650E+02 -0.40559021762E+03  0.40782164802E+03  0.47000000000E+01 0. -1.
        -13    1    6    6    0    0  0.32414708111E+02 -0.32684488876E+00 -0.41769169933E+02  0.52872333847E+02  0.00000000000E+00 0.  1.
         14    1    6    6    0    0 -0.43990805037E+02 -0.18460616188E+02 -0.62737020082E+02  0.78815727914E+02  0.00000000000E+00 0. -1.
         -5    1    3    3    0  503  0.58175398602E+02  0.48952751134E+02 -0.44346755344E+02  0.88144617281E+02  0.47000000000E+01 0.  1.
         13    1    4    4    0    0 -0.32197523066E+01 -0.73619218346E+02  0.57079690011E+01  0.73910330976E+02  0.00000000000E+00 0. -1.
        -14    1    4    4    0    0 -0.83735679934E+01  0.19630342638E+02 -0.47686831737E+01  0.21867952173E+02  0.00000000000E+00 0.  1.
</event>
<event>
12    1  0.1039610E+000  0.2138534E+03  0.7818608E-02  0.1138689E+00
         21   -1    0    0  501  502  0.00000000000E+00  0.00000000000E+00  0.71232515607E+03  0.71232515607E+03  0.00000000000E+00 0.  1.
         21   -1    0    0  502  503 -0.00000000000E+00 -0.00000000000E+00 -0.64322579923E+02  0.64322579923E+02  0.00000000000E+00 0.  1.
         -6    2    1    2    0  503  0.30738914224E+02 -0.12258187659E+03  0.29656222487E+03  0.36562606907E+03  0.17251687410E+03 0.  0.
        -24    2    3    3    0    0 -0.21597900017E+02 -0.13085153550E+03  0.25378915523E+03  0.29736806683E+03  0.80188766245E+02 0.  0.
          6    2    1    2  501    0 -0.30738914224E+02  0.12258187659E+03  0.35144035127E+03  0.41102166692E+03  0.17163127004E+03 0.  0.
         24    2    5    5    0    0 -0.37944175269E+02  0.53037496059E+01  0.10754484055E+03  0.14025759063E+03  0.81476430974E+02 0.  0.
          5    1    5    5  501    0  0.72052610448E+01  0.11727812699E+03  0.24389551072E+03  0.27076407629E+03  0.47000000000E+01 0. -1.
        -11    1    6    6    0    0  0.22726212635E+02 -0.91358630443E+01  0.15202205695E+02  0.28827968924E+02  0.00000000000E+00 0.  1.
         12    1    6    6    0    0 -0.60670387904E+02  0.14439612650E+02  0.92342634853E+02  0.11142962171E+03  0.00000000000E+00 0. -1.
         -5    1    3    3    0  503  0.52336814241E+02  0.82696589053E+01  0.42773069644E+02  0.68258002242E+02  0.47000000000E+01 0.  1.
         13    1    4    4    0    0  0.10060303765E+02 -0.68643450146E+02  0.19199345877E+03  0.20414362877E+03  0.00000000000E+00 0. -1.
        -14    1    4    4    0    0 -0.31658203782E+02 -0.62208085352E+02  0.61795696461E+02  0.93224438056E+02  0.00000000000E+00 0.  1.
</event>
<event>
12    1  0.2472698E+000  0.2328976E+03  0.7818608E-02  0.1128096E+00
         21   -1    0    0  503  502  0.00000000000E+00  0.00000000000E+00  0.11677600112E+04  0.11677600112E+04  0.00000000000E+00 0.  1.
         21   -1    0    0  501  503 -0.00000000000E+00 -0.00000000000E+00 -0.51729069452E+03  0.51729069452E+03  0.00000000000E+00 0.  1.
          6    2    1    2  501    0  0.12082507974E+03 -0.43392166363E+02  0.11333299314E+04  0.11570125341E+04  0.19431852872E+03 0.  0.
         24    2    3    3    0    0  0.65114211612E+02  0.16898794146E+02  0.95606885593E+03  0.96160966914E+03  0.78102936662E+02 0.  0.
         -6    2    1    2    0  502 -0.12082507974E+03  0.43392166363E+02 -0.48286061477E+03  0.52803817160E+03  0.17084600485E+03 0.  0.
        -24    2    5    5    0    0 -0.41735963764E+02  0.57570458603E+02 -0.14403366685E+03  0.17978265783E+03  0.80745640706E+02 0.  0.
          5    1    3    3  501    0  0.55710868125E+02 -0.60290960509E+02  0.17726107547E+03  0.19540286493E+03  0.47000000000E+01 0. -1.
        -13    1    4    4    0    0  0.16241059467E+01 -0.24802333545E+02  0.33327790035E+03  0.33420345948E+03  0.00000000000E+00 0.  1.
         14    1    4    4    0    0  0.63490105665E+02  0.41701127691E+02  0.62279095558E+03  0.62740620966E+03  0.00000000000E+00 0. -1.
         -5    1    5    5    0  502 -0.79089115973E+02 -0.14178292240E+02 -0.33882694792E+03  0.34825551377E+03  0.47000000000E+01 0.  1.
         11    1    6    6    0    0 -0.18714647993E+02  0.16886270673E+02  0.31045570425E+01  0.25397292398E+02  0.00000000000E+00 0. -1.
        -12    1    6    6    0    0 -0.23021315771E+02  0.40684187930E+02 -0.14713822389E+03  0.15438536543E+03  0.00000000000E+00 0.  1.
</event>
<event>
12    1  0.1039610E+000  0.1722732E+03  0.7818608E-02  0.1175659E+00
         21   -1    0    0  501  502  0.00000000000E+00  0.00000000000E+00  0.47593150276E+03  0.47593150276E+03  0.00000000000E+00 0. -1.
         21   -1    0    0  502  503 -0.00000000000E+00 -0.00000000000E+00 -0.14740170617E+03  0.14740170617E+03  0.00000000000E+00 0. -1.
         -6    2    1    2    0  503 -0.66114307873E+01 -0.13738541732E+02  0.40118851187E+03  0.43636439583E+03  0.17096550923E+03 0.  0.
        -24    2    3    3    0    0 -0.11515930974E+02 -0.24967301547E+02  0.41093219012E+03  0.42001910798E+03  0.82430597348E+02 0.  0.
          6    2    1    2  501    0  0.66114307873E+01  0.13738541732E+02 -0.72658715282E+02  0.18696881310E+03  0.17159717253E+03 0.  0.
         24    2    5    5    0    0 -0.15761128216E+02 -0.38038160929E+02  0.59180463846E+01  0.90129999558E+02  0.79956730159E+02 0.  0.
          5    1    5    5  501    0  0.22372559003E+02  0.51776702661E+02 -0.78576761667E+02  0.96838813545E+02  0.47000000000E+01 0. -1.
        -13    1    6    6    0    0  0.10677935015E+02  0.21932560274E+02  0.13673098072E+01  0.24432049289E+02  0.00000000000E+00 0.  1.
         14    1    6    6    0    0 -0.26439063230E+02 -0.59970721203E+02  0.45507365773E+01  0.65697950269E+02  0.00000000000E+00 0. -1.
         -5    1    3    3    0  503  0.49045001872E+01  0.11228759816E+02 -0.97436782499E+01  0.16345287851E+02  0.47000000000E+01 0.  1.
         11    1    4    4    0    0  0.25773386796E+02  0.66938483902E+01  0.25994561729E+03  0.26130594907E+03  0.00000000000E+00 0. -1.
        -12    1    4    4    0    0 -0.37289317770E+02 -0.31661149938E+02  0.15098657283E+03  0.15871315891E+03  0.00000000000E+00 0.  1.
</event>
<event>
12    1  0.1039610E+000  0.1787833E+03  0.7818608E-02  0.1169278E+00
         21   -1    0    0  503  502  0.00000000000E+00  0.00000000000E+00  0.40269206457E+02  0.40269206457E+02  0.00000000000E+00 0. -1.
         21   -1    0    0  501  503 -0.00000000000E+00 -0.00000000000E+00 -0.13119168402E+04  0.13119168402E+04  0.00000000000E+00 0. -1.
          6    2    1    2  501    0 -0.28477622022E+02 -0.31085011412E+02 -0.10641620894E+04  0.10790757318E+04  0.17374184766E+03 0.  0.
         24    2    3    3    0    0 -0.16179739829E+02 -0.70122253818E+02 -0.97544678590E+03  0.98126142165E+03  0.78731385357E+02 0.  0.
         -6    2    1    2    0  502  0.28477622022E+02  0.31085011412E+02 -0.20748554431E+03  0.27311031479E+03  0.17251591247E+03 0.  0.
        -24    2    5    5    0    0 -0.10713454472E+02  0.53243974076E+02 -0.51961827144E+02  0.11113291913E+03  0.81858385963E+02 0.  0.
          5    1    3    3  501    0 -0.12297882193E+02  0.39037242406E+02 -0.88715303496E+02  0.97814310178E+02  0.47000000000E+01 0. -1.
        -13    1    4    4    0    0 -0.48139824435E+02 -0.40426140957E+02 -0.54782105966E+03  0.55141602169E+03  0.00000000000E+00 0.  1.
         14    1    4    4    0    0  0.31960084606E+02 -0.29696112860E+02 -0.42762572624E+03  0.42984539996E+03  0.00000000000E+00 0. -1.
         -5    1    5    5    0  502  0.39191076494E+02 -0.22158962664E+02 -0.15552371717E+03  0.16197739566E+03  0.47000000000E+01 0.  1.
         13    1    6    6    0    0  0.16112290685E+02  0.35620475520E+02  0.10869618444E+02  0.40577984086E+02  0.00000000000E+00 0. -1.
        -14    1    6    6    0    0 -0.26825745156E+02  0.17623498556E+02 -0.62831445588E+02  0.70554935045E+02  0.00000000000E+00 0.  1.
</event>
<event>
12    1  0.1039610E+000  0.1774761E+03  0.7818608E-02  0.1170908E+00
         21   -1    0    0  503  502  0.00000000000E+00  0.00000000000E+00  0.46035604349E+03  0.46035604349E+03  0.00000000000E+00 0. -1.
         21   -1    0    0  501  503 -0.00000000000E+00 -0.00000000000E+00 -0.67949020466E+02  0.67949020466E+02  0.00000000000E+00 0. -1.
          6    2    1    2  501    0 -0.16014063527E+02  0.28562123404E+02  0.21784863977E+03  0.27937052941E+03  0.17180691991E+03 0.  0.
         24    2    3    3    0    0 -0.39877766721E+02  0.14125255936E+02  0.38128158123E+02  0.97438011711E+02  0.79061055840E+02 0.  0.
         -6    2    1    2    0  502  0.16014063527E+02 -0.28562123404E+02  0.17455838325E+03  0.24893453454E+03  0.17442914952E+03 0.  0.
        -24    2    5    5    0    0 -0.19867353042E+02 -0.79405021641E+01  0.18795561808E+03  0.20518178355E+03  0.79463744197E+02 0.  0.
          5    1    3    3  501    0  0.23863703194E+02  0.14436867469E+02  0.17972048165E+03  0.18193251770E+03  0.47000000000E+01 0. -1.
        -11    1    4    4    0    0 -0.22610144978E+02  0.46388135945E+02  0.13541619159E+02  0.53352162673E+02  0.00000000000E+00 0.  1.
         12    1    4    4    0    0 -0.17267621742E+02 -0.32262880010E+02  0.24586538964E+02  0.44085849038E+02  0.00000000000E+00 0. -1.
         -5    1    5    5    0  502  0.35881416569E+02 -0.20621621240E+02 -0.13397234836E+02  0.43752750986E+02  0.47000000000E+01 0.  1.
         13    1    6    6    0    0 -0.28632850417E+02  0.28237205994E+02  0.13188411156E+03  0.13787892807E+03  0.00000000000E+00 0. -1.
        -14    1    6    6    0    0  0.87654973749E+01 -0.36177708158E+02  0.56071506527E+02  0.67302855482E+02  0.00000000000E+00 0.  1.
</event>
<event>
12    1  0.1039610E+000  0.2249979E+03  0.7818608E-02  0.1130791E+00
         21   -1    0    0  503  502  0.00000000000E+00  0.00000000000E+00  0.19941377635E+03  0.19941377635E+03  0.00000000000E+00 0. -1.
         21   -1    0    0  501  503 -0.00000000000E+00 -0.00000000000E+00 -0.38230842606E+03  0.38230842606E+03  0.00000000000E+00 0. -1.
          6    2    1    2  501    0  0.85907933454E+02  0.11289120262E+03 -0.26193895347E+03  0.34324357342E+03  0.17052723738E+03 0.  0.
         24    2    3    3    0    0 -0.36681767830E+01  0.98022954651E+02 -0.18635036176E+03  0.22500369216E+03  0.79235402440E+02 0.  0.
         -6    2    1    2    0  502 -0.85907933454E+02 -0.11289120262E+03  0.79044303761E+02  0.23847862899E+03  0.17464093984E+03 0.  0.
        -24    2    5    5    0    0 -0.93348567736E+02 -0.10894593223E+03  0.59213377166E+01  0.16472236580E+03  0.80716939400E+02 0.  0.
          5    1    3    3  501    0  0.89576110237E+02  0.14868247972E+02 -0.75588591709E+02  0.11823988126E+03  0.47000000000E+01 0. -1.
        -11    1    4    4    0    0  0.20373421218E+02 -0.41002318198E+01 -0.37866581143E+02  0.43194515399E+02  0.00000000000E+00 0.  1.
         12    1    4    4    0    0 -0.24041598001E+02  0.10212318647E+03 -0.14848378062E+03  0.18180917676E+03  0.00000000000E+00 0. -1.
         -5    1    5    5    0  502  0.74406342820E+01 -0.39452703971E+01  0.73122966044E+02  0.73756263193E+02  0.47000000000E+01 0.  1.
         11    1    6    6    0    0 -0.11736002754E+02 -0.49475324701E+02 -0.28183765569E+02  0.58136616315E+02  0.00000000000E+00 0. -1.
        -12    1    6    6    0    0 -0.81612564982E+02 -0.59470607525E+02  0.34105103285E+02  0.10658574948E+03  0.00000000000E+00 0.  1.
</event>
<event>
12    1  0.1039610E+000  0.2433154E+03  0.7818608E-02  0.1118861E+00
         21   -1    0    0  503  502  0.00000000000E+00  0.00000000000E+00  0.16384750362E+03  0.16384750362E+03  0.00000000000E+00 0.  1.
         21   -1    0    0  501  503 -0.00000000000E+00 -0.00000000000E+00 -0.50587306536E+03  0.50587306536E+03  0.00000000000E+00 0. -1.
          6    2    1    2  501    0 -0.15814769481E+03 -0.33637355827E+02 -0.35862510982E+03  0.43337553498E+03  0.18182469537E+03 0.  0.
         24    2    3    3    0    0 -0.18323661028E+03 -0.23322166981E+02 -0.24680696145E+03  0.31821805539E+03  0.78927027924E+02 0.  0.
         -6    2    1    2    0  502  0.15814769481E+03  0.33637355827E+02  0.16599548074E+02  0.23634503401E+03  0.17158457106E+03 0.  0.
        -24    2    5    5    0    0  0.17076285335E+02 -0.11036879576E+02  0.29194946996E+02  0.87759489785E+02  0.80224503025E+02 0.  0.
          5    1    3    3  501    0  0.25088915472E+02 -0.10315188846E+02 -0.11181814836E+03  0.11515747958E+03  0.47000000000E+01 0. -1.
        -13    1    4    4    0    0 -0.17210749677E+03 -0.32654223996E+02 -0.18520785156E+03  0.25492986696E+03  0.00000000000E+00 0.  1.
         14    1    4    4    0    0 -0.11129113514E+02  0.93320570144E+01 -0.61599109895E+02  0.63288188436E+02  0.00000000000E+00 0. -1.
         -5    1    5    5    0  502  0.14107140947E+03  0.44674235402E+02 -0.12595398922E+02  0.14858554423E+03  0.47000000000E+01 0.  1.
         11    1    6    6    0    0  0.11321158391E+02  0.16949233092E+02 -0.21463332640E+02  0.29599320562E+02  0.00000000000E+00 0. -1.
        -12    1    6    6    0    0  0.57551269438E+01 -0.27986112668E+02  0.50658279636E+02  0.58160169223E+02  0.00000000000E+00 0.  1.
</event>
<event>
12    1  0.1039610E+000  0.2233973E+03  0.7818608E-02  0.1131385E+00
         21   -1    0    0  503  502  0.00000000000E+00  0.00000000000E+00  0.25748896209E+03  0.25748896209E+03  0.00000000000E+00 0.  1.
         21   -1    0    0  501  503 -0.00000000000E+00 -0.00000000000E+00 -0.31961893128E+03  0.31961893128E+03  0.00000000000E+00 0. -1.
          6    2    1    2  501    0 -0.85018738418E+02  0.11450567253E+03  0.14999566844E+03  0.26908190090E+03  0.17194950979E+03 0.  0.
         24    2    3    3    0    0 -0.52972956090E+02  0.11409246555E+03  0.17333837624E+03  0.22915603319E+03  0.81505031127E+02 0.  0.
         -6    2    1    2    0  502  0.85018738418E+02 -0.11450567253E+03 -0.21212563763E+03  0.30802599247E+03  0.17188074638E+03 0.  0.
        -24    2    5    5    0    0  0.10637816374E+03 -0.21813424677E+02 -0.13594315795E+03  0.18606723685E+03  0.65941907930E+02 0.  0.
          5    1    3    3  501    0 -0.32045782328E+02  0.41320698119E+00 -0.23342707797E+02  0.39925867709E+02  0.47000000000E+01 0. -1.
        -11    1    4    4    0    0 -0.55738174175E+02  0.77556736149E+02  0.16640494880E+03  0.19186557369E+03  0.00000000000E+00 0.  1.
         12    1    4    4    0    0  0.27652180856E+01  0.36535729399E+02  0.69334274403E+01  0.37290459502E+02  0.00000000000E+00 0. -1.
         -5    1    5    5    0  502 -0.21359425321E+02 -0.92692247852E+02 -0.76182479682E+02  0.12195875562E+03  0.47000000000E+01 0.  1.
         11    1    6    6    0    0  0.10272844452E+03 -0.23128172737E+02 -0.85951718840E+02  0.13592550776E+03  0.00000000000E+00 0. -1.
        -12    1    6    6    0    0  0.36497192194E+01  0.13147480595E+01 -0.49991439107E+02  0.50141729097E+02  0.00000000000E+00 0.  1.
</event>
<event>
12    1  0.1039610E+000  0.1958054E+03  0.7818608E-02  0.1154764E+00
         21   -1    0    0  501  502  0.00000000000E+00  0.00000000000E+00  0.93623025217E+03  0.93623025217E+03  0.00000000000E+00 0. -1.
         21   -1    0    0  502  503 -0.00000000000E+00 -0.00000000000E+00 -0.39679815595E+02  0.39679815595E+02  0.00000000000E+00 0. -1.
         -6    2    1    2    0  503 -0.63685494307E+02  0.45363857614E+02  0.47754755279E+03  0.51613121022E+03  0.17951612523E+03 0.  0.
        -24    2    3    3    0    0 -0.11320780221E+02  0.86369911443E+02  0.37372549636E+03  0.39274292417E+03  0.83596268974E+02 0.  0.
          6    2    1    2  501    0  0.63685494307E+02 -0.45363857614E+02  0.41900288378E+03  0.45977885755E+03  0.17239332780E+03 0.  0.
         24    2    5    5    0    0  0.19008870605E+02  0.10615404813E+02  0.82350796875E+02  0.11556032791E+03  0.78092968059E+02 0.  0.
          5    1    5    5  501    0  0.44676623702E+02 -0.55979262427E+02  0.33665208691E+03  0.34421852964E+03  0.47000000000E+01 0. -1.
        -13    1    6    6    0    0 -0.18503424083E+02  0.17941598687E+02  0.71237268013E+02  0.75756359602E+02  0.00000000000E+00 0.  1.
         14    1    6    6    0    0  0.37512294688E+02 -0.73261938738E+01  0.11113528862E+02  0.39803968310E+02  0.00000000000E+00 0. -1.
         -5    1    3    3    0  503 -0.52364714086E+02 -0.41006053829E+02  0.10382205643E+03  0.12338828605E+03  0.47000000000E+01 0.  1.
         11    1    4    4    0    0 -0.46256210297E+02  0.38781345073E+02  0.21800874294E+03  0.22621105569E+03  0.00000000000E+00 0. -1.
        -12    1    4    4    0    0  0.34935430076E+02  0.47588566371E+02  0.15571675342E+03  0.16653186848E+03  0.00000000000E+00 0.  1.
</event>
<event>
12    1  0.1039610E+000  0.2157204E+03  0.7818608E-02  0.1137149E+00
         21   -1    0    0  501  502  0.00000000000E+00  0.00000000000E+00  0.12711768345E+03  0.12711768345E+03  0.00000000000E+00 0. -1.
         21   -1    0    0  502  503 -0.00000000000E+00 -0.00000000000E+00 -0.41985418996E+03  0.41985418996E+03  0.00000000000E+00 0. -1.
         -6    2    1    2    0  503 -0.13403512508E+02  0.12952613767E+03 -0.24457189007E+03  0.32611455702E+03  0.17198436091E+03 0.  0.
        -24    2    3    3    0    0  0.42401592994E+02  0.23745965191E+02 -0.13210648289E+03  0.16187627737E+03  0.79937728277E+02 0.  0.
          6    2    1    2  501    0  0.13403512508E+02 -0.12952613767E+03 -0.48164616446E+02  0.22085731639E+03  0.17175985979E+03 0.  0.
         24    2    5    5    0    0  0.41694241493E+02 -0.95942230364E+02  0.26482287766E+02  0.13412500127E+03  0.79654774248E+02 0.  0.
          5    1    5    5  501    0 -0.28290728985E+02 -0.33583907310E+02 -0.74646904212E+02  0.86732315115E+02  0.47000000000E+01 0. -1.
        -11    1    6    6    0    0  0.49112712726E+01 -0.82891528585E+02 -0.61312227210E+01  0.83262944872E+02  0.00000000000E+00 0.  1.
         12    1    6    6    0    0  0.36782970220E+02 -0.13050701779E+02  0.32613510487E+02  0.50862056402E+02  0.00000000000E+00 0. -1.
         -5    1    3    3    0  503 -0.55805105501E+02  0.10578017248E+03 -0.11246540719E+03  0.16423827966E+03  0.47000000000E+01 0.  1.
         11    1    4    4    0    0  0.10095299712E+02  0.46537449178E+02 -0.42070132396E+02  0.63541681534E+02  0.00000000000E+00 0. -1.
        -12    1    4    4    0    0  0.32306293282E+02 -0.22791483987E+02 -0.90036350490E+02  0.98334595832E+02  0.00000000000E+00 0.  1.
</event>
<event>
12    1  0.1039610E+000  0.1912036E+03  0.7818608E-02  0.1157535E+00
         21   -1    0    0  501  502  0.00000000000E+00  0.00000000000E+00  0.17636172855E+03  0.17636172855E+03  0.00000000000E+00 0. -1.
         21   -1    0    0  502  503 -0.00000000000E+00 -0.00000000000E+00 -0.21450277867E+03  0.21450277867E+03  0.00000000000E+00 0. -1.
         -6    2    1    2    0  503  0.73564038242E+02  0.37120447435E+02 -0.56680495916E+02  0.19876424558E+03  0.17177005375E+03 0.  0.
        -24    2    3    3    0    0  0.27847193227E+02  0.80742898755E+02 -0.59974197131E+01  0.11762355055E+03  0.80650162616E+02 0.  0.
          6    2    1    2  501    0 -0.73564038242E+02 -0.37120447435E+02  0.18539445795E+02  0.19210026165E+03  0.17253754413E+03 0.  0.
         24    2    5    5    0    0 -0.32331847179E+02 -0.66240325967E+00  0.74073504884E+02  0.11377144011E+03  0.80070402385E+02 0.  0.
          5    1    5    5  501    0 -0.41232191063E+02 -0.36458044175E+02 -0.55534059089E+02  0.78328821540E+02  0.47000000000E+01 0. -1.
        -13    1    6    6    0    0  0.21630147259E+02 -0.49055416651E+01  0.49668135829E+02  0.54395324489E+02  0.00000000000E+00 0.  1.
         14    1    6    6    0    0 -0.53961994437E+02  0.42431384055E+01  0.24405369055E+02  0.59376115618E+02  0.00000000000E+00 0. -1.
         -5    1    3    3    0  503  0.45716845015E+02 -0.43622451320E+02 -0.50683076203E+02  0.81140695035E+02  0.47000000000E+01 0.  1.
         11    1    4    4    0    0 -0.17762402101E+02  0.11028226195E+02  0.21407101041E+02  0.29923045908E+02  0.00000000000E+00 0. -1.
        -12    1    4    4    0    0  0.45609595328E+02  0.69714672559E+02 -0.27404520754E+02  0.87700504638E+02  0.00000000000E+00 0.  1.
</event>
<event>
12    1  0.1039610E+000  0.4179166E+03  0.7818608E-02  0.1037778E+00
         21   -1    0    0  501  502  0.00000000000E+00  0.00000000000E+00  0.21467591846E+03  0.21467591846E+03  0.00000000000E+00 0. -1.
         21   -1    0    0  502  503 -0.00000000000E+00 -0.00000000000E+00 -0.87966310077E+03  0.87966310077E+03  0.00000000000E+00 0. -1.
         -6    2    1    2    0  503 -0.32259727745E+03 -0.20232657229E+03 -0.48318355545E+03  0.63859033503E+03  0.17124900718E+03 0.  0.
        -24    2    3    3    0    0 -0.16933336776E+03 -0.39846627347E+02 -0.18730794806E+03  0.26784241047E+03  0.79960904744E+02 0.  0.
          6    2    1    2  501    0  0.32259727745E+03  0.20232657229E+03 -0.18180362686E+03  0.45574868421E+03  0.17218960232E+03 0.  0.
         24    2    5    5    0    0  0.33563771536E+03  0.19591513847E+03 -0.15720314513E+03  0.42679297310E+03  0.80024968585E+02 0.  0.
          5    1    5    5  501    0 -0.13040437905E+02  0.64114338162E+01 -0.24600481732E+02  0.28955711108E+02  0.47000000000E+01 0. -1.
        -11    1    6    6    0    0  0.13825839446E+03  0.37818268150E+02 -0.67815946773E+02  0.15857051328E+03  0.00000000000E+00 0.  1.
         12    1    6    6    0    0  0.19737932090E+03  0.15809687032E+03 -0.89387198357E+02  0.26822245982E+03  0.00000000000E+00 0. -1.
         -5    1    3    3    0  503 -0.15326390969E+03 -0.16247994494E+03 -0.29587560738E+03  0.37074792456E+03  0.47000000000E+01 0.  1.
         11    1    4    4    0    0 -0.11838146418E+02  0.17100768489E+02 -0.38726093442E+02  0.43957801433E+02  0.00000000000E+00 0. -1.
        -12    1    4    4    0    0 -0.15749522134E+03 -0.56947395836E+02 -0.14858185462E+03  0.22388460903E+03  0.00000000000E+00 0.  1.
</event>
<event>
12    1  0.1039610E+000  0.1901084E+03  0.7818608E-02  0.1159138E+00
         21   -1    0    0  501  502  0.00000000000E+00  0.00000000000E+00  0.14625713198E+04  0.14625713198E+04  0.00000000000E+00 0. -1.
         21   -1    0    0  502  503 -0.00000000000E+00 -0.00000000000E+00 -0.33152675100E+02  0.33152675100E+02  0.00000000000E+00 0. -1.
         -6    2    1    2    0  503  0.59274010238E+02  0.47631921824E+02  0.33234439018E+03  0.38287595951E+03  0.17423833799E+03 0.  0.
        -24    2    3    3    0    0  0.50246707489E+02  0.10298884324E+03  0.24222810077E+03  0.27662664629E+03  0.68676161720E+02 0.  0.
          6    2    1    2  501    0 -0.59274010238E+02 -0.47631921824E+02  0.10970742546E+04  0.11128480354E+04  0.17051868420E+03 0.  0.
         24    2    5    5    0    0  0.99758642703E+01 -0.69342667167E+01  0.28124166129E+03  0.29305735819E+03  0.81474788842E+02 0.  0.
          5    1    5    5  501    0 -0.69249874508E+02 -0.40697655108E+02  0.81583259326E+03  0.81979067723E+03  0.47000000000E+01 0. -1.
        -13    1    6    6    0    0  0.29974126519E+02  0.15957013244E+02  0.23675534179E+03  0.23917810602E+03  0.00000000000E+00 0.  1.
         14    1    6    6    0    0 -0.19998262249E+02 -0.22891279961E+02  0.44486319506E+02  0.53879252170E+02  0.00000000000E+00 0. -1.
         -5    1    3    3    0  503  0.90273027495E+01 -0.55356921419E+02  0.90116289410E+02  0.10624931323E+03  0.47000000000E+01 0.  1.
         11    1    4    4    0    0  0.52082984207E+02  0.30712115936E+02  0.12580205587E+03  0.13957803757E+03  0.00000000000E+00 0. -1.
        -12    1    4    4    0    0 -0.18362767180E+01  0.72276727307E+02  0.11642604489E+03  0.13704860872E+03  0.00000000000E+00 0.  1.
</event>
<event>
12    1  0.1039610E+000  0.1978268E+03  0.7818608E-02  0.1151659E+00
         21   -1    0    0  501  502  0.00000000000E+00  0.00000000000E+00  0.12918197372E+03  0.12918197372E+03  0.00000000000E+00 0. -1.
         21   -1    0    0  502  503 -0.00000000000E+00 -0.00000000000E+00 -0.32100769564E+03  0.32100769564E+03  0.00000000000E+00 0. -1.
         -6    2    1    2    0  503  0.88343771285E+02 -0.39876932908E+02 -0.41672357975E+02  0.20183212137E+03  0.17206053613E+03 0.  0.
        -24    2    3    3    0    0  0.69413137561E+02  0.71214897187E+01 -0.84274983679E+02  0.13546726366E+03  0.79876200250E+02 0.  0.
          6    2    1    2  501    0 -0.88343771285E+02  0.39876932908E+02 -0.15015336395E+03  0.24835754799E+03  0.17245476867E+03 0.  0.
         24    2    5    5    0    0 -0.16272125738E+02 -0.35083626940E+02 -0.98208494710E+02  0.13202282805E+03  0.79306214995E+02 0.  0.
          5    1    5    5  501    0 -0.72071645546E+02  0.74960559848E+02 -0.51944869239E+02  0.11633471994E+03  0.47000000000E+01 0. -1.
        -13    1    6    6    0    0 -0.18388536503E+02  0.22612576968E+02 -0.22544058507E+02  0.36847001043E+02  0.00000000000E+00 0.  1.
         14    1    6    6    0    0  0.21164107649E+01 -0.57696203908E+02 -0.75664436203E+02  0.95175827004E+02  0.00000000000E+00 0. -1.
         -5    1    3    3    0  503  0.18930633723E+02 -0.46998422627E+02  0.42602625704E+02  0.66364857714E+02  0.47000000000E+01 0.  1.
         13    1    4    4    0    0  0.66547014709E+02  0.62078945772E+01 -0.18126434551E+02  0.69250348384E+02  0.00000000000E+00 0. -1.
        -14    1    4    4    0    0  0.28661228518E+01  0.91359514154E+00 -0.66148549128E+02  0.66216915271E+02  0.00000000000E+00 0.  1.
</event>
<event>
12    1  0.1039610E+000  0.4586768E+03  0.7818608E-02  0.1025193E+00
         21   -1    0    0  503  502  0.00000000000E+00  0.00000000000E+00  0.78235654210E+03  0.78235654210E+03  0.00000000000E+00 0.  1.
         21   -1    0    0  501  503 -0.00000000000E+00 -0.00000000000E+00 -0.27637968315E+03  0.27637968315E+03  0.00000000000E+00 0.  1.
          6    2    1    2  501    0 -0.42386126633E+03  0.25255027623E+02  0.16481584504E+03  0.48738962943E+03  0.17345950129E+03 0.  0.
         24    2    3    3    0    0 -0.30985308501E+03 -0.65533881770E+01  0.51062846699E+02  0.32315968285E+03  0.75979504601E+02 0.  0.
         -6    2    1    2    0  502  0.42386126633E+03 -0.25255027623E+02  0.34116101391E+03  0.57134659581E+03  0.17248160952E+03 0.  0.
        -24    2    5    5    0    0  0.27011585540E+03 -0.74612624183E+02  0.26721953079E+03  0.39368608628E+03  0.71083316432E+02 0.  0.
          5    1    3    3  501    0 -0.11400818131E+03  0.31808415800E+02  0.11375299834E+03  0.16422994658E+03  0.47000000000E+01 0. -1.
        -11    1    4    4    0    0 -0.48383400912E+02  0.21694280702E+02  0.25770426806E+02  0.58955154115E+02  0.00000000000E+00 0.  1.
         12    1    4    4    0    0 -0.26146968410E+03 -0.28247668879E+02  0.25292419893E+02  0.26420452874E+03  0.00000000000E+00 0. -1.
         -5    1    5    5    0  502  0.15374541093E+03  0.49357596560E+02  0.73941483126E+02  0.17766050953E+03  0.47000000000E+01 0.  1.
         13    1    6    6    0    0  0.66045886408E+02 -0.29447264850E+02  0.32157679599E+02  0.79141120006E+02  0.00000000000E+00 0. -1.
        -14    1    6    6    0    0  0.20406996899E+03 -0.45165359333E+02  0.23506185119E+03  0.31454496628E+03  0.00000000000E+00 0.  1.
</event>
<event>
12    1  0.1039610E+000  0.2309314E+03  0.7818608E-02  0.1128280E+00
         21   -1    0    0  503  502  0.00000000000E+00  0.00000000000E+00  0.16575527484E+03  0.16575527484E+03  0.00000000000E+00 0.  1.
         21   -1    0    0  501  503 -0.00000000000E+00 -0.00000000000E+00 -0.32881704088E+03  0.32881704088E+03  0.00000000000E+00 0.  1.
          6    2    1    2  501    0 -0.21986758264E+02  0.13251705941E+03 -0.14694185811E+03  0.26307900850E+03  0.17197228403E+03 0.  0.
         24    2    3    3    0    0 -0.63827952075E+02  0.11068790119E+03 -0.15060169226E+03  0.21551135107E+03  0.86246471171E+02 0.  0.
         -6    2    1    2    0  502  0.21986758264E+02 -0.13251705941E+03 -0.16119907930E+02  0.23149330722E+03  0.18784331579E+03 0.  0.
        -24    2    5    5    0    0  0.78386500877E+02 -0.12834108981E+03  0.53341273062E+01  0.17082424331E+03  0.80849182644E+02 0.  0.
          5    1    3    3  501    0  0.41841193811E+02  0.21829158216E+02  0.36598341507E+01  0.47567657437E+02  0.47000000000E+01 0. -1.
        -13    1    4    4    0    0 -0.71751303713E+01 -0.94885717592E+01 -0.42784876722E+02  0.44407895312E+02  0.00000000000E+00 0.  1.
         14    1    4    4    0    0 -0.56652821704E+02  0.12017647295E+03 -0.10781681554E+03  0.17110345575E+03  0.00000000000E+00 0. -1.
         -5    1    5    5    0  502 -0.56399742613E+02 -0.41759695992E+01 -0.21454035236E+02  0.60669063919E+02  0.47000000000E+01 0.  1.
         11    1    6    6    0    0 -0.15065626146E+02 -0.37467629580E+02  0.59533247256E+00  0.40387507700E+02  0.00000000000E+00 0. -1.
        -12    1    6    6    0    0  0.93452127023E+02 -0.90873460227E+02  0.47387948337E+01  0.13043673560E+03  0.00000000000E+00 0.  1.
</event>
<event>
12    1  0.1039610E+000  0.2098832E+03  0.7818608E-02  0.1142391E+00
         21   -1    0    0  501  502  0.00000000000E+00  0.00000000000E+00  0.25361399612E+03  0.25361399612E+03  0.00000000000E+00 0. -1.
         21   -1    0    0  502  503 -0.00000000000E+00 -0.00000000000E+00 -0.17448011284E+03  0.17448011284E+03  0.00000000000E+00 0. -1.
         -6    2    1    2    0  503 -0.99038617798E+01  0.11530069266E+03  0.76105445552E+01  0.20635875779E+03  0.17068591132E+03 0.  0.
        -24    2    3    3    0    0 -0.46325131754E+02  0.12885770359E+03  0.31915280938E+02  0.16028152195E+03  0.76949694701E+02 0.  0.
          6    2    1    2  501    0  0.99038617798E+01 -0.11530069266E+03  0.71523338726E+02  0.22173535117E+03  0.17509609296E+03 0.  0.
         24    2    5    5    0    0  0.61357525811E+02 -0.32686082565E+02  0.64309973505E+02  0.12402774665E+03  0.80087347819E+02 0.  0.
          5    1    5    5  501    0 -0.51453664031E+02 -0.82614610092E+02  0.72133652207E+01  0.97707604518E+02  0.47000000000E+01 0. -1.
        -13    1    6    6    0    0 -0.21960227980E+01  0.13685041863E+02  0.38991685163E+02  0.41381812415E+02  0.00000000000E+00 0.  1.
         14    1    6    6    0    0  0.63553548609E+02 -0.46371124429E+02  0.25318288342E+02  0.82645934238E+02  0.00000000000E+00 0. -1.
         -5    1    3    3    0  503  0.36421269975E+02 -0.13557010934E+02 -0.24304736383E+02  0.46077235840E+02  0.47000000000E+01 0.  1.
         11    1    4    4    0    0 -0.12451019712E+02  0.10391577501E+03 -0.43381970226E+01  0.10474891952E+03  0.00000000000E+00 0. -1.
        -12    1    4    4    0    0 -0.33874112043E+02  0.24941928579E+02  0.36253477961E+02  0.55532602426E+02  0.00000000000E+00 0.  1.
</event>
<event>
12    1  0.1039610E+000  0.2105315E+03  0.7818608E-02  0.1141309E+00
         21   -1    0    0  501  502  0.00000000000E+00  0.00000000000E+00  0.19474390775E+04  0.19474390775E+04  0.00000000000E+00 0.  1.
         21   -1    0    0  502  503 -0.00000000000E+00 -0.00000000000E+00 -0.23418168571E+02  0.23418168571E+02  0.00000000000E+00 0.  1.
         -6    2    1    2    0  503  0.49463462244E+02 -0.10984882536E+03  0.11362151908E+04  0.11554056045E+04  0.17165008774E+03 0.  0.
        -24    2    3    3    0    0  0.84762432122E+02 -0.11034896510E+03  0.72344356866E+03  0.74110043987E+03  0.80608318042E+02 0.  0.
          6    2    1    2  501    0 -0.49463462244E+02  0.10984882536E+03  0.78780571813E+03  0.81545164155E+03  0.17265610809E+03 0.  0.
         24    2    5    5    0    0  0.91271048247E+01  0.25595588535E+02  0.15351075221E+03  0.17289140604E+03  0.74749241095E+02 0.  0.
          5    1    5    5  501    0 -0.58590567068E+02  0.84253236829E+02  0.63429496592E+03  0.64256023551E+03  0.47000000000E+01 0. -1.
        -13    1    6    6    0    0 -0.12798690872E+02  0.32404870771E+01  0.13672930996E+03  0.13736524832E+03  0.00000000000E+00 0.  1.
         14    1    6    6    0    0  0.21925795697E+02  0.22355101457E+02  0.16781442244E+02  0.35526157714E+02  0.00000000000E+00 0. -1.
         -5    1    3    3    0  503 -0.35298969878E+02  0.50013973721E+00  0.41277162216E+03  0.41430516467E+03  0.47000000000E+01 0.  1.
         13    1    4    4    0    0  0.35039296919E+02 -0.15305932006E+02  0.36374330086E+03  0.36574747136E+03  0.00000000000E+00 0. -1.
        -14    1    4    4    0    0  0.49723135202E+02 -0.95043033095E+02  0.35970026780E+03  0.37535296851E+03  0.00000000000E+00 0.  1.
</event>
<event>
12    1  0.1039610E+000  0.1766034E+03  0.7818608E-02  0.1171274E+00
         21   -1    0    0  501  502  0.00000000000E+00  0.00000000000E+00  0.20158903967E+04  0.20158903967E+04  0.00000000000E+00 0.  1.
         21   -1    0    0  502  503 -0.00000000000E+00 -0.00000000000E+00 -0.15599993294E+02  0.15599993294E+02  0.00000000000E+00 0.  1.
         -6    2    1    2    0  503  0.34508037983E+02 -0.18663244641E+02  0.11105379784E+04  0.11244924899E+04  0.17219069949E+03 0.  0.
        -24    2    3    3    0    0 -0.40597533060E+02 -0.38053619000E+02  0.67599226515E+03  0.68305291270E+03  0.80619485176E+02 0.  0.
          6    2    1    2  501    0 -0.34508037983E+02  0.18663244641E+02  0.88975242503E+03  0.90699790012E+03  0.17160038339E+03 0.  0.
         24    2    5    5    0    0 -0.82117417860E+02 -0.18479120618E+02  0.57878785768E+03  0.59018997645E+03  0.79019465263E+02 0.  0.
          5    1    5    5  501    0  0.47609379877E+02  0.37142365260E+02  0.31096456735E+03  0.31680792366E+03  0.47000000000E+01 0. -1.
        -11    1    6    6    0    0  0.10336218113E+02 -0.19052720123E+02  0.14914473418E+03  0.15071162955E+03  0.00000000000E+00 0.  1.
         12    1    6    6    0    0 -0.92453635973E+02  0.57359950429E+00  0.42964312350E+03  0.43947834690E+03  0.00000000000E+00 0. -1.
         -5    1    3    3    0  503  0.75105571044E+02  0.19390374358E+02  0.43454571322E+03  0.44143957718E+03  0.47000000000E+01 0.  1.
         13    1    4    4    0    0  0.13963448275E+02 -0.40821058073E+02  0.27768119496E+03  0.28101278032E+03  0.00000000000E+00 0. -1.
        -14    1    4    4    0    0 -0.54560981335E+02  0.27674390733E+01  0.39831107019E+03  0.40204013237E+03  0.00000000000E+00 0.  1.
</event>
<event>
12    1  0.1039610E+000  0.2941327E+03  0.7818608E-02  0.1088216E+00
         21   -1    0    0  501  502  0.00000000000E+00  0.00000000000E+00  0.14427829036E+04  0.14427829036E+04  0.00000000000E+00 0.  1.
         21   -1    0    0  502  503 -0.00000000000E+00 -0.00000000000E+00 -0.62349469407E+02  0.62349469407E+02  0.00000000000E+00 0. -1.
         -6    2    1    2    0  503  0.41780703645E+01 -0.23834827499E+03  0.54278912906E+03  0.61736056313E+03  0.17229820027E+03 0.  0.
        -24    2    3    3    0    0 -0.44684992856E+02 -0.12549310478E+03  0.40002270261E+03  0.42887122414E+03  0.78530862471E+02 0.  0.
          6    2    1    2  501    0 -0.41780703645E+01  0.23834827499E+03  0.83764430513E+03  0.88777180988E+03  0.17223079872E+03 0.  0.
         24    2    5    5    0    0  0.31647225423E+02  0.12939019503E+03  0.29711297847E+03  0.33518559931E+03  0.79560634498E+02 0.  0.
          5    1    5    5  501    0 -0.35825295788E+02  0.10895807996E+03  0.54053132666E+03  0.55258621056E+03  0.47000000000E+01 0. -1.
        -13    1    6    6    0    0  0.76256193568E+01 -0.86169903535E+01  0.82819396660E+01  0.14177204166E+02  0.00000000000E+00 0.  1.
         14    1    6    6    0    0  0.24021606066E+02  0.13800718539E+03  0.28883103881E+03  0.32100839515E+03  0.00000000000E+00 0. -1.
         -5    1    3    3    0  503  0.48863063220E+02 -0.11285517021E+03  0.14276642646E+03  0.18848933899E+03  0.47000000000E+01 0.  1.
         13    1    4    4    0    0 -0.34807055157E+02 -0.13497465556E+03  0.37862071272E+03  0.40346416549E+03  0.00000000000E+00 0. -1.
        -14    1    4    4    0    0 -0.98779376988E+01  0.94815507757E+01  0.21401989887E+02  0.25407058653E+02  0.00000000000E+00 0.  1.
</event>
<event>
12    1  0.1039610E+000  0.4088278E+03  0.7818608E-02  0.1040765E+00
         21   -1    0    0  501  502  0.00000000000E+00  0.00000000000E+00  0.26564941479E+03  0.26564941479E+03  0.00000000000E+00 0. -1.
         21   -1    0    0  502  503 -0.00000000000E+00 -0.00000000000E+00 -0.65372194825E+03  0.65372194825E+03  0.00000000000E+00 0. -1.
         -6    2    1    2    0  503 -0.41471764769E+02  0.36961470879E+03 -0.28311204798E+03  0.49728501167E+03  0.16972039034E+03 0.  0.
        -24    2    3    3    0    0 -0.12653274924E+02  0.22847829667E+03 -0.97090298472E+02  0.26196358580E+03  0.82679845281E+02 0.  0.
          6    2    1    2  501    0  0.41471764769E+02 -0.36961470879E+03 -0.10496048548E+03  0.42208635136E+03  0.16972107786E+03 0.  0.
         24    2    5    5    0    0  0.64307468945E+01 -0.36022393680E+03 -0.86111761205E+02  0.38093511883E+03  0.88846441654E+02 0.  0.
          5    1    5    5  501    0  0.35041017874E+02 -0.93907719915E+01 -0.18848724271E+02  0.41151232532E+02  0.47000000000E+01 0. -1.
        -11    1    6    6    0    0  0.26596511073E+02 -0.18619284036E+03 -0.57055157666E+01  0.18816934158E+03  0.00000000000E+00 0.  1.
         12    1    6    6    0    0 -0.20165764179E+02 -0.17403109644E+03 -0.80406245439E+02  0.19276577725E+03  0.00000000000E+00 0. -1.
         -5    1    3    3    0  503 -0.28818489845E+02  0.14113641212E+03 -0.18602174951E+03  0.23532142587E+03  0.47000000000E+01 0.  1.
         11    1    4    4    0    0  0.94105642052E+00 -0.53728002119E+01 -0.11217827009E+02  0.12473660734E+02  0.00000000000E+00 0. -1.
        -12    1    4    4    0    0 -0.13594331345E+02  0.23385109688E+03 -0.85872471463E+02  0.24948992507E+03  0.00000000000E+00 0.  1.
</event>
<event>
12    1  0.1039610E+000  0.1909232E+03  0.7818608E-02  0.1158041E+00
         21   -1    0    0  503  502  0.00000000000E+00  0.00000000000E+00  0.11943515189E+03  0.11943515189E+03  0.00000000000E+00 0.  1.
         21   -1    0    0  501  503 -0.00000000000E+00 -0.00000000000E+00 -0.33996878679E+03  0.33996878679E+03  0.00000000000E+00 0.  1.
          6    2    1    2  501    0 -0.82533029888E+02 -0.46329531314E+01 -0.33337459000E+02  0.19202017246E+03  0.17007996702E+03 0.  0.
         24    2    3    3    0    0 -0.10349516747E+03 -0.44537570584E+02 -0.43179782678E+01  0.13820558365E+03  0.79920545121E+02 0.  0.
         -6    2    1    2    0  502  0.82533029888E+02  0.46329531314E+01 -0.18719617590E+03  0.26738376623E+03  0.17210027569E+03 0.  0.
        -24    2    5    5    0    0  0.89054620875E+02  0.61046633754E+02 -0.12328357011E+03  0.18175698484E+03  0.78608815599E+02 0.  0.
          5    1    3    3  501    0  0.20962137585E+02  0.39904617453E+02 -0.29019480732E+02  0.53814588804E+02  0.47000000000E+01 0. -1.
        -13    1    4    4    0    0 -0.98409007359E+01  0.17179947565E+02 -0.15975077377E+02  0.25440067273E+02  0.00000000000E+00 0.  1.
         14    1    4    4    0    0 -0.93654266738E+02 -0.61717518149E+02  0.11657099109E+02  0.11276551638E+03  0.00000000000E+00 0. -1.
         -5    1    5    5    0  502 -0.65215909867E+01 -0.56413680623E+02 -0.63912605795E+02  0.85626781383E+02  0.47000000000E+01 0.  1.
         13    1    6    6    0    0  0.60334591971E+02  0.51866723068E+02 -0.12851928415E+03  0.15115431303E+03  0.00000000000E+00 0. -1.
        -14    1    6    6    0    0  0.28720028904E+02  0.91799106867E+01  0.52357140443E+01  0.30602671812E+02  0.00000000000E+00 0.  1.
</event>
<event>
12    1  0.1039610E+000  0.2251700E+03  0.7818608E-02  0.1130172E+00
         21   -1    0    0  503  502  0.00000000000E+00  0.00000000000E+00  0.54359178122E+03  0.54359178122E+03  0.00000000000E+00 0.  1.
         21   -1    0    0  501  503 -0.00000000000E+00 -0.00000000000E+00 -0.99423102455E+02  0.99423102455E+02  0.00000000000E+00 0.  1.
          6    2    1    2  501    0 -0.12562926645E+03 -0.70427009674E+02  0.30310205307E+03  0.37730582259E+03  0.17247073056E+03 0.  0.
         24    2    3    3    0    0 -0.73720878929E+02 -0.91782452493E+02  0.28389981812E+03  0.31779656734E+03  0.80850262269E+02 0.  0.
         -6    2    1    2    0  502  0.12562926645E+03  0.70427009674E+02  0.14106662569E+03  0.26570906109E+03  0.17308620968E+03 0.  0.
        -24    2    5    5    0    0  0.53498675254E+02  0.56484099497E+02  0.65045606604E+01  0.11232631670E+03  0.80760945785E+02 0.  0.
          5    1    3    3  501    0 -0.51908387520E+02  0.21355442819E+02  0.19202234955E+02  0.59509255248E+02  0.47000000000E+01 0. -1.
        -11    1    4    4    0    0 -0.26589858894E+01  0.12152769719E+02  0.87533913839E+01  0.15211241847E+02  0.00000000000E+00 0.  1.
         12    1    4    4    0    0 -0.71061893040E+02 -0.10393522221E+03  0.27514642674E+03  0.30258532549E+03  0.00000000000E+00 0. -1.
         -5    1    5    5    0  502  0.72130591196E+02  0.13942910177E+02  0.13456206503E+03  0.15338274439E+03  0.47000000000E+01 0.  1.
         13    1    6    6    0    0  0.69671125372E+02  0.25564096651E+02 -0.77837515773E+01  0.74620208636E+02  0.00000000000E+00 0. -1.
        -14    1    6    6    0    0 -0.16172450118E+02  0.30920002846E+02  0.14288312238E+02  0.37706108065E+02  0.00000000000E+00 0.  1.
</event>
<event>
12    1  0.1039610E+000  0.1884885E+03  0.7818608E-02  0.1159900E+00
         21   -1    0    0  501  502  0.00000000000E+00  0.00000000000E+00  0.14534443467E+04  0.14534443467E+04  0.00000000000E+00 0. -1.
         21   -1    0    0  502  503 -0.00000000000E+00 -0.00000000000E+00 -0.26555038254E+02  0.26555038254E+02  0.00000000000E+00 0. -1.
         -6    2    1    2    0  503 -0.70174931700E+02  0.34233924568E+02  0.50340243800E+03  0.53753319021E+03  0.17155591908E+03 0.  0.
        -24    2    3    3    0    0 -0.22433739497E+02  0.48677296788E+02  0.13642751591E+03  0.16715430869E+03  0.80345154976E+02 0.  0.
          6    2    1    2  501    0  0.70174931700E+02 -0.34233924568E+02  0.92348687049E+03  0.94246619478E+03  0.17122513163E+03 0.  0.
         24    2    5    5    0    0  0.53768388064E+02  0.21169144919E+02  0.27037199684E+03  0.28678349487E+03  0.76187820551E+02 0.  0.
          5    1    5    5  501    0  0.16406543636E+02 -0.55403069486E+02  0.65311487365E+03  0.65568269992E+03  0.47000000000E+01 0. -1.
        -11    1    6    6    0    0  0.34134800118E+02  0.84687617007E+01  0.32887930314E+02  0.48151017270E+02  0.00000000000E+00 0.  1.
         12    1    6    6    0    0  0.19633587946E+02  0.12700383218E+02  0.23748406653E+03  0.23863247760E+03  0.00000000000E+00 0. -1.
         -5    1    3    3    0  503 -0.47741192203E+02 -0.14443372221E+02  0.36697492209E+03  0.37037888152E+03  0.47000000000E+01 0.  1.
         13    1    4    4    0    0  0.29940016580E+02  0.10356323642E+02  0.45583860931E+02  0.55511678137E+02  0.00000000000E+00 0. -1.
        -14    1    4    4    0    0 -0.52373756076E+02  0.38320973146E+02  0.90843654975E+02  0.11164263056E+03  0.00000000000E+00 0.  1.
</event>
<event>
12    1  0.1039610E+000  0.3459111E+03  0.7818608E-02  0.1064393E+00
         21   -1    0    0  501  502  0.00000000000E+00  0.00000000000E+00  0.51146257718E+03  0.51146257718E+03  0.00000000000E+00 0.  1.
         21   -1    0    0  502  503 -0.00000000000E+00 -0.00000000000E+00 -0.27308607984E+03  0.27308607984E+03  0.00000000000E+00 0.  1.
         -6    2    1    2    0  503 -0.21477155603E+03  0.20895403225E+03  0.26863651460E+03  0.43731649967E+03  0.17114769946E+03 0.  0.
        -24    2    3    3    0    0 -0.82700586877E+02  0.12465443302E+03  0.71688544633E+02  0.18560286039E+03  0.83252985606E+02 0.  0.
          6    2    1    2  501    0  0.21477155603E+03 -0.20895403225E+03 -0.30260017257E+02  0.34723215735E+03  0.17281751526E+03 0.  0.
         24    2    5    5    0    0  0.84228765071E+02 -0.13949457938E+03 -0.64547794463E+02  0.19536452574E+03  0.86299812323E+02 0.  0.
          5    1    5    5  501    0  0.13054279096E+03 -0.69459452866E+02  0.34287777206E+02  0.15186763161E+03  0.47000000000E+01 0. -1.
        -13    1    6    6    0    0  0.37793807532E+02 -0.83027296778E+02 -0.79194073413E+02  0.12080399481E+03  0.00000000000E+00 0.  1.
         14    1    6    6    0    0  0.46434957540E+02 -0.56467282605E+02  0.14646278950E+02  0.74560530936E+02  0.00000000000E+00 0. -1.
         -5    1    3    3    0  503 -0.13207096915E+03  0.84299599232E+02  0.19694796997E+03  0.25171363928E+03  0.47000000000E+01 0.  1.
         11    1    4    4    0    0 -0.80028891290E+02  0.10404451393E+03  0.88970501615E+02  0.15857375091E+03  0.00000000000E+00 0. -1.
        -12    1    4    4    0    0 -0.26716955877E+01  0.20609919084E+02 -0.17281956983E+02  0.27029109477E+02  0.00000000000E+00 0.  1.
</event>
<event>
12    1  0.1039610E+000  0.5409673E+03  0.7818608E-02  0.1003651E+00
         21   -1    0    0  501  502  0.00000000000E+00  0.00000000000E+00  0.48544280728E+03  0.48544280728E+03  0.00000000000E+00 0.  1.
         21   -1    0    0  502  503 -0.00000000000E+00 -0.00000000000E+00 -0.73214835598E+03  0.73214835598E+03  0.00000000000E+00 0.  1.
         -6    2    1    2    0  503  0.35848802067E+03  0.36533713131E+03  0.13324879065E+03  0.55713634729E+03  0.17510222383E+03 0.  0.
        -24    2    3    3    0    0  0.33671690173E+03  0.31494772912E+03  0.69687382497E+02  0.47302204364E+03  0.79518416125E+02 0.  0.
          6    2    1    2  501    0 -0.35848802067E+03 -0.36533713131E+03 -0.37995433935E+03  0.66045481597E+03  0.17277263517E+03 0.  0.
         24    2    5    5    0    0 -0.26669581950E+03 -0.18542626729E+03 -0.20143706453E+03  0.39085467762E+03  0.81736939684E+02 0.  0.
          5    1    5    5  501    0 -0.91792201171E+02 -0.17991086402E+03 -0.17851727482E+03  0.26960013835E+03  0.47000000000E+01 0. -1.
        -11    1    6    6    0    0 -0.21063011336E+02  0.20110963592E+01 -0.32293696769E+02  0.38608001841E+02  0.00000000000E+00 0.  1.
         12    1    6    6    0    0 -0.24563280816E+03 -0.18743736365E+03 -0.16914336776E+03  0.35224667578E+03  0.00000000000E+00 0. -1.
         -5    1    3    3    0  503  0.21771118940E+02  0.50389402195E+02  0.63561408149E+02  0.84114303655E+02  0.47000000000E+01 0.  1.
         13    1    4    4    0    0  0.14994082721E+03  0.15587554683E+03 -0.57155540889E+01  0.21636105315E+03  0.00000000000E+00 0. -1.
        -14    1    4    4    0    0  0.18677607453E+03  0.15907218229E+03  0.75402936585E+02  0.25666099049E+03  0.00000000000E+00 0.  1.
</event>
<event>
12    1  0.1039610E+000  0.2025572E+03  0.7818608E-02  0.1147626E+00
         21   -1    0    0  503  502  0.00000000000E+00  0.00000000000E+00  0.57664728698E+02  0.57664728698E+02  0.00000000000E+00 0.  1.
         21   -1    0    0  501  503 -0.00000000000E+00 -0.00000000000E+00 -0.11907214068E+04  0.11907214068E+04  0.00000000000E+00 0.  1.
          6    2    1    2  501    0 -0.10549792114E+03 -0.13401140278E+02 -0.17046936129E+03  0.26474371796E+03  0.17239498582E+03 0.  0.
         24    2    3    3    0    0 -0.14994109397E+02 -0.59757128314E+02 -0.75629175251E+02  0.12561583271E+03  0.79144346460E+02 0.  0.
         -6    2    1    2    0  502  0.10549792114E+03  0.13401140278E+02 -0.96258731680E+03  0.98364241753E+03  0.17224593223E+03 0.  0.
        -24    2    5    5    0    0  0.13529558470E+03 -0.17722831294E+02 -0.73611310630E+03  0.75305781183E+03  0.81329998852E+02 0.  0.
          5    1    3    3  501    0 -0.90503811742E+02  0.46355988036E+02 -0.94840186038E+02  0.13912788525E+03  0.47000000000E+01 0. -1.
        -13    1    4    4    0    0 -0.37956869219E+02 -0.64356470009E+02 -0.45590689270E+02  0.87527082100E+02  0.00000000000E+00 0.  1.
         14    1    4    4    0    0  0.22962759822E+02  0.45993416949E+01 -0.30038485981E+02  0.38088750606E+02  0.00000000000E+00 0. -1.
         -5    1    5    5    0  502 -0.29797663563E+02  0.31123971571E+02 -0.22647421050E+03  0.23058460569E+03  0.47000000000E+01 0.  1.
         13    1    6    6    0    0  0.14484096983E+02 -0.33008339512E+02 -0.13467677234E+03  0.13941726059E+03  0.00000000000E+00 0. -1.
        -14    1    6    6    0    0  0.12081148772E+03  0.15285508219E+02 -0.60143633396E+03  0.61364055124E+03  0.00000000000E+00 0.  1.
</event>
<event>
12    1  0.1039610E+000  0.2563523E+03  0.7818608E-02  0.1109488E+00
         21   -1    0    0  501  502  0.00000000000E+00  0.00000000000E+00  0.23098236675E+03  0.23098236675E+03  0.00000000000E+00 0. -1.
         21   -1    0    0  502  503 -0.00000000000E+00 -0.00000000000E+00 -0.28970398836E+03  0.28970398836E+03  0.00000000000E+00 0. -1.
         -6    2    1    2    0  503  0.18899365392E+03 -0.11735723289E+02  0.86459353622E+01  0.25562996233E+03  0.17150975779E+03 0.  0.
        -24    2    3    3    0    0  0.16657426152E+03 -0.46659572864E+02  0.46824237917E+02  0.19904394629E+03  0.86613410968E+02 0.  0.
          6    2    1    2  501    0 -0.18899365392E+03  0.11735723289E+02 -0.67367556974E+02  0.26505639278E+03  0.17280096990E+03 0.  0.
         24    2    5    5    0    0 -0.68021273257E+02  0.79620893331E+01  0.30362761815E+02  0.10942264835E+03  0.79756693665E+02 0.  0.
          5    1    5    5  501    0 -0.12097238066E+03  0.37736339561E+01 -0.97730318789E+02  0.15563374443E+03  0.47000000000E+01 0. -1.
        -11    1    6    6    0    0 -0.86062367159E+02  0.95701617155E+01  0.21323071381E+02  0.89179551521E+02  0.00000000000E+00 0.  1.
         12    1    6    6    0    0  0.18041093903E+02 -0.16080723824E+01  0.90396904336E+01  0.20243096827E+02  0.00000000000E+00 0. -1.
         -5    1    3    3    0  503  0.22419392402E+02  0.34923849575E+02 -0.38178302555E+02  0.56586016035E+02  0.47000000000E+01 0.  1.
         13    1    4    4    0    0  0.82629773079E+01 -0.33492027901E+02  0.58737359676E+01  0.34992763553E+02  0.00000000000E+00 0. -1.
        -14    1    4    4    0    0  0.15831128421E+03 -0.13167544963E+02  0.40950501950E+02  0.16405118274E+03  0.00000000000E+00 0.  1.
</event>
<event>
12    1  0.1039610E+000  0.1790441E+03  0.7818608E-02  0.1169470E+00
         21   -1    0    0  501  502  0.00000000000E+00  0.00000000000E+00  0.14905890951E+03  0.14905890951E+03  0.00000000000E+00 0. -1.
         21   -1    0    0  502  503 -0.00000000000E+00 -0.00000000000E+00 -0.21615952561E+03  0.21615952561E+03  0.00000000000E+00 0. -1.
         -6    2    1    2    0  503 -0.32939745030E+02  0.11723417724E+02 -0.69194848238E+01  0.17917773805E+03  0.17559703077E+03 0.  0.
        -24    2    3    3    0    0 -0.13656999408E+02 -0.57328610020E+02 -0.29757421517E+02  0.10378763149E+03  0.80082989177E+02 0.  0.
          6    2    1    2  501    0  0.32939745030E+02 -0.11723417724E+02 -0.60181131283E+02  0.18604069707E+03  0.17253088732E+03 0.  0.
         24    2    5    5    0    0  0.43718879973E+01 -0.72140277180E+02 -0.46757062821E+02  0.11771343329E+03  0.80292567883E+02 0.  0.
          5    1    5    5  501    0  0.28567857032E+02  0.60416859456E+02 -0.13424068463E+02  0.68327263783E+02  0.47000000000E+01 0. -1.
        -11    1    6    6    0    0  0.37218539999E+02 -0.44263734264E+02 -0.55492552176E+01  0.58097264343E+02  0.00000000000E+00 0.  1.
         12    1    6    6    0    0 -0.32846652001E+02 -0.27876542915E+02 -0.41207807603E+02  0.59616168948E+02  0.00000000000E+00 0. -1.
         -5    1    3    3    0  503 -0.19282745622E+02  0.69052027744E+02  0.22837936694E+02  0.75390106557E+02  0.47000000000E+01 0.  1.
         13    1    4    4    0    0  0.30789224361E+02 -0.63886708136E+01 -0.52616449309E+01  0.31882226380E+02  0.00000000000E+00 0. -1.
        -14    1    4    4    0    0 -0.44446223769E+02 -0.50939939207E+02 -0.24495776587E+02  0.71905405112E+02  0.00000000000E+00 0.  1.
</event>
<event>
12    1  0.1039610E+000  0.2419627E+03  0.7818608E-02  0.1118493E+00
         21   -1    0    0  503  502  0.00000000000E+00  0.00000000000E+00  0.70541149090E+03  0.70541149090E+03  0.00000000000E+00 0. -1.
         21   -1    0    0  501  503 -0.00000000000E+00 -0.00000000000E+00 -0.84286886995E+02  0.84286886995E+02  0.00000000000E+00 0. -1.
          6    2    1    2  501    0  0.11358273594E+03  0.12699732952E+03  0.26163298720E+03  0.35636228271E+03  0.17179318071E+03 0.  0.
         24    2    3    3    0    0  0.11712980382E+03  0.11447735370E+03  0.12788674706E+03  0.22190233240E+03  0.77853513727E+02 0.  0.
         -6    2    1    2    0  502 -0.11358273594E+03 -0.12699732952E+03  0.35949161671E+03  0.43333609518E+03  0.17180392690E+03 0.  0.
        -24    2    5    5    0    0 -0.55562656924E+02 -0.77783865245E+02  0.32816811993E+03  0.35092525800E+03  0.79477564298E+02 0.  0.
          5    1    3    3  501    0 -0.35470678774E+01  0.12519975824E+02  0.13374624015E+03  0.13445995031E+03  0.47000000000E+01 0. -1.
        -11    1    4    4    0    0  0.33686278823E+02  0.59877321913E+02  0.94311594011E+02  0.11668220012E+03  0.00000000000E+00 0.  1.
         12    1    4    4    0    0  0.83443524996E+02  0.54600031784E+02  0.33575153046E+02  0.10522013228E+03  0.00000000000E+00 0. -1.
         -5    1    5    5    0  502 -0.58020079017E+02 -0.49213464277E+02  0.31323496773E+02  0.82410837184E+02  0.47000000000E+01 0.  1.
         11    1    6    6    0    0  0.42858304127E+01 -0.11227208309E+02  0.15973405514E+03  0.16018547662E+03  0.00000000000E+00 0. -1.
        -12    1    6    6    0    0 -0.59848487337E+02 -0.66556656935E+02  0.16843406480E+03  0.19073978138E+03  0.00000000000E+00 0.  1.
</event>
<event>
12    1  0.1039610E+000  0.3409181E+03  0.7818608E-02  0.1066949E+00
         21   -1    0    0  501  502  0.00000000000E+00  0.00000000000E+00  0.33700462888E+03  0.33700462888E+03  0.00000000000E+00 0. -1.
         21   -1    0    0  502  503 -0.00000000000E+00 -0.00000000000E+00 -0.41646682588E+03  0.41646682588E+03  0.00000000000E+00 0. -1.
         -6    2    1    2    0  503  0.20819135282E+03  0.20423742552E+03  0.12170916431E+03  0.36199208480E+03  0.17654626422E+03 0.  0.
        -24    2    3    3    0    0  0.63174733447E+02  0.52423527871E+02  0.96901451233E+02  0.15053336060E+03  0.80815395695E+02 0.  0.
          6    2    1    2  501    0 -0.20819135282E+03 -0.20423742552E+03 -0.20117136131E+03  0.39147936997E+03  0.16652211604E+03 0.  0.
         24    2    5    5    0    0 -0.27340069376E+02 -0.52152150137E+02 -0.55474987395E+02  0.11383455896E+03  0.80084370691E+02 0.  0.
          5    1    5    5  501    0 -0.18085128344E+03 -0.15208527538E+03 -0.14569637391E+03  0.27764481101E+03  0.47000000000E+01 0. -1.
        -11    1    6    6    0    0 -0.10222742650E+01 -0.67889148168E+02 -0.31186502478E+02  0.74716660929E+02  0.00000000000E+00 0.  1.
         12    1    6    6    0    0 -0.26317795111E+02  0.15736998030E+02 -0.24288484917E+02  0.39117898027E+02  0.00000000000E+00 0. -1.
         -5    1    3    3    0  503  0.14501661937E+03  0.15181389764E+03  0.24807713081E+02  0.21145872420E+03  0.47000000000E+01 0.  1.
         11    1    4    4    0    0  0.62459715029E+02  0.70040626929E+01  0.80739379831E+02  0.10231871946E+03  0.00000000000E+00 0. -1.
        -12    1    4    4    0    0  0.71501841792E+00  0.45419465178E+02  0.16162071402E+02  0.48214641142E+02  0.00000000000E+00 0.  1.
</event>
<event>
12    1  0.1039610E+000  0.2562932E+03  0.7818608E-02  0.1110939E+00
         21   -1    0    0  503  502  0.00000000000E+00  0.00000000000E+00  0.24198964633E+04  0.24198964633E+04  0.00000000000E+00 0.  1.
         21   -1    0    0  501  503 -0.00000000000E+00 -0.00000000000E+00 -0.27212420605E+02  0.27212420605E+02  0.00000000000E+00 0.  1.
          6    2    1    2  501    0  0.32544093782E+02 -0.17382411020E+03  0.14204644279E+04  0.14416750613E+04  0.17156296857E+03 0.  0.
         24    2    3    3    0    0  0.22879213643E+02 -0.16915977722E+03  0.83286572517E+03  0.85395957628E+03  0.80269253838E+02 0.  0.
         -6    2    1    2    0  502 -0.32544093782E+02  0.17382411020E+03  0.97221961485E+03  0.10054338226E+04  0.18550539851E+03 0.  0.
        -24    2    5    5    0    0 -0.27199199756E+02  0.15984601236E+03  0.97341568146E+03  0.98970246266E+03  0.75381241326E+02 0.  0.
          5    1    3    3  501    0  0.96648801383E+01 -0.46643329795E+01  0.58759870270E+03  0.58771548501E+03  0.47000000000E+01 0. -1.
        -13    1    4    4    0    0  0.38963926703E+02 -0.11755174493E+03  0.69363058844E+03  0.70459917226E+03  0.00000000000E+00 0.  1.
         14    1    4    4    0    0 -0.16084713060E+02 -0.51608032287E+02  0.13923513673E+03  0.14936040403E+03  0.00000000000E+00 0. -1.
         -5    1    5    5    0  502 -0.53448940259E+01  0.13978097836E+02 -0.11960666149E+01  0.15731359974E+02  0.47000000000E+01 0.  1.
         11    1    6    6    0    0 -0.91871502799E+01  0.15711443685E+03  0.91730874916E+03  0.93071192712E+03  0.00000000000E+00 0. -1.
        -12    1    6    6    0    0 -0.18012049476E+02  0.27315755153E+01  0.56106932308E+02  0.58990535547E+02  0.00000000000E+00 0.  1.
</event>
<event>
12    1  0.1039610E+000  0.2104339E+03  0.7818608E-02  0.1141375E+00
         21   -1    0    0  503  502  0.00000000000E+00  0.00000000000E+00  0.31709107095E+03  0.31709107095E+03  0.00000000000E+00 0. -1.
         21   -1    0    0  501  503 -0.00000000000E+00 -0.00000000000E+00 -0.14828307026E+03  0.14828307026E+03  0.00000000000E+00 0. -1.
          6    2    1    2  501    0 -0.20696862911E+02  0.11875912756E+03  0.26777412553E+02  0.21213077908E+03  0.17248288929E+03 0.  0.
         24    2    3    3    0    0 -0.51162537550E+02  0.75113772336E+01  0.14779412347E+02  0.96069324273E+02  0.79604384304E+02 0.  0.
         -6    2    1    2    0  502  0.20696862911E+02 -0.11875912756E+03  0.14203058814E+03  0.25324336212E+03  0.17154422747E+03 0.  0.
        -24    2    5    5    0    0 -0.28636329529E+02 -0.81902501262E+02  0.14976831828E+03  0.19100079433E+03  0.80763204436E+02 0.  0.
          5    1    3    3  501    0  0.30465674639E+02  0.11124775032E+03  0.11998000207E+02  0.11606145481E+03  0.47000000000E+01 0. -1.
        -13    1    4    4    0    0  0.21881813794E+00  0.15720000935E+01 -0.28550679027E+02  0.28594760684E+02  0.00000000000E+00 0.  1.
         14    1    4    4    0    0 -0.51381355688E+02  0.59393771401E+01  0.43330091373E+02  0.67474563589E+02  0.00000000000E+00 0. -1.
         -5    1    5    5    0  502  0.49333192439E+02 -0.36856626296E+02 -0.77377301405E+01  0.62242567796E+02  0.47000000000E+01 0.  1.
         13    1    6    6    0    0  0.41301651658E+01 -0.11388782478E+02 -0.84080518038E+01  0.14746456041E+02  0.00000000000E+00 0. -1.
        -14    1    6    6    0    0 -0.32766494694E+02 -0.70513718784E+02  0.15817637009E+03  0.17625433829E+03  0.00000000000E+00 0.  1.
</event>
<event>
12    1  0.1039610E+000  0.3596916E+03  0.7818608E-02  0.1058799E+00
         21   -1    0    0  503  502  0.00000000000E+00  0.00000000000E+00  0.40666015410E+03  0.40666015410E+03  0.00000000000E+00 0.  1.
         21   -1    0    0  501  503 -0.00000000000E+00 -0.00000000000E+00 -0.32100239844E+03  0.32100239844E+03  0.00000000000E+00 0.  1.
          6    2    1    2  501    0 -0.96712398741E+02  0.30016246571E+03  0.81873371136E+02  0.36889202177E+03  0.17299503153E+03 0.  0.
         24    2    3    3    0    0 -0.43936861071E+02  0.14790888655E+03 -0.30705493907E+02  0.17226419923E+03  0.70175782848E+02 0.  0.
         -6    2    1    2    0  502  0.96712398741E+02 -0.30016246571E+03  0.37843845267E+01  0.35877053077E+03  0.17102975850E+03 0.  0.
        -24    2    5    5    0    0  0.52510686425E+02 -0.29788890172E+03  0.13243154179E+02  0.31326757715E+03  0.80411589980E+02 0.  0.
          5    1    3    3  501    0 -0.52775537670E+02  0.15225357915E+03  0.11257886504E+03  0.19662782254E+03  0.47000000000E+01 0. -1.
        -13    1    4    4    0    0 -0.82121913132E+01  0.11979580340E+02 -0.28172326538E+02  0.31695905317E+02  0.00000000000E+00 0.  1.
         14    1    4    4    0    0 -0.35724669757E+02  0.13592930621E+03 -0.25331673690E+01  0.14056829391E+03  0.00000000000E+00 0. -1.
         -5    1    5    5    0  502  0.44201712316E+02 -0.22735639853E+01 -0.94587696524E+01  0.45502953620E+02  0.47000000000E+01 0.  1.
         13    1    6    6    0    0  0.64093768644E+02 -0.17593414177E+03 -0.14011136362E+02  0.18776886153E+03  0.00000000000E+00 0. -1.
        -14    1    6    6    0    0 -0.11583082219E+02 -0.12195475996E+03  0.27254290541E+02  0.12549871562E+03  0.00000000000E+00 0.  1.
</event>
<event>
12    1  0.1039610E+000  0.1825342E+03  0.7818608E-02  0.1165680E+00
         21   -1    0    0  501  502  0.00000000000E+00  0.00000000000E+00  0.27317205399E+02  0.27317205399E+02  0.00000000000E+00 0. -1.
         21   -1    0    0  502  503 -0.00000000000E+00 -0.00000000000E+00 -0.12341643144E+04  0.12341643144E+04  0.00000000000E+00 0. -1.
         -6    2    1    2    0  503  0.46899186520E+02  0.35101145856E+02 -0.51932239819E+03  0.55046751080E+03  0.17287886813E+03 0.  0.
        -24    2    3    3    0    0 -0.31119050160E+02 -0.17444257743E+02 -0.29324851171E+03  0.30556067782E+03  0.78102117742E+02 0.  0.
          6    2    1    2  501    0 -0.46899186520E+02 -0.35101145856E+02 -0.68752471078E+03  0.71101400896E+03  0.17151987896E+03 0.  0.
         24    2    5    5    0    0 -0.36643961731E+02 -0.89380322788E+02 -0.50532362323E+03  0.52056526261E+03  0.79401551700E+02 0.  0.
          5    1    5    5  501    0 -0.10255224790E+02  0.54279176932E+02 -0.18220108755E+03  0.19044874635E+03  0.47000000000E+01 0. -1.
        -13    1    6    6    0    0 -0.59832595567E+02 -0.77383227093E+02 -0.42473028524E+03  0.43584850411E+03  0.00000000000E+00 0.  1.
         14    1    6    6    0    0  0.23188633836E+02 -0.11997095695E+02 -0.80593337983E+02  0.84716758505E+02  0.00000000000E+00 0. -1.
         -5    1    3    3    0  503  0.78018236680E+02  0.52545403599E+02 -0.22607388648E+03  0.24490683298E+03  0.47000000000E+01 0.  1.
         13    1    4    4    0    0 -0.28764967707E+02 -0.32759834578E+02 -0.28438924956E+03  0.28771144467E+03  0.00000000000E+00 0. -1.
        -14    1    4    4    0    0 -0.23540824524E+01  0.15315576835E+02 -0.88592621477E+01  0.17849233143E+02  0.00000000000E+00 0.  1.
</event>
<event>
12    1  0.1039610E+000  0.3056985E+03  0.7818608E-02  0.1082473E+00
         21   -1    0    0  503  502  0.00000000000E+00  0.00000000000E+00  0.16434086579E+04  0.16434086579E+04  0.00000000000E+00 0. -1.
         21   -1    0    0  501  503 -0.00000000000E+00 -0.00000000000E+00 -0.83064792855E+02  0.83064792855E+02  0.00000000000E+00 0. -1.
          6    2    1    2  501    0 -0.22859762438E+03  0.10739088046E+03  0.12653102671E+04  0.13016247952E+04  0.17154404787E+03 0.  0.
         24    2    3    3    0    0 -0.40041153799E+02  0.19147526025E+02  0.53880247835E+03  0.54586286885E+03  0.75420416086E+02 0.  0.
         -6    2    1    2    0  502  0.22859762438E+03 -0.10739088046E+03  0.29503359793E+03  0.42484865555E+03  0.17222624985E+03 0.  0.
        -24    2    5    5    0    0  0.20405077246E+03 -0.74068196129E+02  0.15340526173E+03  0.27722201552E+03  0.78715031246E+02 0.  0.
          5    1    3    3  501    0 -0.18855647058E+03  0.88243354435E+02  0.72650778877E+03  0.75576192636E+03  0.47000000000E+01 0. -1.
        -11    1    4    4    0    0 -0.31132565144E+02  0.46247831085E+02  0.41997131640E+03  0.42365552645E+03  0.00000000000E+00 0.  1.
         12    1    4    4    0    0 -0.89085886545E+01 -0.27100305060E+02  0.11883116194E+03  0.12220734239E+03  0.00000000000E+00 0. -1.
         -5    1    5    5    0  502  0.24546851916E+02 -0.33322684331E+02  0.14162833621E+03  0.14762664003E+03  0.47000000000E+01 0.  1.
         13    1    6    6    0    0 -0.61575860782E+00 -0.86475293050E+01 -0.52426666097E+01  0.10131360961E+02  0.00000000000E+00 0. -1.
        -14    1    6    6    0    0  0.20466653107E+03 -0.65420666824E+02  0.15864792834E+03  0.26709065456E+03  0.00000000000E+00 0.  1.
</event>
<event>
12    1  0.1039610E+000  0.1788528E+03  0.7818608E-02  0.1169938E+00
         21   -1    0    0  501  502  0.00000000000E+00  0.00000000000E+00  0.44383008713E+03  0.44383008713E+03  0.00000000000E+00 0.  1.
         21   -1    0    0  502  503 -0.00000000000E+00 -0.00000000000E+00 -0.73826500857E+02  0.73826500857E+02  0.00000000000E+00 0.  1.
         -6    2    1    2    0  503  0.94276421571E+01 -0.38303321899E+02  0.24265716606E+03  0.30144785050E+03  0.17444850651E+03 0.  0.
        -24    2    3    3    0    0  0.29688288388E+02 -0.63973712131E+02  0.24563216616E+03  0.26827552248E+03  0.81624534302E+02 0.  0.
          6    2    1    2  501    0 -0.94276421571E+01  0.38303321899E+02  0.12734642021E+03  0.21620873749E+03  0.17021481287E+03 0.  0.
         24    2    5    5    0    0  0.53766362699E+02  0.48232306051E+02  0.10088694330E+03  0.14682386238E+03  0.78497733271E+02 0.  0.
          5    1    5    5  501    0 -0.63194004856E+02 -0.99289841518E+01  0.26459476906E+02  0.69384875111E+02  0.47000000000E+01 0. -1.
        -11    1    6    6    0    0  0.28303836255E+02  0.61999537565E+02  0.39054188376E+02  0.78551126247E+02  0.00000000000E+00 0.  1.
         12    1    6    6    0    0  0.25462526444E+02 -0.13767231514E+02  0.61832754928E+02  0.68272736128E+02  0.00000000000E+00 0. -1.
         -5    1    3    3    0  503 -0.20260646231E+02  0.25670390232E+02 -0.29750000994E+01  0.33172328015E+02  0.47000000000E+01 0.  1.
         11    1    4    4    0    0  0.12109056986E+02  0.15857341286E+02  0.93166587553E+02  0.95279051056E+02  0.00000000000E+00 0. -1.
        -12    1    4    4    0    0  0.17579231402E+02 -0.79831053418E+02  0.15246557861E+03  0.17299647143E+03  0.00000000000E+00 0.  1.
</event>
<event>
12    1  0.1039610E+000  0.4851839E+03  0.7818608E-02  0.1017754E+00
         21   -1    0    0  501  502  0.00000000000E+00  0.00000000000E+00  0.14914709512E+04  0.14914709512E+04  0.00000000000E+00 0. -1.
         21   -1    0    0  502  503 -0.00000000000E+00 -0.00000000000E+00 -0.25639477645E+03  0.25639477645E+03  0.00000000000E+00 0.  1.
         -6    2    1    2    0  503 -0.20949378609E+03  0.40241938087E+03  0.11596338889E+04  0.12568514912E+04  0.17057523311E+03 0.  0.
        -24    2    3    3    0    0 -0.11750462433E+03  0.14750471286E+03  0.60435107006E+03  0.63894810656E+03  0.86310427803E+02 0.  0.
          6    2    1    2  501    0  0.20949378609E+03 -0.40241938087E+03  0.75442285913E+02  0.49101423650E+03  0.17197219956E+03 0.  0.
         24    2    5    5    0    0  0.21685733154E+03 -0.41102552668E+03  0.67385519947E+02  0.47634150584E+03  0.79945832076E+02 0.  0.
          5    1    5    5  501    0 -0.73635454439E+01  0.86061458015E+01  0.80567659658E+01  0.14672730655E+02  0.47000000000E+01 0. -1.
        -13    1    6    6    0    0  0.12120734127E+02 -0.66552140124E+01 -0.92852491662E+01  0.16655927515E+02  0.00000000000E+00 0.  1.
         14    1    6    6    0    0  0.20473659741E+03 -0.40437031266E+03  0.76670769114E+02  0.45968557832E+03  0.00000000000E+00 0. -1.
         -5    1    3    3    0  503 -0.91989161767E+02  0.25491466802E+03  0.55528281881E+03  0.61790338461E+03  0.47000000000E+01 0.  1.
         11    1    4    4    0    0 -0.10692958907E+03  0.15397022588E+03  0.59374563665E+03  0.62263524516E+03  0.00000000000E+00 0. -1.
        -12    1    4    4    0    0 -0.10575035262E+02 -0.64655130180E+01  0.10605433404E+02  0.16312861400E+02  0.00000000000E+00 0.  1.
</event>
<event>
12    1  0.1039610E+000  0.1895041E+03  0.7818608E-02  0.1158939E+00
         21   -1    0    0  503  502  0.00000000000E+00  0.00000000000E+00  0.36050330970E+03  0.36050330970E+03  0.00000000000E+00 0. -1.
         21   -1    0    0  501  503 -0.00000000000E+00 -0.00000000000E+00 -0.10693940037E+03  0.10693940037E+03  0.00000000000E+00 0. -1.
          6    2    1    2  501    0 -0.46674997933E+01  0.79291377626E+02  0.18819062203E+03  0.26697958866E+03  0.17191126322E+03 0.  0.
         24    2    3    3    0    0  0.42490563552E+02  0.83011563823E+02  0.73169225225E+02  0.14252182696E+03  0.79135124451E+02 0.  0.
         -6    2    1    2    0  502  0.46674997933E+01 -0.79291377626E+02  0.65373287300E+02  0.20046312140E+03  0.17205489888E+03 0.  0.
        -24    2    5    5    0    0  0.21802473473E+02 -0.12987844544E+02 -0.25447110338E+02  0.86620245255E+02  0.78812939978E+02 0.  0.
          5    1    3    3  501    0 -0.47158063345E+02 -0.37201861970E+01  0.11502139681E+03  0.12445776170E+03  0.47000000000E+01 0. -1.
        -11    1    4    4    0    0  0.51207163209E+02  0.15146140780E+02  0.25830929247E+02  0.59319609322E+02  0.00000000000E+00 0.  1.
         12    1    4    4    0    0 -0.87165996566E+01  0.67865423043E+02  0.47338295978E+02  0.83202217642E+02  0.00000000000E+00 0. -1.
         -5    1    5    5    0  502 -0.17134973679E+02 -0.66303533082E+02  0.90820397638E+02  0.11384287615E+03  0.47000000000E+01 0.  1.
         11    1    6    6    0    0  0.40850408759E+02  0.19114168084E+02 -0.17979935681E+02  0.48552913449E+02  0.00000000000E+00 0. -1.
        -12    1    6    6    0    0 -0.19047935286E+02 -0.32102012628E+02 -0.74671746578E+01  0.38067331806E+02  0.00000000000E+00 0.  1.
</event>
<event>
12    1  0.1039610E+000  0.2062597E+03  0.7818608E-02  0.1144774E+00
         21   -1    0    0  501  502  0.00000000000E+00  0.00000000000E+00  0.53771306587E+03  0.53771306587E+03  0.00000000000E+00 0. -1.
         21   -1    0    0  502  503 -0.00000000000E+00 -0.00000000000E+00 -0.79001161359E+02  0.79001161359E+02  0.00000000000E+00 0. -1.
         -6    2    1    2    0  503 -0.85640662537E+02 -0.75680843016E+02  0.24718995599E+03  0.32127455832E+03  0.17044809885E+03 0.  0.
        -24    2    3    3    0    0  0.20120082333E+02 -0.31025998633E+02  0.83518811563E+02  0.12130025047E+03  0.79818096784E+02 0.  0.
          6    2    1    2  501    0  0.85640662537E+02  0.75680843016E+02  0.21152194852E+03  0.29543966891E+03  0.17170075766E+03 0.  0.
         24    2    5    5    0    0  0.76430729710E+02  0.11754942520E+03  0.18142353060E+03  0.24284874005E+03  0.80009307455E+02 0.  0.
          5    1    5    5  501    0  0.92099328273E+01 -0.41868582187E+02  0.30098417919E+02  0.52590928859E+02  0.47000000000E+01 0. -1.
        -11    1    6    6    0    0  0.31353523425E+02  0.95386356659E+02  0.75524550491E+02  0.12564059135E+03  0.00000000000E+00 0.  1.
         12    1    6    6    0    0  0.45077206284E+02  0.22163068543E+02  0.10589898011E+03  0.11720814870E+03  0.00000000000E+00 0. -1.
         -5    1    3    3    0  503 -0.10576074487E+03 -0.44654844382E+02  0.16367114443E+03  0.19997430785E+03  0.47000000000E+01 0.  1.
         11    1    4    4    0    0  0.14651415765E+01 -0.40750509538E+02  0.62921475157E+01  0.41259444831E+02  0.00000000000E+00 0. -1.
        -12    1    4    4    0    0  0.18654940757E+02  0.97245109043E+01  0.77226664047E+02  0.80040805635E+02  0.00000000000E+00 0.  1.
</event>
<event>
12    1  0.1039610E+000  0.2087791E+03  0.7818608E-02  0.1142804E+00
         21   -1    0    0  503  502  0.00000000000E+00  0.00000000000E+00  0.50259696507E+02  0.50259696507E+02  0.00000000000E+00 0. -1.
         21   -1    0    0  501  503 -0.00000000000E+00 -0.00000000000E+00 -0.86204418729E+03  0.86204418729E+03  0.00000000000E+00 0. -1.
          6    2    1    2  501    0 -0.11359671699E+03 -0.28576786312E+02 -0.41347477766E+03  0.46259361204E+03  0.17120342085E+03 0.  0.
         24    2    3    3    0    0  0.47774428908E+01  0.10332343609E+02 -0.19517835346E+03  0.21119396817E+03  0.79866897069E+02 0.  0.
         -6    2    1    2    0  502  0.11359671699E+03  0.28576786312E+02 -0.39830971312E+03  0.44971027175E+03  0.17282318748E+03 0.  0.
        -24    2    5    5    0    0  0.10618779828E+03 -0.40205469357E+02 -0.27602804578E+03  0.30913720557E+03  0.80510878373E+02 0.  0.
          5    1    3    3  501    0 -0.11837415988E+03 -0.38909129922E+02 -0.21829642420E+03  0.25139964387E+03  0.47000000000E+01 0. -1.
        -13    1    4    4    0    0 -0.20544630833E+02  0.14487093838E+02 -0.15160485412E+02  0.29356397291E+02  0.00000000000E+00 0.  1.
         14    1    4    4    0    0  0.25322073724E+02 -0.41547502290E+01 -0.18001786805E+03  0.18183757088E+03  0.00000000000E+00 0. -1.
         -5    1    5    5    0  502  0.74089187057E+01  0.68782255669E+02 -0.12228166733E+03  0.14057306618E+03  0.47000000000E+01 0.  1.
         13    1    6    6    0    0  0.14580172617E+02 -0.14529093853E+02 -0.40213476554E+01  0.20972535342E+02  0.00000000000E+00 0. -1.
        -14    1    6    6    0    0  0.91607625665E+02 -0.25676375504E+02 -0.27200669813E+03  0.28816467023E+03  0.00000000000E+00 0.  1.
</event>
<event>
12    1  0.1039610E+000  0.1845496E+03  0.7818608E-02  0.1163701E+00
         21   -1    0    0  501  502  0.00000000000E+00  0.00000000000E+00  0.63796886051E+03  0.63796886051E+03  0.00000000000E+00 0. -1.
         21   -1    0    0  502  503 -0.00000000000E+00 -0.00000000000E+00 -0.54350573113E+02  0.54350573113E+02  0.00000000000E+00 0. -1.
         -6    2    1    2    0  503  0.19677286562E+02  0.61076977339E+02  0.24012201022E+03  0.30284837055E+03  0.17303457164E+03 0.  0.
        -24    2    3    3    0    0 -0.52749443749E+02  0.60475542796E+02  0.15815503309E+03  0.19336472644E+03  0.77052630366E+02 0.  0.
          6    2    1    2  501    0 -0.19677286562E+02 -0.61076977339E+02  0.34349627717E+03  0.38947106307E+03  0.17198960368E+03 0.  0.
         24    2    5    5    0    0  0.92401857061E+01 -0.10379921190E+03  0.24807442479E+03  0.28089468700E+03  0.80630313947E+02 0.  0.
          5    1    5    5  501    0 -0.28917472268E+02  0.42722234566E+02  0.95421852380E+02  0.10857637607E+03  0.47000000000E+01 0. -1.
        -11    1    6    6    0    0 -0.39291255772E+01 -0.58794204054E+02  0.21646890573E+03  0.22434567882E+03  0.00000000000E+00 0.  1.
         12    1    6    6    0    0  0.13169311283E+02 -0.45005007851E+02  0.31605519066E+02  0.56549008186E+02  0.00000000000E+00 0. -1.
         -5    1    3    3    0  503  0.72426730311E+02  0.60143454278E+00  0.81966977129E+02  0.10948364411E+03  0.47000000000E+01 0.  1.
         13    1    4    4    0    0 -0.53491522707E+02  0.13515951626E+02  0.46213982124E+02  0.71970522394E+02  0.00000000000E+00 0. -1.
        -14    1    4    4    0    0  0.74207895781E+00  0.46959591170E+02  0.11194105097E+03  0.12139420405E+03  0.00000000000E+00 0.  1.
</event>
<event>
12    1  0.1039610E+000  0.1863664E+03  0.7818608E-02  0.1161974E+00
         21   -1    0    0  503  502  0.00000000000E+00  0.00000000000E+00  0.11965747344E+03  0.11965747344E+03  0.00000000000E+00 0.  1.
         21   -1    0    0  501  503 -0.00000000000E+00 -0.00000000000E+00 -0.33515190706E+03  0.33515190706E+03  0.00000000000E+00 0.  1.
          6    2    1    2  501    0 -0.48453942593E+02  0.52380803590E+02 -0.23534719227E+02  0.18784656175E+03  0.17216536996E+03 0.  0.
         24    2    3    3    0    0 -0.28232222871E+02 -0.13944660790E+02  0.42478931946E+02  0.91993145978E+02  0.75277933519E+02 0.  0.
         -6    2    1    2    0  502  0.48453942593E+02 -0.52380803590E+02 -0.19195971440E+03  0.26696281875E+03  0.17125735460E+03 0.  0.
        -24    2    5    5    0    0  0.93447860555E+02 -0.63313467043E+02 -0.14688469499E+03  0.20217220864E+03  0.80977716519E+02 0.  0.
          5    1    3    3  501    0 -0.20221719723E+02  0.66325464380E+02 -0.66013651173E+02  0.95853415771E+02  0.47000000000E+01 0. -1.
        -13    1    4    4    0    0  0.16789244476E+01  0.19088915908E+02  0.43376501620E+02  0.47420737981E+02  0.00000000000E+00 0.  1.
         14    1    4    4    0    0 -0.29911147318E+02 -0.33033576698E+02 -0.89756967409E+00  0.44572407997E+02  0.00000000000E+00 0. -1.
         -5    1    5    5    0  502 -0.44993917961E+02  0.10932663453E+02 -0.45075019410E+02  0.64790610111E+02  0.47000000000E+01 0.  1.
         13    1    6    6    0    0  0.81638802631E+02 -0.15277496696E+02 -0.60960906957E+02  0.10302683232E+03  0.00000000000E+00 0. -1.
        -14    1    6    6    0    0  0.11809057924E+02 -0.48035970348E+02 -0.85923788029E+02  0.99145376320E+02  0.00000000000E+00 0.  1.
</event>
<event>
12    1  0.1039610E+000  0.1796355E+03  0.7818608E-02  0.1168475E+00
         21   -1    0    0  503  502  0.00000000000E+00  0.00000000000E+00  0.35295790863E+02  0.35295790863E+02  0.00000000000E+00 0.  1.
         21   -1    0    0  501  503 -0.00000000000E+00 -0.00000000000E+00 -0.91592533684E+03  0.91592533684E+03  0.00000000000E+00 0.  1.
          6    2    1    2  501    0  0.25650562354E+02  0.41643575363E+02 -0.48406303357E+03  0.51586620530E+03  0.17148989060E+03 0.  0.
         24    2    3    3    0    0 -0.20406308365E+02  0.75022181449E+02 -0.38579328143E+03  0.40222465976E+03  0.83087157831E+02 0.  0.
         -6    2    1    2    0  502 -0.25650562354E+02 -0.41643575363E+02 -0.39656651240E+03  0.43535492241E+03  0.17284898318E+03 0.  0.
        -24    2    5    5    0    0 -0.21127325583E+02 -0.78143090533E+02 -0.37618424685E+03  0.39304415513E+03  0.80102520684E+02 0.  0.
          5    1    3    3  501    0  0.46056870718E+02 -0.33378606086E+02 -0.98269752146E+02  0.11364154553E+03  0.47000000000E+01 0. -1.
        -13    1    4    4    0    0 -0.10630951402E+02  0.16220605390E+02 -0.10165513927E+02  0.21896639933E+02  0.00000000000E+00 0.  1.
         14    1    4    4    0    0 -0.97753569624E+01  0.58801576059E+02 -0.37562776750E+03  0.38032801983E+03  0.00000000000E+00 0. -1.
         -5    1    5    5    0  502 -0.45232367709E+01  0.36499515171E+02 -0.20382265558E+02  0.42310767281E+02  0.47000000000E+01 0.  1.
         11    1    6    6    0    0 -0.43647397746E+02 -0.23156322861E+02 -0.11462838854E+03  0.12482378811E+03  0.00000000000E+00 0. -1.
        -12    1    6    6    0    0  0.22520072164E+02 -0.54986767673E+02 -0.26155585831E+03  0.26822036702E+03  0.00000000000E+00 0.  1.
</event>
<event>
12    1  0.1039610E+000  0.1937357E+03  0.7818608E-02  0.1155313E+00
         21   -1    0    0  503  502  0.00000000000E+00  0.00000000000E+00  0.24323675634E+03  0.24323675634E+03  0.00000000000E+00 0. -1.
         21   -1    0    0  501  503 -0.00000000000E+00 -0.00000000000E+00 -0.16105949589E+03  0.16105949589E+03  0.00000000000E+00 0. -1.
          6    2    1    2  501    0 -0.73502657753E+02 -0.55573775265E+02  0.84491438778E+02  0.21135828785E+03  0.17041841868E+03 0.  0.
         24    2    3    3    0    0 -0.49076112260E+02 -0.24124461808E+02  0.12287355761E+03  0.15585159918E+03  0.78748684796E+02 0.  0.
         -6    2    1    2    0  502  0.73502657753E+02  0.55573775265E+02 -0.23141783313E+01  0.19293796438E+03  0.16949518425E+03 0.  0.
        -24    2    5    5    0    0  0.86115134988E+02 -0.41280720176E+01 -0.20081720643E+02  0.12921072757E+03  0.94123743888E+02 0.  0.
          5    1    3    3  501    0 -0.24426545493E+02 -0.31449313457E+02 -0.38382118827E+02  0.55506688671E+02  0.47000000000E+01 0. -1.
        -11    1    4    4    0    0  0.26052062592E+01 -0.41309983976E+02  0.54562670082E+02  0.68486398958E+02  0.00000000000E+00 0.  1.
         12    1    4    4    0    0 -0.51681318519E+02  0.17185522168E+02  0.68310887523E+02  0.87365200225E+02  0.00000000000E+00 0. -1.
         -5    1    5    5    0  502 -0.12612477235E+02  0.59701847283E+02  0.17767542312E+02  0.63727236805E+02  0.47000000000E+01 0.  1.
         13    1    6    6    0    0  0.50030993544E+02 -0.19520577961E+02 -0.54869764479E+02  0.76777889610E+02  0.00000000000E+00 0. -1.
        -14    1    6    6    0    0  0.36084141443E+02  0.15392505943E+02  0.34788043836E+02  0.52432837963E+02  0.00000000000E+00 0.  1.
</event>
<event>
12    1  0.1039610E+000  0.2047097E+03  0.7818608E-02  0.1146407E+00
         21   -1    0    0  501  502  0.00000000000E+00  0.00000000000E+00  0.14465093202E+03  0.14465093202E+03  0.00000000000E+00 0.  1.
         21   -1    0    0  502  503 -0.00000000000E+00 -0.00000000000E+00 -0.37200381368E+03  0.37200381368E+03  0.00000000000E+00 0.  1.
         -6    2    1    2    0  503 -0.92026078245E+02 -0.52946111275E+02  0.10125390097E+02  0.20495995330E+03  0.17502562428E+03 0.  0.
        -24    2    3    3    0    0  0.17885113397E-01  0.56788997552E+01  0.40010594914E+02  0.91715975195E+02  0.82332995684E+02 0.  0.
          6    2    1    2  501    0  0.92026078245E+02  0.52946111275E+02 -0.23747827175E+03  0.31169479241E+03  0.17171378594E+03 0.  0.
         24    2    5    5    0    0  0.23215777812E+02 -0.29963046771E+02 -0.79216075748E+02  0.12018030570E+03  0.82044882294E+02 0.  0.
          5    1    5    5  501    0  0.68810300433E+02  0.82909158046E+02 -0.15826219601E+03  0.19151448671E+03  0.47000000000E+01 0. -1.
        -11    1    6    6    0    0  0.19309293367E+01 -0.53895299195E+02 -0.66745155769E+02  0.85809950368E+02  0.00000000000E+00 0.  1.
         12    1    6    6    0    0  0.21284848476E+02  0.23932252424E+02 -0.12470919979E+02  0.34370355335E+02  0.00000000000E+00 0. -1.
         -5    1    3    3    0  503 -0.92043963359E+02 -0.58625011030E+02 -0.29885204816E+02  0.11324397810E+03  0.47000000000E+01 0.  1.
         11    1    4    4    0    0 -0.18475385551E+02  0.21571811650E+02 -0.14580863131E+02  0.31926235274E+02  0.00000000000E+00 0. -1.
        -12    1    4    4    0    0  0.18493270664E+02 -0.15892911894E+02  0.54591458045E+02  0.59789739921E+02  0.00000000000E+00 0.  1.
</event>
<event>
12    1  0.1039610E+000  0.2065434E+03  0.7818608E-02  0.1144437E+00
         21   -1    0    0  501  502  0.00000000000E+00  0.00000000000E+00  0.58193281775E+02  0.58193281775E+02  0.00000000000E+00 0. -1.
         21   -1    0    0  502  503 -0.00000000000E+00 -0.00000000000E+00 -0.76605761533E+03  0.76605761533E+03  0.00000000000E+00 0. -1.
         -6    2    1    2    0  503 -0.19680741548E+01 -0.11367701357E+03 -0.26650513422E+03  0.33717228257E+03  0.17243498727E+03 0.  0.
        -24    2    3    3    0    0 -0.21058593311E+02 -0.14169587016E+03 -0.17401508059E+03  0.23855177625E+03  0.78131413054E+02 0.  0.
          6    2    1    2  501    0  0.19680741548E+01  0.11367701357E+03 -0.44135919933E+03  0.48707861454E+03  0.17181762766E+03 0.  0.
         24    2    5    5    0    0 -0.15979386300E+02 -0.27770613963E+01 -0.24264924203E+03  0.25601282295E+03  0.80005362305E+02 0.  0.
          5    1    5    5  501    0  0.17947460455E+02  0.11645407497E+03 -0.19870995730E+03  0.23106579159E+03  0.47000000000E+01 0. -1.
        -13    1    6    6    0    0  0.11646004258E+02  0.27189239397E+02 -0.17137031332E+03  0.17390419329E+03  0.00000000000E+00 0.  1.
         14    1    6    6    0    0 -0.27625390558E+02 -0.29966300793E+02 -0.71278928713E+02  0.82108629663E+02  0.00000000000E+00 0. -1.
         -5    1    3    3    0  503  0.19090519156E+02  0.28018856586E+02 -0.92490053626E+02  0.98620506315E+02  0.47000000000E+01 0.  1.
         13    1    4    4    0    0 -0.28890611541E+02 -0.11745142600E+02 -0.48847765299E+02  0.57954464751E+02  0.00000000000E+00 0. -1.
        -14    1    4    4    0    0  0.78320182297E+01 -0.12995072756E+03 -0.12516731530E+03  0.18059731150E+03  0.00000000000E+00 0.  1.
</event>
<event>
12    1  0.1039610E+000  0.2029402E+03  0.7818608E-02  0.1147389E+00
         21   -1    0    0  503  502  0.00000000000E+00  0.00000000000E+00  0.36738547070E+03  0.36738547070E+03  0.00000000000E+00 0. -1.
         21   -1    0    0  501  503 -0.00000000000E+00 -0.00000000000E+00 -0.38361354708E+03  0.38361354708E+03  0.00000000000E+00 0. -1.
          6    2    1    2  501    0 -0.95852376148E+02 -0.47389608882E+02  0.30795396987E+03  0.36880940741E+03  0.17248558893E+03 0.  0.
         24    2    3    3    0    0 -0.30865987985E+01 -0.22644964391E+02  0.23034429567E+03  0.24526533265E+03  0.81081855837E+02 0.  0.
         -6    2    1    2    0  502  0.95852376148E+02  0.47389608882E+02 -0.32418204625E+03  0.38218961038E+03  0.17187625237E+03 0.  0.
        -24    2    5    5    0    0  0.81899167923E+02  0.91436903662E+02 -0.28897175869E+03  0.32390830508E+03  0.79647546869E+02 0.  0.
          5    1    3    3  501    0 -0.92765777350E+02 -0.24744644491E+02  0.77609674205E+02  0.12354407476E+03  0.47000000000E+01 0. -1.
        -11    1    4    4    0    0  0.33700487823E+01 -0.13042456041E+02  0.23300331223E+03  0.23339238720E+03  0.00000000000E+00 0.  1.
         12    1    4    4    0    0 -0.64566475808E+01 -0.96025083501E+01 -0.26590165645E+01  0.11872945451E+02  0.00000000000E+00 0. -1.
         -5    1    5    5    0  502  0.13953208225E+02 -0.44047294779E+02 -0.35210287561E+02  0.58281305299E+02  0.47000000000E+01 0.  1.
         13    1    6    6    0    0 -0.66228788679E+01  0.48050744864E+01  0.13281323366E+01  0.82894632409E+01  0.00000000000E+00 0. -1.
        -14    1    6    6    0    0  0.88522046791E+02  0.86631829175E+02 -0.29029989103E+03  0.31561884184E+03  0.00000000000E+00 0.  1.
</event>
<event>
12    1  0.1039610E+000  0.1948492E+03  0.7818608E-02  0.1156084E+00
         21   -1    0    0  503  502  0.00000000000E+00  0.00000000000E+00  0.24820121935E+03  0.24820121935E+03  0.00000000000E+00 0.  1.
         21   -1    0    0  501  503 -0.00000000000E+00 -0.00000000000E+00 -0.24525709426E+03  0.24525709426E+03  0.00000000000E+00 0.  1.
          6    2    1    2  501    0 -0.36699713157E+02  0.70492577975E+02  0.15816653009E+03  0.24433947735E+03  0.16843116237E+03 0.  0.
         24    2    3    3    0    0 -0.34232684268E+02  0.95423377522E+02  0.17244383032E+03  0.21512368882E+03  0.79144356893E+02 0.  0.
         -6    2    1    2    0  502  0.36699713157E+02 -0.70492577975E+02 -0.15522240500E+03  0.24911883626E+03  0.17790482587E+03 0.  0.
        -24    2    5    5    0    0  0.69837177958E+02 -0.28232304909E+01 -0.13372350558E+03  0.17062345526E+03  0.79656672564E+02 0.  0.
          5    1    3    3  501    0 -0.24670288894E+01 -0.24930799547E+02 -0.14277300231E+02  0.29215788531E+02  0.47000000000E+01 0. -1.
        -13    1    4    4    0    0 -0.14341525558E+02 -0.59611782598E+01  0.61883131380E+02  0.63802327159E+02  0.00000000000E+00 0.  1.
         14    1    4    4    0    0 -0.19891158710E+02  0.10138455578E+03  0.11056069894E+03  0.15132136166E+03  0.00000000000E+00 0. -1.
         -5    1    5    5    0  502 -0.33137464801E+02 -0.67669347484E+02 -0.21498899423E+02  0.78495381003E+02  0.47000000000E+01 0.  1.
         13    1    6    6    0    0  0.49401326811E+02  0.32435838492E+02 -0.49621752490E+02  0.77167953385E+02  0.00000000000E+00 0. -1.
        -14    1    6    6    0    0  0.20435851147E+02 -0.35259068983E+02 -0.84101753088E+02  0.93455501872E+02  0.00000000000E+00 0.  1.
</event>
<event>
12    1  0.1039610E+000  0.2138208E+03  0.7818608E-02  0.1140004E+00
         21   -1    0    0  503  502  0.00000000000E+00  0.00000000000E+00  0.21732606072E+02  0.21732606072E+02  0.00000000000E+00 0. -1.
         21   -1    0    0  501  503 -0.00000000000E+00 -0.00000000000E+00 -0.27112008568E+04  0.27112008568E+04  0.00000000000E+00 0. -1.
          6    2    1    2  501    0 -0.38105935560E+02 -0.11938140235E+03 -0.20454765300E+04  0.20566218801E+04  0.17324936186E+03 0.  0.
         24    2    3    3    0    0  0.46996980158E+02 -0.83492891554E+02 -0.85339866232E+03  0.86096213582E+03  0.61536520803E+02 0.  0.
         -6    2    1    2    0  502  0.38105935560E+02  0.11938140235E+03 -0.64399172070E+03  0.67631158274E+03  0.16421948443E+03 0.  0.
        -24    2    5    5    0    0  0.32195402109E+02  0.14036867606E+03 -0.42289370522E+03  0.45409137098E+03  0.81363248182E+02 0.  0.
          5    1    3    3  501    0 -0.85102915717E+02 -0.35888510796E+02 -0.11920778677E+04  0.11956597443E+04  0.47000000000E+01 0. -1.
        -11    1    4    4    0    0  0.28837291997E+01 -0.45406852726E+02 -0.20698641620E+03  0.21192799405E+03  0.00000000000E+00 0.  1.
         12    1    4    4    0    0  0.44113250958E+02 -0.38086038828E+02 -0.64641224611E+03  0.64903414177E+03  0.00000000000E+00 0. -1.
         -5    1    5    5    0  502  0.59105334510E+01 -0.20987273706E+02 -0.22109801548E+03  0.22222021175E+03  0.47000000000E+01 0.  1.
         11    1    6    6    0    0  0.11238678866E+02  0.10627864374E+03 -0.19185530324E+03  0.21961310389E+03  0.00000000000E+00 0. -1.
        -12    1    6    6    0    0  0.20956723242E+02  0.34090032317E+02 -0.23103840197E+03  0.23447826709E+03  0.00000000000E+00 0.  1.
</event>
<event>
12    1  0.1039610E+000  0.2196489E+03  0.7818608E-02  0.1134238E+00
         21   -1    0    0  501  502  0.00000000000E+00  0.00000000000E+00  0.10528494801E+04  0.10528494801E+04  0.00000000000E+00 0.  1.
         21   -1    0    0  502  503 -0.00000000000E+00 -0.00000000000E+00 -0.54641151347E+02  0.54641151347E+02  0.00000000000E+00 0. -1.
         -6    2    1    2    0  503 -0.11472825344E+03 -0.71906464070E+02  0.27582808846E+03  0.35260003342E+03  0.17295241389E+03 0.  0.
        -24    2    3    3    0    0 -0.84128232615E+02 -0.10874945460E+03  0.25523558510E+03  0.30025589888E+03  0.78130643901E+02 0.  0.
          6    2    1    2  501    0  0.11472825344E+03  0.71906464070E+02  0.72238024024E+03  0.75489059798E+03  0.17231799591E+03 0.  0.
         24    2    5    5    0    0  0.95708074576E+01  0.45611948815E+01  0.42169371456E+03  0.42927126432E+03  0.79597893295E+02 0.  0.
          5    1    5    5  501    0  0.10515744598E+03  0.67345269189E+02  0.30068652568E+03  0.32561933366E+03  0.47000000000E+01 0. -1.
        -13    1    6    6    0    0  0.27172971905E+02 -0.22768493484E+02  0.10312666150E+03  0.10904991064E+03  0.00000000000E+00 0.  1.
         14    1    6    6    0    0 -0.17602164447E+02  0.27329688365E+02  0.31856705306E+03  0.32022135369E+03  0.00000000000E+00 0. -1.
         -5    1    3    3    0  503 -0.30600020823E+02  0.36842990526E+02  0.20592503366E+02  0.52344134534E+02  0.47000000000E+01 0.  1.
         13    1    4    4    0    0  0.55031622979E+00 -0.26003028046E+02  0.98687990265E+01  0.27818222620E+02  0.00000000000E+00 0. -1.
        -14    1    4    4    0    0 -0.84678548845E+02 -0.82746426551E+02  0.24536678607E+03  0.27243767626E+03  0.00000000000E+00 0.  1.
</event>
<event>
12    1  0.1039610E+000  0.2553920E+03  0.7818608E-02  0.1110040E+00
         21   -1    0    0  501  502  0.00000000000E+00  0.00000000000E+00  0.31361950579E+03  0.31361950579E+03  0.00000000000E+00 0. -1.
         21   -1    0    0  502  503 -0.00000000000E+00 -0.00000000000E+00 -0.23482215070E+03  0.23482215070E+03  0.00000000000E+00 0. -1.
         -6    2    1    2    0  503 -0.33984299156E+02  0.18550387109E+03  0.13303451402E+03  0.28796400312E+03  0.17221633602E+03 0.  0.
        -24    2    3    3    0    0 -0.10509390756E+02  0.98512608531E+02  0.15194925887E+03  0.19577718921E+03  0.73654254534E+02 0.  0.
          6    2    1    2  501    0  0.33984299156E+02 -0.18550387109E+03 -0.54237158928E+02  0.26047765337E+03  0.17129016235E+03 0.  0.
         24    2    5    5    0    0  0.24265558802E+02 -0.17433048276E+03 -0.96183777066E+02  0.21574615111E+03  0.79467906640E+02 0.  0.
          5    1    5    5  501    0  0.97187403548E+01 -0.11173388328E+02  0.41946618138E+02  0.44731502256E+02  0.47000000000E+01 0. -1.
        -13    1    6    6    0    0  0.40404616397E+02 -0.16688035075E+03 -0.73109260548E+02  0.18661872487E+03  0.00000000000E+00 0.  1.
         14    1    6    6    0    0 -0.16139057595E+02 -0.74501320051E+01 -0.23074516518E+02  0.29127426242E+02  0.00000000000E+00 0. -1.
         -5    1    3    3    0  503 -0.23474908401E+02  0.86991262555E+02 -0.18914744848E+02  0.92186813906E+02  0.47000000000E+01 0.  1.
         13    1    4    4    0    0 -0.58080500885E+01  0.25303452950E+02 -0.11738485077E+01  0.25987999103E+02  0.00000000000E+00 0. -1.
        -14    1    4    4    0    0 -0.47013406672E+01  0.73209155581E+02  0.15312310738E+03  0.16978919011E+03  0.00000000000E+00 0.  1.
</event>
<event>
12    1  0.1039610E+000  0.2675799E+03  0.7818608E-02  0.1102752E+00
         21   -1    0    0  501  502  0.00000000000E+00  0.00000000000E+00  0.60212696326E+03  0.60212696326E+03  0.00000000000E+00 0. -1.
         21   -1    0    0  502  503 -0.00000000000E+00 -0.00000000000E+00 -0.13520361510E+03  0.13520361510E+03  0.00000000000E+00 0. -1.
         -6    2    1    2    0  503  0.19808735281E+03  0.49943191227E+02  0.10474003901E+03  0.28734901395E+03  0.17281799199E+03 0.  0.
        -24    2    3    3    0    0  0.71500145612E+02  0.82183225816E+02  0.74700172819E+02  0.15322882749E+03  0.77669841805E+02 0.  0.
          6    2    1    2  501    0 -0.19808735281E+03 -0.49943191227E+02  0.36218330916E+03  0.44998156441E+03  0.17197016365E+03 0.  0.
         24    2    5    5    0    0 -0.19456590063E+03 -0.68554647780E+02  0.36990174526E+03  0.42899463523E+03  0.68216321336E+02 0.  0.
          5    1    5    5  501    0 -0.35214521839E+01  0.18611456553E+02 -0.77184361014E+01  0.20986929179E+02  0.47000000000E+01 0. -1.
        -11    1    6    6    0    0 -0.10828631586E+03 -0.71442296905E+02  0.19946181472E+03  0.23793894915E+03  0.00000000000E+00 0.  1.
         12    1    6    6    0    0 -0.86279584764E+02  0.28876491247E+01  0.17043993054E+03  0.19105568609E+03  0.00000000000E+00 0. -1.
         -5    1    3    3    0  503  0.12658720720E+03 -0.32240034589E+02  0.30039866187E+02  0.13412018646E+03  0.47000000000E+01 0.  1.
         13    1    4    4    0    0 -0.14664734319E+02  0.22843188239E+02  0.52333817734E+01  0.27645143630E+02  0.00000000000E+00 0. -1.
        -14    1    4    4    0    0  0.86164879930E+02  0.59340037577E+02  0.69466791045E+02  0.12558368386E+03  0.00000000000E+00 0.  1.
</event>
<event>
12    1  0.1039610E+000  0.1789954E+03  0.7818608E-02  0.1169122E+00
         21   -1    0    0  501  502  0.00000000000E+00  0.00000000000E+00  0.37945165191E+02  0.37945165191E+02  0.00000000000E+00 0.  1.
         21   -1    0    0  502  503 -0.00000000000E+00 -0.00000000000E+00 -0.19020667628E+04  0.19020667628E+04  0.00000000000E+00 0.  1.
         -6    2    1    2    0  503  0.82025159378E+01  0.50186313204E+02 -0.16560414570E+04  0.16655366285E+04  0.17015582936E+03 0.  0.
        -24    2    3    3    0    0 -0.32764571691E+02 -0.59230367316E+01 -0.49330864765E+03  0.50072066134E+03  0.79114848917E+02 0.  0.
          6    2    1    2  501    0 -0.82025159378E+01 -0.50186313204E+02 -0.20808014062E+03  0.27447529950E+03  0.17161992255E+03 0.  0.
         24    2    5    5    0    0 -0.47107656974E+02 -0.83351343168E+02 -0.11991464191E+03  0.17245189839E+03  0.78699162391E+02 0.  0.
          5    1    5    5  501    0  0.38905141037E+02  0.33165029964E+02 -0.88165498710E+02  0.10202340111E+03  0.47000000000E+01 0. -1.
        -13    1    6    6    0    0  0.19421920727E+02 -0.29386396791E+02 -0.18798384675E+02  0.39926815393E+02  0.00000000000E+00 0.  1.
         14    1    6    6    0    0 -0.66529577701E+02 -0.53964946377E+02 -0.10111625723E+03  0.13252508300E+03  0.00000000000E+00 0. -1.
         -5    1    3    3    0  503  0.40967087628E+02  0.56109349936E+02 -0.11627328093E+04  0.11648159672E+04  0.47000000000E+01 0.  1.
         13    1    4    4    0    0 -0.84702048355E+01 -0.18335187846E+02 -0.27532258472E+02  0.34145991564E+02  0.00000000000E+00 0. -1.
        -14    1    4    4    0    0 -0.24294366855E+02  0.12412151115E+02 -0.46577638918E+03  0.46657466977E+03  0.00000000000E+00 0.  1.
</event>
<event>
12    1  0.1039610E+000  0.3087730E+03  0.7818608E-02  0.1081091E+00
         21   -1    0    0  501  502  0.00000000000E+00  0.00000000000E+00  0.45697085398E+02  0.45697085398E+02  0.00000000000E+00 0.  1.
         21   -1    0    0  502  503 -0.00000000000E+00 -0.00000000000E+00 -0.20993669979E+04  0.20993669979E+04  0.00000000000E+00 0. -1.
         -6    2    1    2    0  503 -0.20106231158E+03  0.15581177668E+03 -0.11337678749E+04  0.11747236571E+04  0.17275043703E+03 0.  0.
        -24    2    3    3    0    0 -0.50826044775E+02  0.19516922758E+02 -0.50628218153E+03  0.51524840475E+03  0.78708793431E+02 0.  0.
          6    2    1    2  501    0  0.20106231158E+03 -0.15581177668E+03 -0.91990203756E+03  0.97034042616E+03  0.17503548511E+03 0.  0.
         24    2    5    5    0    0  0.80600145690E+02 -0.12137137225E+03 -0.36401222195E+03  0.40048706610E+03  0.81594110713E+02 0.  0.
          5    1    5    5  501    0  0.12046216589E+03 -0.34440404432E+02 -0.55588981561E+03  0.56985336006E+03  0.47000000000E+01 0. -1.
        -13    1    6    6    0    0  0.97121718603E+02 -0.96620332588E+02 -0.30682458078E+03  0.33601999980E+03  0.00000000000E+00 0.  1.
         14    1    6    6    0    0 -0.16521572913E+02 -0.24751039660E+02 -0.57187641164E+02  0.64467066302E+02  0.00000000000E+00 0. -1.
         -5    1    3    3    0  503 -0.15023626680E+03  0.13629485392E+03 -0.62748569339E+03  0.65947525236E+03  0.47000000000E+01 0.  1.
         13    1    4    4    0    0 -0.35888351071E+02  0.28208565139E+02 -0.48785150404E+03  0.48998243529E+03  0.00000000000E+00 0. -1.
        -14    1    4    4    0    0 -0.14937693704E+02 -0.86916423807E+01 -0.18430677482E+02  0.25265969463E+02  0.00000000000E+00 0.  1.
</event>
<event>
12    1  0.1039610E+000  0.4284418E+03  0.7818608E-02  0.1034946E+00
         21   -1    0    0  503  502  0.00000000000E+00  0.00000000000E+00  0.52161975200E+03  0.52161975200E+03  0.00000000000E+00 0.  1.
         21   -1    0    0  501  503 -0.00000000000E+00 -0.00000000000E+00 -0.34594575020E+03  0.34594575020E+03  0.00000000000E+00 0.  1.
          6    2    1    2  501    0  0.34604976649E+03 -0.16696532577E+03  0.95439717302E+02  0.43894316182E+03  0.18956397012E+03 0.  0.
         24    2    3    3    0    0  0.31287800183E+03 -0.68690136296E+02  0.77281327358E+02  0.33353824750E+03  0.51617633909E+02 0.  0.
         -6    2    1    2    0  502 -0.34604976649E+03  0.16696532577E+03  0.80234284492E+02  0.42862234038E+03  0.17219671706E+03 0.  0.
        -24    2    5    5    0    0 -0.19667524346E+03  0.13897106430E+03  0.10551705855E+03  0.27448689517E+03  0.78835892022E+02 0.  0.
          5    1    3    3  501    0  0.33171764658E+02 -0.98275189477E+02  0.18158389944E+02  0.10540491432E+03  0.47000000000E+01 0. -1.
        -13    1    4    4    0    0  0.23682095645E+03 -0.29030887665E+02  0.53333840792E+02  0.24448201657E+03  0.00000000000E+00 0.  1.
         14    1    4    4    0    0  0.76057045388E+02 -0.39659248631E+02  0.23947486566E+02  0.89056230933E+02  0.00000000000E+00 0. -1.
         -5    1    5    5    0  502 -0.14937452303E+03  0.27994261468E+02 -0.25282774058E+02  0.15413544521E+03  0.47000000000E+01 0.  1.
         11    1    6    6    0    0 -0.13551877010E+03  0.11648924686E+03  0.42171901165E+02  0.18361250211E+03  0.00000000000E+00 0. -1.
        -12    1    6    6    0    0 -0.61156473366E+02  0.22481817440E+02  0.63345157386E+02  0.90874393061E+02  0.00000000000E+00 0.  1.
</event>
<event>
12    1  0.1039610E+000  0.1983584E+03  0.7818608E-02  0.1151571E+00
         21   -1    0    0  501  502  0.00000000000E+00  0.00000000000E+00  0.31805571494E+03  0.31805571494E+03  0.00000000000E+00 0. -1.
         21   -1    0    0  502  503 -0.00000000000E+00 -0.00000000000E+00 -0.12251206456E+03  0.12251206456E+03  0.00000000000E+00 0. -1.
         -6    2    1    2    0  503  0.81951538787E+02 -0.49682557401E+02  0.91671348597E+02  0.21665821488E+03  0.17132639815E+03 0.  0.
        -24    2    3    3    0    0  0.27023332431E+01 -0.56749022243E+02  0.37296737283E+01  0.97972918054E+02  0.79730973125E+02 0.  0.
          6    2    1    2  501    0 -0.81951538787E+02  0.49682557401E+02  0.10387230178E+03  0.22390956462E+03  0.17367103049E+03 0.  0.
         24    2    5    5    0    0 -0.29349953419E+02 -0.21393986804E+02  0.28707880612E+01  0.89588316510E+02  0.81845602166E+02 0.  0.
          5    1    5    5  501    0 -0.52601585368E+02  0.71076544206E+02  0.10100151372E+03  0.13432124811E+03  0.47000000000E+01 0. -1.
        -11    1    6    6    0    0 -0.22850053661E+02  0.28356557106E+02  0.12493095006E+02  0.38500606567E+02  0.00000000000E+00 0.  1.
         12    1    6    6    0    0 -0.64998997572E+01 -0.49750543910E+02 -0.96223069448E+01  0.51087709942E+02  0.00000000000E+00 0. -1.
         -5    1    3    3    0  503  0.79249205544E+02  0.70664648412E+01  0.87941674869E+02  0.11868529683E+03  0.47000000000E+01 0.  1.
         13    1    4    4    0    0 -0.26447162075E+02 -0.10911966636E+02  0.26571001625E+02  0.39045377768E+02  0.00000000000E+00 0. -1.
        -14    1    4    4    0    0  0.29149495319E+02 -0.45837055607E+02 -0.22841327897E+02  0.58927540286E+02  0.00000000000E+00 0.  1.
</event>
<event>
12    1  0.1039610E+000  0.5167633E+03  0.7818608E-02  0.1009500E+00
         21   -1    0    0  501  502  0.00000000000E+00  0.00000000000E+00  0.19113235496E+03  0.19113235496E+03  0.00000000000E+00 0.  1.
         21   -1    0    0  502  503 -0.00000000000E+00 -0.00000000000E+00 -0.19015610017E+04  0.19015610017E+04  0.00000000000E+00 0.  1.
         -6    2    1    2    0  503 -0.41342578165E+03  0.25803733544E+03 -0.31623188046E+03  0.60584397409E+03  0.17187255540E+03 0.  0.
        -24    2    3    3    0    0 -0.29122676368E+03  0.11571248629E+03 -0.24009263410E+03  0.40333906670E+03  0.82677218196E+02 0.  0.
          6    2    1    2  501    0  0.41342578165E+03 -0.25803733544E+03 -0.13941967663E+04  0.14868493826E+04  0.17155850296E+03 0.  0.
         24    2    5    5    0    0  0.28162868877E+03 -0.10632625637E+03 -0.93777483623E+03  0.98812120667E+03  0.79635949669E+02 0.  0.
          5    1    5    5  501    0  0.13179709289E+03 -0.15171107908E+03 -0.45642193004E+03  0.49872817589E+03  0.47000000000E+01 0. -1.
        -11    1    6    6    0    0  0.35657015479E+02 -0.13631120037E+02 -0.54328116980E+02  0.66398603004E+02  0.00000000000E+00 0.  1.
         12    1    6    6    0    0  0.24597167329E+03 -0.92695136329E+02 -0.88344671925E+03  0.92172260367E+03  0.00000000000E+00 0. -1.
         -5    1    3    3    0  503 -0.12219901797E+03  0.14232484915E+03 -0.76139246357E+02  0.20250490739E+03  0.47000000000E+01 0.  1.
         13    1    4    4    0    0 -0.28885849008E+03  0.11504098021E+03 -0.21475021575E+03  0.37787737374E+03  0.00000000000E+00 0. -1.
        -14    1    4    4    0    0 -0.23682735949E+01  0.67150608235E+00 -0.25342418356E+02  0.25461692959E+02  0.00000000000E+00 0.  1.
</event>
<event>
12    1  0.1039610E+000  0.4386788E+03  0.7818608E-02  0.1031184E+00
         21   -1    0    0  501  502  0.00000000000E+00  0.00000000000E+00  0.23761475584E+03  0.23761475584E+03  0.00000000000E+00 0. -1.
         21   -1    0    0  502  503 -0.00000000000E+00 -0.00000000000E+00 -0.82268773995E+03  0.82268773995E+03  0.00000000000E+00 0.  1.
         -6    2    1    2    0  503  0.32823732976E+03 -0.23418428241E+03 -0.22438091325E+03  0.49237836656E+03  0.17177787650E+03 0.  0.
        -24    2    3    3    0    0  0.13014567170E+03 -0.60713359087E+02 -0.14090400714E+03  0.21611228090E+03  0.78908623716E+02 0.  0.
          6    2    1    2  501    0 -0.32823732976E+03  0.23418428241E+03 -0.36069207086E+03  0.56792412923E+03  0.17279185110E+03 0.  0.
         24    2    5    5    0    0 -0.23743597221E+03  0.14013501543E+03 -0.17889644971E+03  0.34395562917E+03  0.10142914605E+03 0.  0.
          5    1    5    5  501    0 -0.90801357547E+02  0.94049266978E+02 -0.18179562115E+03  0.22396850006E+03  0.47000000000E+01 0. -1.
        -11    1    6    6    0    0  0.67482370320E+01 -0.82168515643E+00 -0.18200006923E+02  0.19428178544E+02  0.00000000000E+00 0.  1.
         12    1    6    6    0    0 -0.24418420924E+03  0.14095670059E+03 -0.16069644279E+03  0.32452745063E+03  0.00000000000E+00 0. -1.
         -5    1    3    3    0  503  0.19809165806E+03 -0.17347092332E+03 -0.83476906113E+02  0.27626608566E+03  0.47000000000E+01 0.  1.
         11    1    4    4    0    0  0.18215001557E+02 -0.30272101616E+02 -0.23430135576E+01  0.35407289229E+02  0.00000000000E+00 0. -1.
        -12    1    4    4    0    0  0.11193067014E+03 -0.30441257471E+02 -0.13856099358E+03  0.18070499168E+03  0.00000000000E+00 0.  1.
</event>
<event>
12    1  0.1039610E+000  0.1920536E+03  0.7818608E-02  0.1156765E+00
         21   -1    0    0  503  502  0.00000000000E+00  0.00000000000E+00  0.40758967880E+03  0.40758967880E+03  0.00000000000E+00 0.  1.
         21   -1    0    0  501  503 -0.00000000000E+00 -0.00000000000E+00 -0.90382655715E+02  0.90382655715E+02  0.00000000000E+00 0.  1.
          6    2    1    2  501    0 -0.82038007269E+02  0.15174709680E+02  0.14689683766E+03  0.24128158590E+03  0.17227192554E+03 0.  0.
         24    2    3    3    0    0  0.97491639572E+01  0.48459231063E+02  0.75249018434E+02  0.12008651931E+03  0.79467062812E+02 0.  0.
         -6    2    1    2    0  502  0.82038007269E+02 -0.15174709680E+02  0.17031018543E+03  0.25669074862E+03  0.17298576449E+03 0.  0.
        -24    2    5    5    0    0  0.87145210866E+02 -0.51955083179E+02  0.65161320001E+02  0.14507868250E+03  0.80673465563E+02 0.  0.
          5    1    3    3  501    0 -0.91787171226E+02 -0.33284521383E+02  0.71647819228E+02  0.12119506659E+03  0.47000000000E+01 0. -1.
        -11    1    4    4    0    0 -0.94141919130E+01 -0.19970454671E+02  0.13038611705E+02  0.25640816374E+02  0.00000000000E+00 0.  1.
         12    1    4    4    0    0  0.19163355870E+02  0.68429685734E+02  0.62210406729E+02  0.94445702937E+02  0.00000000000E+00 0. -1.
         -5    1    5    5    0  502 -0.51072035963E+01  0.36780373500E+02  0.10514886543E+03  0.11161206612E+03  0.47000000000E+01 0.  1.
         13    1    6    6    0    0  0.54334151293E+02  0.46342813953E+01  0.57454174734E+02  0.79212743641E+02  0.00000000000E+00 0. -1.
        -14    1    6    6    0    0  0.32811059573E+02 -0.56589364575E+02  0.77071452668E+01  0.65865938856E+02  0.00000000000E+00 0.  1.
</event>
<event>
12    1  0.1039610E+000  0.2546089E+03  0.7818608E-02  0.1110466E+00
         21   -1    0    0  501  502  0.00000000000E+00  0.00000000000E+00  0.14786918466E+04  0.14786918466E+04  0.00000000000E+00 0. -1.
         21   -1    0    0  502  503 -0.00000000000E+00 -0.00000000000E+00 -0.47020364637E+02  0.47020364637E+02  0.00000000000E+00 0. -1.
         -6    2    1    2    0  503  0.18454297772E+03 -0.27478195390E+02  0.51569940595E+03  0.57501219998E+03  0.17286408239E+03 0.  0.
        -24    2    3    3    0    0  0.34932141638E+02  0.13649845488E+02  0.27289986482E+03  0.28683061626E+03  0.79943063532E+02 0.  0.
          6    2    1    2  501    0 -0.18454297772E+03  0.27478195390E+02  0.91597207599E+03  0.95070001124E+03  0.17324694953E+03 0.  0.
         24    2    5    5    0    0 -0.13393304124E+03  0.57623502440E+02  0.82976382468E+03  0.84618179368E+03  0.79101805482E+02 0.  0.
          5    1    5    5  501    0 -0.50609936483E+02 -0.30145307050E+02  0.86208251311E+02  0.10451821756E+03  0.47000000000E+01 0. -1.
        -13    1    6    6    0    0 -0.67352784262E+02 -0.11237375807E+02  0.28538639625E+03  0.29344176820E+03  0.00000000000E+00 0.  1.
         14    1    6    6    0    0 -0.66580256976E+02  0.68860878247E+02  0.54437742844E+03  0.55274002548E+03  0.00000000000E+00 0. -1.
         -5    1    3    3    0  503  0.14961083608E+03 -0.41128040877E+02  0.24279954114E+03  0.28818158372E+03  0.47000000000E+01 0.  1.
         13    1    4    4    0    0  0.41700714468E+02  0.43715562148E+01  0.57706079725E+02  0.71330580596E+02  0.00000000000E+00 0. -1.
        -14    1    4    4    0    0 -0.67685728302E+01  0.92782892729E+01  0.21519378509E+03  0.21550003567E+03  0.00000000000E+00 0.  1.
</event>
<event>
12    1  0.1039610E+000  0.2657621E+03  0.7818608E-02  0.1103932E+00
         21   -1    0    0  503  502  0.00000000000E+00  0.00000000000E+00  0.41184387002E+03  0.41184387002E+03  0.00000000000E+00 0.  1.
         21   -1    0    0  501  503 -0.00000000000E+00 -0.00000000000E+00 -0.17668136141E+03  0.17668136141E+03  0.00000000000E+00 0.  1.
          6    2    1    2  501    0 -0.78653091299E+02 -0.18539974160E+03  0.17184497445E+03  0.31532457545E+03  0.17128782701E+03 0.  0.
         24    2    3    3    0    0 -0.97389343716E+02 -0.96089985284E+02  0.56846206237E+02  0.16844337713E+03  0.80148054216E+02 0.  0.
         -6    2    1    2    0  502  0.78653091299E+02  0.18539974160E+03  0.63317534164E+02  0.27320065599E+03  0.17340736819E+03 0.  0.
        -24    2    5    5    0    0  0.31649561092E+02  0.15405957988E+03 -0.13045575814E+02  0.17809570262E+03  0.82533892279E+02 0.  0.
          5    1    3    3  501    0  0.18736252418E+02 -0.89309756320E+02  0.11499876821E+03  0.14688119832E+03  0.47000000000E+01 0. -1.
        -11    1    4    4    0    0 -0.30869913967E+02 -0.72392507554E+02  0.14834771243E+01  0.78713578516E+02  0.00000000000E+00 0.  1.
         12    1    4    4    0    0 -0.66519429749E+02 -0.23697477730E+02  0.55362729113E+02  0.89729798616E+02  0.00000000000E+00 0. -1.
         -5    1    5    5    0  502  0.47003530207E+02  0.31340161724E+02  0.76363109977E+02  0.95104953363E+02  0.47000000000E+01 0.  1.
         11    1    6    6    0    0  0.47886514159E+01  0.65770815901E+02  0.34346828347E+02  0.74353453344E+02  0.00000000000E+00 0. -1.
        -12    1    6    6    0    0  0.26860909676E+02  0.88288763978E+02 -0.47392404161E+02  0.10374224928E+03  0.00000000000E+00 0.  1.
</event>
<event>
12    1  0.1039610E+000  0.1724868E+03  0.7818608E-02  0.1175587E+00
         21   -1    0    0  501  502  0.00000000000E+00  0.00000000000E+00  0.10512032351E+03  0.10512032351E+03  0.00000000000E+00 0.  1.
         21   -1    0    0  502  503 -0.00000000000E+00 -0.00000000000E+00 -0.29360534652E+03  0.29360534652E+03  0.00000000000E+00 0.  1.
         -6    2    1    2    0  503 -0.16474498401E+02 -0.10078287474E+02 -0.13576949852E+03  0.21951093884E+03  0.17140220118E+03 0.  0.
        -24    2    3    3    0    0 -0.21336287007E+02 -0.36467850150E+02 -0.12325061186E+02  0.93096283384E+02  0.82035782491E+02 0.  0.
          6    2    1    2  501    0  0.16474498401E+02  0.10078287474E+02 -0.52715524491E+02  0.17921473118E+03  0.17019404329E+03 0.  0.
         24    2    5    5    0    0  0.43660842366E+02  0.56418762686E+02  0.52354186256E+01  0.10005073211E+03  0.69952794422E+02 0.  0.
          5    1    5    5  501    0 -0.27186343966E+02 -0.46340475212E+02 -0.57950943116E+02  0.79163999073E+02  0.47000000000E+01 0. -1.
        -13    1    6    6    0    0  0.80915530361E+01  0.16418840562E+02  0.34493277796E+02  0.39049171170E+02  0.00000000000E+00 0.  1.
         14    1    6    6    0    0  0.35569289330E+02  0.39999922124E+02 -0.29257859170E+02  0.61001560936E+02  0.00000000000E+00 0. -1.
         -5    1    3    3    0  503  0.48617886060E+01  0.26389562676E+02 -0.12344443733E+03  0.12641465546E+03  0.47000000000E+01 0.  1.
         11    1    4    4    0    0 -0.10917951482E+02  0.26021588180E+02  0.14785578261E+01  0.28257934271E+02  0.00000000000E+00 0. -1.
        -12    1    4    4    0    0 -0.10418335524E+02 -0.62489438330E+02 -0.13803619012E+02  0.64838349114E+02  0.00000000000E+00 0.  1.
</event>
<event>
12    1  0.1039610E+000  0.3124735E+03  0.7818608E-02  0.1079565E+00
         21   -1    0    0  501  502  0.00000000000E+00  0.00000000000E+00  0.24859544161E+03  0.24859544161E+03  0.00000000000E+00 0. -1.
         21   -1    0    0  502  503 -0.00000000000E+00 -0.00000000000E+00 -0.12810854925E+04  0.12810854925E+04  0.00000000000E+00 0.  1.
         -6    2    1    2    0  503 -0.23567465619E+03 -0.10349508364E+03 -0.11554774660E+04  0.11969828077E+04  0.17716063790E+03 0.  0.
        -24    2    3    3    0    0 -0.18638959940E+03 -0.11907516499E+02 -0.70800496433E+03  0.73755813595E+03  0.88533059765E+02 0.  0.
          6    2    1    2  501    0  0.23567465619E+03  0.10349508364E+03  0.12298741512E+03  0.33269812639E+03  0.17119685488E+03 0.  0.
         24    2    5    5    0    0  0.13516381784E+03  0.12335718662E+03  0.11590470312E+03  0.22989157714E+03  0.77006388633E+02 0.  0.
          5    1    5    5  501    0  0.10051083835E+03 -0.19862102975E+02  0.70827119965E+01  0.10280654926E+03  0.47000000000E+01 0. -1.
        -11    1    6    6    0    0  0.57342326805E+02  0.27690110490E+02  0.47275451615E+01  0.63853225021E+02  0.00000000000E+00 0.  1.
         12    1    6    6    0    0  0.77821491033E+02  0.95667076127E+02  0.11117715796E+03  0.16603835212E+03  0.00000000000E+00 0. -1.
         -5    1    3    3    0  503 -0.49285056785E+02 -0.91587567142E+02 -0.44747250167E+03  0.45942467177E+03  0.47000000000E+01 0.  1.
         11    1    4    4    0    0 -0.23190012312E+02  0.29275941777E+02 -0.10240062668E+03  0.10899883386E+03  0.00000000000E+00 0. -1.
        -12    1    4    4    0    0 -0.16319958709E+03 -0.41183458277E+02 -0.60560433766E+03  0.62855930210E+03  0.00000000000E+00 0.  1.
</event>
<event>
12    1  0.1039610E+000  0.2021680E+03  0.7818608E-02  0.1149065E+00
         21   -1    0    0  501  502  0.00000000000E+00  0.00000000000E+00  0.32513789729E+03  0.32513789729E+03  0.00000000000E+00 0.  1.
         21   -1    0    0  502  503 -0.00000000000E+00 -0.00000000000E+00 -0.19139824133E+03  0.19139824133E+03  0.00000000000E+00 0.  1.
         -6    2    1    2    0  503 -0.34221297269E+02 -0.89380416960E+02 -0.88810340782E+02  0.21586953611E+03  0.17190818441E+03 0.  0.
        -24    2    3    3    0    0 -0.86275924814E+02 -0.47802708061E+02 -0.76383608598E+02  0.14793645286E+03  0.79511661555E+02 0.  0.
          6    2    1    2  501    0  0.34221297269E+02  0.89380416960E+02  0.22254999674E+03  0.30066660252E+03  0.17807849026E+03 0.  0.
         24    2    5    5    0    0 -0.32002833900E+02  0.91355489157E+02  0.18731900107E+03  0.22548116832E+03  0.79895821708E+02 0.  0.
          5    1    5    5  501    0  0.66224131169E+02 -0.19750721974E+01  0.35230995668E+02  0.75185434195E+02  0.47000000000E+01 0. -1.
        -13    1    6    6    0    0  0.16212294464E+02  0.64694393222E+02  0.12919375721E+03  0.14539336267E+03  0.00000000000E+00 0.  1.
         14    1    6    6    0    0 -0.48215128365E+02  0.26661095935E+02  0.58125243866E+02  0.80087805652E+02  0.00000000000E+00 0. -1.
         -5    1    3    3    0  503  0.52054627545E+02 -0.41577708899E+02 -0.12426732185E+02  0.67933083243E+02  0.47000000000E+01 0.  1.
         13    1    4    4    0    0 -0.40395619030E+02  0.18472700990E+02 -0.15968707569E+02  0.47202185755E+02  0.00000000000E+00 0. -1.
        -14    1    4    4    0    0 -0.45880305784E+02 -0.66275409051E+02 -0.60414901028E+02  0.10073426711E+03  0.00000000000E+00 0.  1.
</event>
<event>
12    1  0.1039610E+000  0.3369495E+03  0.7818608E-02  0.1068242E+00
         21   -1    0    0  503  502  0.00000000000E+00  0.00000000000E+00  0.23435033222E+03  0.23435033222E+03  0.00000000000E+00 0.  1.
         21   -1    0    0  501  503 -0.00000000000E+00 -0.00000000000E+00 -0.54857303977E+03  0.54857303977E+03  0.00000000000E+00 0.  1.
          6    2    1    2  501    0 -0.22765463867E+03  0.17906099922E+03 -0.29259229976E+03  0.44528032728E+03  0.16963148302E+03 0.  0.
         24    2    3    3    0    0 -0.61201933712E+02  0.79801092926E+02 -0.55320198117E+02  0.13888324471E+03  0.78194246718E+02 0.  0.
         -6    2    1    2    0  502  0.22765463867E+03 -0.17906099922E+03 -0.21630407794E+02  0.33764304471E+03  0.17217861409E+03 0.  0.
        -24    2    5    5    0    0  0.24958222653E+03 -0.15798022254E+03 -0.15194674790E+02  0.30619901644E+03  0.79233332717E+02 0.  0.
          5    1    3    3  501    0 -0.16645270496E+03  0.99259906295E+02 -0.23727210164E+03  0.30639708256E+03  0.47000000000E+01 0. -1.
        -11    1    4    4    0    0  0.17223014038E+02  0.18607468633E+02 -0.23157631849E+02  0.34338695583E+02  0.00000000000E+00 0.  1.
         12    1    4    4    0    0 -0.78424947750E+02  0.61193624293E+02 -0.32162566268E+02  0.10454454913E+03  0.00000000000E+00 0. -1.
         -5    1    5    5    0  502 -0.21927587858E+02 -0.21080776681E+02 -0.64357330041E+01  0.31444028273E+02  0.47000000000E+01 0.  1.
         11    1    6    6    0    0  0.15998378545E+03 -0.13605191701E+03  0.11028808668E+02  0.21030114205E+03  0.00000000000E+00 0. -1.
        -12    1    6    6    0    0  0.89598441077E+02 -0.21928305534E+02 -0.26223483458E+02  0.95897874385E+02  0.00000000000E+00 0.  1.
</event>
<event>
12    1  0.1039610E+000  0.2302188E+03  0.7818608E-02  0.1126524E+00
         21   -1    0    0  503  502  0.00000000000E+00  0.00000000000E+00  0.20057208770E+03  0.20057208770E+03  0.00000000000E+00 0.  1.
         21   -1    0    0  501  503 -0.00000000000E+00 -0.00000000000E+00 -0.29714728458E+03  0.29714728458E+03  0.00000000000E+00 0.  1.
          6    2    1    2  501    0 -0.35593449700E+02 -0.14954227029E+03 -0.13138775809E+03  0.26488332475E+03  0.17108666952E+03 0.  0.
         24    2    3    3    0    0 -0.12885787590E+02 -0.13660344710E+03 -0.38821130367E+02  0.16858316051E+03  0.89925839235E+02 0.  0.
         -6    2    1    2    0  502  0.35593449700E+02  0.14954227029E+03  0.34812561211E+02  0.23283604752E+03  0.17137948052E+03 0.  0.
        -24    2    5    5    0    0  0.25034986347E+02  0.12420004061E+03 -0.38604151766E+02  0.15431335337E+03  0.79182888713E+02 0.  0.
          5    1    3    3  501    0 -0.22707662109E+02 -0.12938823189E+02 -0.92566627724E+02  0.96300164238E+02  0.47000000000E+01 0. -1.
        -13    1    4    4    0    0 -0.12804436390E+02  0.10294138473E+02  0.75859451977E+00  0.16446833854E+02  0.00000000000E+00 0.  1.
         14    1    4    4    0    0 -0.81351200456E-01 -0.14689758558E+03 -0.39579724887E+02  0.15213632666E+03  0.00000000000E+00 0. -1.
         -5    1    5    5    0  502  0.10558463353E+02  0.25342229685E+02  0.73416712977E+02  0.78522694160E+02  0.47000000000E+01 0.  1.
         13    1    6    6    0    0  0.29399025398E+02  0.70214197684E+01 -0.18226564226E+02  0.35296043311E+02  0.00000000000E+00 0. -1.
        -14    1    6    6    0    0 -0.43640390515E+01  0.11717862084E+03 -0.20377587540E+02  0.11901731005E+03  0.00000000000E+00 0.  1.
</event>
<event>
12    1  0.1039610E+000  0.1827665E+03  0.7818608E-02  0.1165897E+00
         21   -1    0    0  503  502  0.00000000000E+00  0.00000000000E+00  0.84441157257E+03  0.84441157257E+03  0.00000000000E+00 0. -1.
         21   -1    0    0  501  503 -0.00000000000E+00 -0.00000000000E+00 -0.39057248368E+02  0.39057248368E+02  0.00000000000E+00 0. -1.
          6    2    1    2  501    0 -0.37447898241E+02  0.34372641442E+02  0.37703158305E+03  0.41899452203E+03  0.17555560746E+03 0.  0.
         24    2    3    3    0    0  0.16318299156E+02  0.60607786074E+02  0.32107415071E+03  0.33694325128E+03  0.80638413378E+02 0.  0.
         -6    2    1    2    0  502  0.37447898241E+02 -0.34372641442E+02  0.42832274116E+03  0.46447429891E+03  0.17231419035E+03 0.  0.
        -24    2    5    5    0    0 -0.45877489642E+02 -0.14675398032E+02  0.22112083837E+03  0.24022929856E+03  0.80595157193E+02 0.  0.
          5    1    3    3  501    0 -0.53766197398E+02 -0.26235144632E+02  0.55957432337E+02  0.82051270741E+02  0.47000000000E+01 0. -1.
        -13    1    4    4    0    0  0.41508636426E+02  0.45583571958E+02  0.13297936658E+03  0.14657537605E+03  0.00000000000E+00 0.  1.
         14    1    4    4    0    0 -0.25190337270E+02  0.15024214116E+02  0.18809478413E+03  0.19036787523E+03  0.00000000000E+00 0. -1.
         -5    1    5    5    0  502  0.83325387883E+02 -0.19697243410E+02  0.20720190279E+03  0.22424500035E+03  0.47000000000E+01 0.  1.
         11    1    6    6    0    0 -0.42056570802E+02  0.18761467847E+02  0.18588153178E+03  0.19150115321E+03  0.00000000000E+00 0. -1.
        -12    1    6    6    0    0 -0.38209188397E+01 -0.33436865879E+02  0.35239306589E+02  0.48728145352E+02  0.00000000000E+00 0.  1.
</event>
<event>
12    1  0.1039610E+000  0.2358388E+03  0.7818608E-02  0.1123015E+00
         21   -1    0    0  503  502  0.00000000000E+00  0.00000000000E+00  0.87312611193E+03  0.87312611193E+03  0.00000000000E+00 0. -1.
         21   -1    0    0  501  503 -0.00000000000E+00 -0.00000000000E+00 -0.64696119912E+02  0.64696119912E+02  0.00000000000E+00 0. -1.
          6    2    1    2  501    0 -0.13952957784E+03 -0.75135869938E+02  0.47709369778E+03  0.53112371104E+03  0.17134788568E+03 0.  0.
         24    2    3    3    0    0 -0.56263526189E+02 -0.66606432768E+01  0.10531356280E+03  0.14400015094E+03  0.80219376789E+02 0.  0.
         -6    2    1    2    0  502  0.13952957784E+03  0.75135869938E+02  0.33133629424E+03  0.40669852080E+03  0.17465979759E+03 0.  0.
        -24    2    5    5    0    0  0.11749877453E+03  0.66055210752E+01  0.29243651668E+03  0.32474092381E+03  0.78025357312E+02 0.  0.
          5    1    3    3  501    0 -0.83266051655E+02 -0.68475226661E+02  0.37178013497E+03  0.38712356010E+03  0.47000000000E+01 0. -1.
        -13    1    4    4    0    0 -0.54250013687E+02 -0.28083473743E+02  0.10614329557E+03  0.12246691258E+03  0.00000000000E+00 0.  1.
         14    1    4    4    0    0 -0.20135125019E+01  0.21422830466E+02 -0.82973276726E+00  0.21533238359E+02  0.00000000000E+00 0. -1.
         -5    1    5    5    0  502  0.22030803310E+02  0.68530348862E+02  0.38899777557E+02  0.81957596986E+02  0.47000000000E+01 0.  1.
         11    1    6    6    0    0  0.12740924413E+02 -0.27643125448E+02  0.75720951373E+02  0.81609656391E+02  0.00000000000E+00 0. -1.
        -12    1    6    6    0    0  0.10475785012E+03  0.34248646523E+02  0.21671556531E+03  0.24313126742E+03  0.00000000000E+00 0.  1.
</event>
<event>
12    1  0.1039610E+000  0.2040585E+03  0.7818608E-02  0.1146813E+00
         21   -1    0    0  501  502  0.00000000000E+00  0.00000000000E+00  0.10117291703E+03  0.10117291703E+03  0.00000000000E+00 0. -1.
         21   -1    0    0  502  503 -0.00000000000E+00 -0.00000000000E+00 -0.43057494684E+03  0.43057494684E+03  0.00000000000E+00 0. -1.
         -6    2    1    2    0  503  0.51450554840E+02 -0.88812293355E+02 -0.10185249462E+03  0.22610318124E+03  0.17382156041E+03 0.  0.
        -24    2    3    3    0    0  0.82282326437E+02 -0.70588203523E+02 -0.12483908884E+03  0.18328742359E+03  0.79097445117E+02 0.  0.
          6    2    1    2  501    0 -0.51450554840E+02  0.88812293355E+02 -0.22754953519E+03  0.30564468262E+03  0.17636637437E+03 0.  0.
         24    2    5    5    0    0 -0.93914948494E+02  0.34636842982E+02 -0.10618913195E+03  0.16604295762E+03  0.79211132974E+02 0.  0.
          5    1    5    5  501    0  0.42464393654E+02  0.54175450373E+02 -0.12136040323E+03  0.13960172501E+03  0.47000000000E+01 0. -1.
        -13    1    6    6    0    0  0.11414619050E+02 -0.53848392856E+01 -0.22091556637E+02  0.25442619693E+02  0.00000000000E+00 0.  1.
         14    1    6    6    0    0 -0.10532956754E+03  0.40021682267E+02 -0.84097575315E+02  0.14060033792E+03  0.00000000000E+00 0. -1.
         -5    1    3    3    0  503 -0.30831771597E+02 -0.18224089831E+02  0.22986594213E+02  0.42815757654E+02  0.47000000000E+01 0.  1.
         11    1    4    4    0    0  0.46220953849E+02 -0.26307751561E+02 -0.87307422113E+01  0.53895270910E+02  0.00000000000E+00 0. -1.
        -12    1    4    4    0    0  0.36061372588E+02 -0.44280451962E+02 -0.11610834663E+03  0.12939215268E+03  0.00000000000E+00 0.  1.
</event>
<event>
12    1  0.1039610E+000  0.2421868E+03  0.7818608E-02  0.1118972E+00
         21   -1    0    0  503  502  0.00000000000E+00  0.00000000000E+00  0.29031341776E+03  0.29031341776E+03  0.00000000000E+00 0. -1.
         21   -1    0    0  501  503 -0.00000000000E+00 -0.00000000000E+00 -0.23612814758E+03  0.23612814758E+03  0.00000000000E+00 0. -1.
          6    2    1    2  501    0  0.35655026679E+02  0.16159461438E+03  0.13142936658E+03  0.27223481372E+03  0.17162172088E+03 0.  0.
         24    2    3    3    0    0 -0.88166209104E-01  0.14579465450E+03  0.15469670192E+03  0.22651093087E+03  0.78230704735E+02 0.  0.
         -6    2    1    2    0  502 -0.35655026679E+02 -0.16159461438E+03 -0.77244096399E+02  0.25420675162E+03  0.17683416473E+03 0.  0.
        -24    2    5    5    0    0  0.30283482679E+00 -0.17961937735E+03 -0.44054772909E+02  0.20184759695E+03  0.80860478288E+02 0.  0.
          5    1    3    3  501    0  0.35743192888E+02  0.15799959874E+02 -0.23267335335E+02  0.45723882856E+02  0.47000000000E+01 0. -1.
        -13    1    4    4    0    0  0.40121340218E+00  0.20825670904E+02  0.76055334818E+02  0.78856093583E+02  0.00000000000E+00 0.  1.
         14    1    4    4    0    0 -0.48937961129E+00  0.12496898360E+03  0.78641367097E+02  0.14765483728E+03  0.00000000000E+00 0. -1.
         -5    1    5    5    0  502 -0.35957861505E+02  0.18024762972E+02 -0.33189323489E+02  0.52359154672E+02  0.47000000000E+01 0.  1.
         13    1    6    6    0    0  0.24068470526E+02 -0.13904485719E+02 -0.16091320295E+02  0.32117854620E+02  0.00000000000E+00 0. -1.
        -14    1    6    6    0    0 -0.23765635699E+02 -0.16571489163E+03 -0.27963452614E+02  0.16972974233E+03  0.00000000000E+00 0.  1.
</event>
<event>
12    1  0.1039610E+000  0.2307566E+03  0.7818608E-02  0.1126183E+00
         21   -1    0    0  501  502  0.00000000000E+00  0.00000000000E+00  0.23209678858E+03  0.23209678858E+03  0.00000000000E+00 0. -1.
         21   -1    0    0  502  503 -0.00000000000E+00 -0.00000000000E+00 -0.22906715778E+03  0.22906715778E+03  0.00000000000E+00 0. -1.
         -6    2    1    2    0  503  0.28111948331E+02 -0.15037838068E+03 -0.24153077411E+01  0.23034307075E+03  0.17218640340E+03 0.  0.
        -24    2    3    3    0    0  0.16729976900E+02 -0.23256954139E+02  0.41742635171E+02  0.95208248144E+02  0.80631165691E+02 0.  0.
          6    2    1    2  501    0 -0.28111948331E+02  0.15037838068E+03  0.54449385416E+01  0.23082087561E+03  0.17275615835E+03 0.  0.
         24    2    5    5    0    0 -0.40010812473E+02  0.16192143554E+02  0.35881961004E+02  0.92632484141E+02  0.73689967872E+02 0.  0.
          5    1    5    5  501    0  0.11898864142E+02  0.13418623712E+03 -0.30437022462E+02  0.13818839147E+03  0.47000000000E+01 0. -1.
        -13    1    6    6    0    0 -0.48696412312E+01  0.10775781323E+02  0.52191408248E+02  0.53514240757E+02  0.00000000000E+00 0.  1.
         14    1    6    6    0    0 -0.35141171242E+02  0.54163622311E+01 -0.16309447244E+02  0.39118243385E+02  0.00000000000E+00 0. -1.
         -5    1    3    3    0  503  0.11381971432E+02 -0.12712142654E+03 -0.44157942912E+02  0.13513482261E+03  0.47000000000E+01 0.  1.
         11    1    4    4    0    0  0.26422449879E+02 -0.32283029339E+02  0.59739069787E+02  0.72863545755E+02  0.00000000000E+00 0. -1.
        -12    1    4    4    0    0 -0.96924729794E+01  0.90260751998E+01 -0.17996434616E+02  0.22344702389E+02  0.00000000000E+00 0.  1.
</event>
<event>
12    1  0.1039610E+000  0.3338346E+03  0.7818608E-02  0.1069491E+00
         21   -1    0    0  501  502  0.00000000000E+00  0.00000000000E+00  0.37366782193E+03  0.37366782193E+03  0.00000000000E+00 0.  1.
         21   -1    0    0  502  503 -0.00000000000E+00 -0.00000000000E+00 -0.30803803328E+03  0.30803803328E+03  0.00000000000E+00 0.  1.
         -6    2    1    2    0  503  0.37232049417E+01 -0.28559232207E+03 -0.28935527411E+02  0.33473596186E+03  0.17214546969E+03 0.  0.
        -24    2    3    3    0    0 -0.32287674300E+02 -0.18558670528E+03 -0.75858200090E+02  0.21845297073E+03  0.80512823906E+02 0.  0.
          6    2    1    2  501    0 -0.37232049417E+01  0.28559232207E+03  0.94565316057E+02  0.34696989335E+03  0.17282555139E+03 0.  0.
         24    2    5    5    0    0 -0.40072775473E+01  0.93332479975E+02 -0.19678114741E+02  0.12327908205E+03  0.77996754938E+02 0.  0.
          5    1    5    5  501    0  0.28407260558E+00  0.19225984209E+03  0.11424343080E+03  0.22369081130E+03  0.47000000000E+01 0. -1.
        -13    1    6    6    0    0  0.20043898282E+02  0.75986729552E+02 -0.39156077150E+02  0.87800565511E+02  0.00000000000E+00 0.  1.
         14    1    6    6    0    0 -0.24051175829E+02  0.17345750423E+02  0.19477962409E+02  0.35478516543E+02  0.00000000000E+00 0. -1.
         -5    1    3    3    0  503  0.36010879242E+02 -0.10000561679E+03  0.46922672679E+02  0.11628299112E+03  0.47000000000E+01 0.  1.
         13    1    4    4    0    0 -0.35622175328E+02 -0.71351750576E+02  0.26627074617E+01  0.79794120688E+02  0.00000000000E+00 0. -1.
        -14    1    4    4    0    0  0.33345010280E+01 -0.11423495470E+03 -0.78520907551E+02  0.13865885004E+03  0.00000000000E+00 0.  1.
</event>
<event>
12    1  0.1039610E+000  0.2196447E+03  0.7818608E-02  0.1134720E+00
         21   -1    0    0  503  502  0.00000000000E+00  0.00000000000E+00  0.17989625805E+03  0.17989625805E+03  0.00000000000E+00 0. -1.
         21   -1    0    0  501  503 -0.00000000000E+00 -0.00000000000E+00 -0.27482412693E+03  0.27482412693E+03  0.00000000000E+00 0. -1.
          6    2    1    2  501    0  0.17235355143E+02 -0.13167657077E+03 -0.91891203341E+02  0.23809198034E+03  0.17495148212E+03 0.  0.
         24    2    3    3    0    0  0.43093234972E+02 -0.87247288069E+01 -0.51307028521E+02  0.10597479510E+03  0.81640052844E+02 0.  0.
         -6    2    1    2    0  502 -0.17235355143E+02  0.13167657077E+03 -0.30366655443E+01  0.21662840464E+03  0.17112237611E+03 0.  0.
        -24    2    5    5    0    0  0.69891894559E+01 -0.45411506978E+00  0.11601555561E+02  0.81418515145E+02  0.80282772294E+02 0.  0.
          5    1    3    3  501    0 -0.25857879829E+02 -0.12295184196E+03 -0.40584174820E+02  0.13211718524E+03  0.47000000000E+01 0. -1.
        -11    1    4    4    0    0  0.40906032677E+02  0.17319728026E+02  0.42026226607E+01  0.44619934172E+02  0.00000000000E+00 0.  1.
         12    1    4    4    0    0  0.21872022956E+01 -0.26044456833E+02 -0.55509651182E+02  0.61354860932E+02  0.00000000000E+00 0. -1.
         -5    1    5    5    0  502 -0.24224544599E+02  0.13213068583E+03 -0.14638221105E+02  0.13520988950E+03  0.47000000000E+01 0.  1.
         11    1    6    6    0    0 -0.14283608881E+02  0.11682835462E+02 -0.28781514639E+02  0.34188970620E+02  0.00000000000E+00 0. -1.
        -12    1    6    6    0    0  0.21272798337E+02 -0.12136950532E+02  0.40383070200E+02  0.47229544525E+02  0.00000000000E+00 0.  1.
</event>
<event>
12    1  0.1039610E+000  0.2017698E+03  0.7818608E-02  0.1151376E+00
         21   -1    0    0  503  502  0.00000000000E+00  0.00000000000E+00  0.28076610344E+03  0.28076610344E+03  0.00000000000E+00 0. -1.
         21   -1    0    0  501  503 -0.00000000000E+00 -0.00000000000E+00 -0.13943931055E+03  0.13943931055E+03  0.00000000000E+00 0. -1.
          6    2    1    2  501    0 -0.90549363491E+02 -0.53948966962E+02  0.35065228376E+02  0.20479407904E+03  0.17205047603E+03 0.  0.
         24    2    3    3    0    0 -0.45910184865E+02  0.37498557150E+02  0.21629626211E+02  0.10204238153E+03  0.80193017377E+02 0.  0.
         -6    2    1    2    0  502  0.90549363491E+02  0.53948966962E+02  0.10626156452E+03  0.21541133495E+03  0.15492206062E+03 0.  0.
        -24    2    5    5    0    0  0.36909390000E+02 -0.16811585714E+02  0.20107061320E+02  0.91601032504E+02  0.79633678531E+02 0.  0.
          5    1    3    3  501    0 -0.44639178626E+02 -0.91447524111E+02  0.13435602165E+02  0.10275169750E+03  0.47000000000E+01 0. -1.
        -13    1    4    4    0    0 -0.46126410764E+02  0.12476375988E+02  0.46562144574E+02  0.66718356058E+02  0.00000000000E+00 0.  1.
         14    1    4    4    0    0  0.21622589846E+00  0.25022181161E+02 -0.24932518364E+02  0.35324025474E+02  0.00000000000E+00 0. -1.
         -5    1    5    5    0  502  0.53639973491E+02  0.70760552676E+02  0.86154503201E+02  0.12381030245E+03  0.47000000000E+01 0.  1.
         13    1    6    6    0    0 -0.12813132767E+02 -0.25661852710E+02 -0.12708485673E+02  0.31372163839E+02  0.00000000000E+00 0. -1.
        -14    1    6    6    0    0  0.49722522767E+02  0.88502669959E+01  0.32815546993E+02  0.60228868665E+02  0.00000000000E+00 0.  1.
</event>
<event>
12    1  0.1039610E+000  0.5742502E+03  0.7818608E-02  0.9960328E-01
         21   -1    0    0  503  502  0.00000000000E+00  0.00000000000E+00  0.11886944539E+04  0.11886944539E+04  0.00000000000E+00 0.  1.
         21   -1    0    0  501  503 -0.00000000000E+00 -0.00000000000E+00 -0.27740967521E+03  0.27740967521E+03  0.00000000000E+00 0.  1.
          6    2    1    2  501    0 -0.53536267132E+03  0.11456285858E+03  0.45800840441E+03  0.73453043629E+03  0.17327846062E+03 0.  0.
         24    2    3    3    0    0 -0.39325590164E+03  0.15266270621E+03  0.32171256984E+03  0.53391992584E+03  0.60128226154E+02 0.  0.
         -6    2    1    2    0  502  0.53536267132E+03 -0.11456285858E+03  0.45327637424E+03  0.73157369277E+03  0.17321304252E+03 0.  0.
        -24    2    5    5    0    0  0.25272414218E+03 -0.19481618725E+02  0.28311326905E+03  0.38820428135E+03  0.79375156319E+02 0.  0.
          5    1    3    3  501    0 -0.14210676968E+03 -0.38099847632E+02  0.13629583457E+03  0.20061051045E+03  0.47000000000E+01 0. -1.
        -11    1    4    4    0    0 -0.14658858241E+02  0.17947341712E+02  0.95281206400E+01  0.25055424211E+02  0.00000000000E+00 0.  1.
         12    1    4    4    0    0 -0.37859704340E+03  0.13471536450E+03  0.31218444920E+03  0.50886450163E+03  0.00000000000E+00 0. -1.
         -5    1    5    5    0  502  0.28263852915E+03 -0.95081239850E+02  0.17016310518E+03  0.34336941141E+03  0.47000000000E+01 0.  1.
         13    1    6    6    0    0  0.57586236833E+02 -0.29277409125E+02  0.38744462740E+02  0.75329109584E+02  0.00000000000E+00 0. -1.
        -14    1    6    6    0    0  0.19513790534E+03  0.97957904000E+01  0.24436880631E+03  0.31287517177E+03  0.00000000000E+00 0.  1.
</event>
<event>
12    1  0.1039610E+000  0.8817310E+03  0.7818608E-02  0.9448827E-01
         21   -1    0    0  501  502  0.00000000000E+00  0.00000000000E+00  0.10968633304E+04  0.10968633304E+04  0.00000000000E+00 0. -1.
         21   -1    0    0  502  503 -0.00000000000E+00 -0.00000000000E+00 -0.70850685037E+03  0.70850685037E+03  0.00000000000E+00 0. -1.
         -6    2    1    2    0  503  0.81352155209E+03  0.29263943919E+03  0.19225311734E+03  0.90244708178E+03  0.17318867517E+03 0.  0.
        -24    2    3    3    0    0  0.51644567826E+03  0.15119989496E+03  0.58549737392E+02  0.54725994337E+03  0.80547048611E+02 0.  0.
          6    2    1    2  501    0 -0.81352155209E+03 -0.29263943919E+03  0.19610336268E+03  0.90292309898E+03  0.17134303817E+03 0.  0.
         24    2    5    5    0    0 -0.56387545909E+03 -0.14798063299E+03  0.17326158070E+03  0.61345258413E+03  0.80316228294E+02 0.  0.
          5    1    5    5  501    0 -0.24964609300E+03 -0.14465880620E+03  0.22841781983E+02  0.28947051485E+03  0.47000000000E+01 0. -1.
        -13    1    6    6    0    0 -0.16703191430E+03 -0.75847216552E+02  0.32841402535E+02  0.18636259918E+03  0.00000000000E+00 0.  1.
         14    1    6    6    0    0 -0.39684354478E+03 -0.72133416436E+02  0.14042017817E+03  0.42708998494E+03  0.00000000000E+00 0. -1.
         -5    1    3    3    0  503  0.29707587383E+03  0.14143954423E+03  0.13370337995E+03  0.35518713841E+03  0.47000000000E+01 0.  1.
         11    1    4    4    0    0  0.23231623026E+03  0.91380281890E+02 -0.64079617151E+01  0.24972434549E+03  0.00000000000E+00 0. -1.
        -12    1    4    4    0    0  0.28412944800E+03  0.59819613068E+02  0.64957699107E+02  0.29753559787E+03  0.00000000000E+00 0.  1.
</event>
<event>
12    1  0.1039610E+000  0.1758450E+03  0.7818608E-02  0.1172079E+00
         21   -1    0    0  501  502  0.00000000000E+00  0.00000000000E+00  0.11170078235E+03  0.11170078235E+03  0.00000000000E+00 0.  1.
         21   -1    0    0  502  503 -0.00000000000E+00 -0.00000000000E+00 -0.27896030053E+03  0.27896030053E+03  0.00000000000E+00 0.  1.
         -6    2    1    2    0  503  0.31802942296E+02  0.16048929163E+01 -0.10522264563E+03  0.20492255956E+03  0.17293769816E+03 0.  0.
        -24    2    3    3    0    0 -0.50461178847E+02 -0.18485710129E+02 -0.65147947368E+02  0.11111909801E+03  0.72215973631E+02 0.  0.
          6    2    1    2  501    0 -0.31802942296E+02 -0.16048929163E+01 -0.62036872547E+02  0.18573852332E+03  0.17215174315E+03 0.  0.
         24    2    5    5    0    0 -0.62482312668E+02  0.92438875367E+01  0.95611163705E+01  0.10695221854E+03  0.85778046445E+02 0.  0.
          5    1    5    5  501    0  0.30679370372E+02 -0.10848780453E+02 -0.71597988917E+02  0.78786304779E+02  0.47000000000E+01 0. -1.
        -13    1    6    6    0    0 -0.52270279927E+01 -0.19433562118E+02 -0.26644184760E+02  0.33390084453E+02  0.00000000000E+00 0.  1.
         14    1    6    6    0    0 -0.57255284675E+02  0.28677449655E+02  0.36205301131E+02  0.73562134090E+02  0.00000000000E+00 0. -1.
         -5    1    3    3    0  503  0.82264121143E+02  0.20090603046E+02 -0.40074698263E+02  0.93803461551E+02  0.47000000000E+01 0.  1.
         13    1    4    4    0    0 -0.12615617625E+02  0.23284248256E+02 -0.43119571221E+02  0.50602445071E+02  0.00000000000E+00 0. -1.
        -14    1    4    4    0    0 -0.37845561222E+02 -0.41769958385E+02 -0.22028376146E+02  0.60516652942E+02  0.00000000000E+00 0.  1.
</event>
<event>
12    1  0.1039610E+000  0.2746565E+03  0.7818608E-02  0.1098821E+00
         21   -1    0    0  501  502  0.00000000000E+00  0.00000000000E+00  0.10019992335E+04  0.10019992335E+04  0.00000000000E+00 0. -1.
         21   -1    0    0  502  503 -0.00000000000E+00 -0.00000000000E+00 -0.75855467155E+02  0.75855467155E+02  0.00000000000E+00 0. -1.
         -6    2    1    2    0  503 -0.15366008964E+02  0.21182940397E+03  0.52120290504E+03  0.58855590777E+03  0.17215625965E+03 0.  0.
        -24    2    3    3    0    0  0.57741491270E+02  0.10004766049E+03  0.26565392114E+03  0.30016860234E+03  0.78648393682E+02 0.  0.
          6    2    1    2  501    0  0.15366008964E+02 -0.21182940397E+03  0.40494086130E+03  0.48929879287E+03  0.17415050083E+03 0.  0.
         24    2    5    5    0    0 -0.68007004924E+01 -0.33268016103E+02  0.74279328328E+02  0.11282213804E+03  0.77835761661E+02 0.  0.
          5    1    5    5  501    0  0.22166709456E+02 -0.17856138787E+03  0.33066153297E+03  0.37647665483E+03  0.47000000000E+01 0. -1.
        -11    1    6    6    0    0 -0.17368621959E+02 -0.25074119932E+02  0.88316195643E+02  0.93435169673E+02  0.00000000000E+00 0.  1.
         12    1    6    6    0    0  0.10567921466E+02 -0.81938961702E+01 -0.14036867315E+02  0.19386968370E+02  0.00000000000E+00 0. -1.
         -5    1    3    3    0  503 -0.73107500234E+02  0.11178174347E+03  0.25554898390E+03  0.28838730544E+03  0.47000000000E+01 0.  1.
         13    1    4    4    0    0  0.33300377399E+02  0.13629739122E+02  0.14711352134E+03  0.15144990289E+03  0.00000000000E+00 0. -1.
        -14    1    4    4    0    0  0.24441113871E+02  0.86417921373E+02  0.11854039979E+03  0.14871869944E+03  0.00000000000E+00 0.  1.
</event>
<event>
12    1  0.1039610E+000  0.2615149E+03  0.7818608E-02  0.1106306E+00
         21   -1    0    0  503  502  0.00000000000E+00  0.00000000000E+00  0.63970779895E+02  0.63970779895E+02  0.00000000000E+00 0. -1.
         21   -1    0    0  501  503 -0.00000000000E+00 -0.00000000000E+00 -0.10716091196E+04  0.10716091196E+04  0.00000000000E+00 0.  1.
          6    2    1    2  501    0 -0.93130924450E+02  0.17439013943E+03 -0.53985302098E+03  0.59965717303E+03  0.17047624788E+03 0.  0.
         24    2    3    3    0    0 -0.84729485112E+02  0.18373249188E+03 -0.36797560038E+03  0.42725705283E+03  0.78777106470E+02 0.  0.
         -6    2    1    2    0  502  0.93130924450E+02 -0.17439013943E+03 -0.46778531875E+03  0.53592272649E+03  0.17118637361E+03 0.  0.
        -24    2    5    5    0    0  0.94946369882E+02 -0.13389667737E+03 -0.45918174414E+03  0.49421987517E+03  0.80388292097E+02 0.  0.
          5    1    3    3  501    0 -0.84014393383E+01 -0.93423524534E+01 -0.17187742060E+03  0.17240012020E+03  0.47000000000E+01 0. -1.
        -13    1    4    4    0    0 -0.41441897281E+02  0.68823699649E+02 -0.76334597911E+02  0.11082013951E+03  0.00000000000E+00 0.  1.
         14    1    4    4    0    0 -0.43287587831E+02  0.11490879223E+03 -0.29164100247E+03  0.31643691332E+03  0.00000000000E+00 0. -1.
         -5    1    5    5    0  502 -0.18154454315E+01 -0.40493462059E+02 -0.86035746183E+01  0.41702851315E+02  0.47000000000E+01 0.  1.
         13    1    6    6    0    0  0.33383691777E+02 -0.10672807280E+03 -0.23674108208E+03  0.26182378109E+03  0.00000000000E+00 0. -1.
        -14    1    6    6    0    0  0.61562678105E+02 -0.27168604567E+02 -0.22244066206E+03  0.23239609409E+03  0.00000000000E+00 0.  1.
</event>
<event>
12    1  0.1039610E+000  0.2136717E+03  0.7818608E-02  0.1138856E+00
         21   -1    0    0  501  502  0.00000000000E+00  0.00000000000E+00  0.82267948845E+02  0.82267948845E+02  0.00000000000E+00 0. -1.
         21   -1    0    0  502  503 -0.00000000000E+00 -0.00000000000E+00 -0.55517424043E+03  0.55517424043E+03  0.00000000000E+00 0. -1.
         -6    2    1    2    0  503 -0.10603404092E+03  0.67236435088E+02 -0.25699899801E+03  0.33367985235E+03  0.17184237792E+03 0.  0.
        -24    2    3    3    0    0 -0.47029523654E+02  0.10589574320E+03 -0.16149334461E+03  0.21485437110E+03  0.81588086798E+02 0.  0.
          6    2    1    2  501    0  0.10603404092E+03 -0.67236435088E+02 -0.21590729358E+03  0.30376233692E+03  0.17289199483E+03 0.  0.
         24    2    5    5    0    0 -0.22337373173E+02 -0.39926931128E+02 -0.71764204095E+02  0.10876400563E+03  0.67722890230E+02 0.  0.
          5    1    5    5  501    0  0.12837141410E+03 -0.27309503960E+02 -0.14414308948E+03  0.19499833130E+03  0.47000000000E+01 0. -1.
        -11    1    6    6    0    0 -0.10784300730E+02 -0.52794475749E+02 -0.25975822781E+02  0.59818903209E+02  0.00000000000E+00 0.  1.
         12    1    6    6    0    0 -0.11553072443E+02  0.12867544621E+02 -0.45788381313E+02  0.48945102418E+02  0.00000000000E+00 0. -1.
         -5    1    3    3    0  503 -0.59004517270E+02 -0.38659308108E+02 -0.95505653400E+02  0.11882548124E+03  0.47000000000E+01 0.  1.
         13    1    4    4    0    0 -0.54420367661E+02  0.44164832828E+02 -0.12347538095E+03  0.14197985271E+03  0.00000000000E+00 0. -1.
        -14    1    4    4    0    0  0.73908440070E+01  0.61730910369E+02 -0.38017963654E+02  0.72874518389E+02  0.00000000000E+00 0.  1.
</event>
<event>
12    1  0.1039610E+000  0.1804867E+03  0.7818608E-02  0.1167462E+00
         21   -1    0    0  503  502  0.00000000000E+00  0.00000000000E+00  0.81929866444E+02  0.81929866444E+02  0.00000000000E+00 0. -1.
         21   -1    0    0  501  503 -0.00000000000E+00 -0.00000000000E+00 -0.56457682495E+03  0.56457682495E+03  0.00000000000E+00 0. -1.
          6    2    1    2  501    0  0.16915577179E+02 -0.51112778500E+02 -0.41798866022E+03  0.45529108579E+03  0.17226955578E+03 0.  0.
         24    2    3    3    0    0 -0.10673336599E+02 -0.42401831275E+02 -0.41806621993E+03  0.42598025536E+03  0.69050548860E+02 0.  0.
         -6    2    1    2    0  502 -0.16915577179E+02  0.51112778500E+02 -0.64658298294E+02  0.19121560561E+03  0.17170922926E+03 0.  0.
        -24    2    5    5    0    0 -0.25775335781E+02  0.87723486116E+02 -0.82690993802E+02  0.14919052570E+03  0.84025201876E+02 0.  0.
          5    1    3    3  501    0  0.27588913778E+02 -0.87109472250E+01  0.77559712836E-01  0.29310830430E+02  0.47000000000E+01 0. -1.
        -11    1    4    4    0    0  0.27435701309E+02 -0.31349367170E+02 -0.23488562753E+03  0.23855137507E+03  0.00000000000E+00 0.  1.
         12    1    4    4    0    0 -0.38109037908E+02 -0.11052464105E+02 -0.18318059240E+03  0.18742888028E+03  0.00000000000E+00 0. -1.
         -5    1    5    5    0  502  0.88597586024E+01 -0.36610707616E+02  0.18032695509E+02  0.42025079916E+02  0.47000000000E+01 0.  1.
         11    1    6    6    0    0  0.72147519081E+01  0.79645473168E+02 -0.82953632357E+02  0.11522482008E+03  0.00000000000E+00 0. -1.
        -12    1    6    6    0    0 -0.32990087690E+02  0.80780129485E+01  0.26263855495E+00  0.33965705616E+02  0.00000000000E+00 0.  1.
</event>
<event>
12    1  0.1039610E+000  0.2598854E+03  0.7818608E-02  0.1107415E+00
         21   -1    0    0  501  502  0.00000000000E+00  0.00000000000E+00  0.22023767253E+03  0.22023767253E+03  0.00000000000E+00 0. -1.
         21   -1    0    0  502  503 -0.00000000000E+00 -0.00000000000E+00 -0.30956838872E+03  0.30956838872E+03  0.00000000000E+00 0. -1.
         -6    2    1    2    0  503 -0.83642529662E+02  0.17500881846E+03 -0.12890496846E+02  0.26020486655E+03  0.17296314163E+03 0.  0.
        -24    2    3    3    0    0 -0.82712307021E+02  0.11426701681E+03 -0.70280524461E+02  0.17650219603E+03  0.79469467239E+02 0.  0.
          6    2    1    2  501    0  0.83642529662E+02 -0.17500881846E+03 -0.76440219340E+02  0.26960119469E+03  0.17093138313E+03 0.  0.
         24    2    5    5    0    0  0.30225709509E+02 -0.21605311159E+02 -0.57299679728E+02  0.10597221503E+03  0.81033783550E+02 0.  0.
          5    1    5    5  501    0  0.53416820153E+02 -0.15340350730E+03 -0.19140539613E+02  0.16362897966E+03  0.47000000000E+01 0. -1.
        -13    1    6    6    0    0  0.44529188792E+02 -0.41640956360E+02 -0.53404611882E+02  0.81048568595E+02  0.00000000000E+00 0.  1.
         14    1    6    6    0    0 -0.14303479284E+02  0.20035645201E+02 -0.38950678459E+01  0.24923646438E+02  0.00000000000E+00 0. -1.
         -5    1    3    3    0  503 -0.93022264048E+00  0.60741801658E+02  0.57390027615E+02  0.83702670522E+02  0.47000000000E+01 0.  1.
         11    1    4    4    0    0  0.14710596192E+02  0.27769652770E+02 -0.17188026678E+02  0.35818759280E+02  0.00000000000E+00 0. -1.
        -12    1    4    4    0    0 -0.97422903213E+02  0.86497364035E+02 -0.53092497782E+02  0.14068343675E+03  0.00000000000E+00 0.  1.
</event>
<event>
12    1  0.1039610E+000  0.3350108E+03  0.7818608E-02  0.1068992E+00
         21   -1    0    0  501  502  0.00000000000E+00  0.00000000000E+00  0.43614936266E+03  0.43614936266E+03  0.00000000000E+00 0. -1.
         21   -1    0    0  502  503 -0.00000000000E+00 -0.00000000000E+00 -0.25697779506E+03  0.25697779506E+03  0.00000000000E+00 0. -1.
         -6    2    1    2    0  503  0.15211224070E+02 -0.28697856239E+03  0.86914518601E+02  0.34610167996E+03  0.17217480280E+03 0.  0.
        -24    2    3    3    0    0  0.29283939810E+02 -0.14342576181E+03  0.11020096720E+03  0.19991756123E+03  0.79964240956E+02 0.  0.
          6    2    1    2  501    0 -0.15211224070E+02  0.28697856239E+03  0.92257048999E+02  0.34702547776E+03  0.17125198543E+03 0.  0.
         24    2    5    5    0    0  0.25220126332E+02  0.62732776072E+02  0.38491148340E+02  0.11285944937E+03  0.81757145533E+02 0.  0.
          5    1    5    5  501    0 -0.40431350402E+02  0.22424578632E+03  0.53765900659E+02  0.23416602839E+03  0.47000000000E+01 0. -1.
        -13    1    6    6    0    0  0.31105621175E+02  0.77639724045E+02  0.15862091692E+02  0.85129855933E+02  0.00000000000E+00 0.  1.
         14    1    6    6    0    0 -0.58854948422E+01 -0.14906947972E+02  0.22629056649E+02  0.27729593437E+02  0.00000000000E+00 0. -1.
         -5    1    3    3    0  503 -0.14072715740E+02 -0.14355280058E+03 -0.23286448601E+02  0.14618411873E+03  0.47000000000E+01 0.  1.
         13    1    4    4    0    0  0.20517676401E+02  0.24227062364E+01  0.12423338398E+02  0.24107755751E+02  0.00000000000E+00 0. -1.
        -14    1    4    4    0    0  0.87662634091E+01 -0.14584846805E+03  0.97777628803E+02  0.17580980548E+03  0.00000000000E+00 0.  1.
</event>
<event>
12    1  0.1039610E+000  0.1783474E+03  0.7818608E-02  0.1169423E+00
         21   -1    0    0  501  502  0.00000000000E+00  0.00000000000E+00  0.51242198695E+03  0.51242198695E+03  0.00000000000E+00 0. -1.
         21   -1    0    0  502  503 -0.00000000000E+00 -0.00000000000E+00 -0.64745692398E+02  0.64745692398E+02  0.00000000000E+00 0. -1.
         -6    2    1    2    0  503  0.33191506934E+02  0.33128271914E+02  0.16506239368E+03  0.24300903119E+03  0.17207160399E+03 0.  0.
        -24    2    3    3    0    0  0.18988029808E+02  0.76097511138E+02  0.16488424799E+03  0.19750940462E+03  0.75311175812E+02 0.  0.
          6    2    1    2  501    0 -0.33191506934E+02 -0.33128271914E+02  0.28261390086E+03  0.33415864815E+03  0.17202391300E+03 0.  0.
         24    2    5    5    0    0  0.35297366441E+02 -0.53993277692E+02  0.18476411494E+03  0.21282132971E+03  0.83629911488E+02 0.  0.
          5    1    5    5  501    0 -0.68488873376E+02  0.20865005779E+02  0.97849785920E+02  0.12133731844E+03  0.47000000000E+01 0. -1.
        -11    1    6    6    0    0 -0.59914383333E+00 -0.31059675707E+02  0.16114952851E+03  0.16411652253E+03  0.00000000000E+00 0.  1.
         12    1    6    6    0    0  0.35896510275E+02 -0.22933601985E+02  0.23614586430E+02  0.48704807177E+02  0.00000000000E+00 0. -1.
         -5    1    3    3    0  503  0.14203477126E+02 -0.42969239224E+02  0.17814569769E+00  0.45499626569E+02  0.47000000000E+01 0.  1.
         13    1    4    4    0    0 -0.22389322444E+02  0.66215109158E+00  0.28408969490E+02  0.36177199326E+02  0.00000000000E+00 0. -1.
        -14    1    4    4    0    0  0.41377352252E+02  0.75435360046E+02  0.13647527850E+03  0.16133220529E+03  0.00000000000E+00 0.  1.
</event>
<event>
12    1  0.1039610E+000  0.2340615E+03  0.7818608E-02  0.1123820E+00
         21   -1    0    0  503  502  0.00000000000E+00  0.00000000000E+00  0.15892496987E+03  0.15892496987E+03  0.00000000000E+00 0. -1.
         21   -1    0    0  501  503 -0.00000000000E+00 -0.00000000000E+00 -0.48614599909E+03  0.48614599909E+03  0.00000000000E+00 0. -1.
          6    2    1    2  501    0  0.23184866502E+02  0.15705326697E+03 -0.33759830956E+03  0.41077949145E+03  0.17194157518E+03 0.  0.
         24    2    3    3    0    0  0.81979791600E+02  0.97738031701E+02 -0.22216783767E+03  0.26822625860E+03  0.79456709222E+02 0.  0.
         -6    2    1    2    0  502 -0.23184866502E+02 -0.15705326697E+03  0.10377280339E+02  0.23429147751E+03  0.17199285389E+03 0.  0.
        -24    2    5    5    0    0  0.23033004594E+02 -0.89308783234E+02 -0.44794649609E+02  0.13533977950E+03  0.88338650766E+02 0.  0.
          5    1    3    3  501    0 -0.58794925098E+02  0.59315235266E+02 -0.11543047190E+03  0.14255323285E+03  0.47000000000E+01 0. -1.
        -11    1    4    4    0    0  0.52500159787E+02  0.62159351959E+02 -0.20207763716E+03  0.21784265710E+03  0.00000000000E+00 0.  1.
         12    1    4    4    0    0  0.29479631813E+02  0.35578679742E+02 -0.20090200508E+02  0.50383601504E+02  0.00000000000E+00 0. -1.
         -5    1    5    5    0  502 -0.46217871096E+02 -0.67744483733E+02  0.55171929948E+02  0.98951698010E+02  0.47000000000E+01 0.  1.
         11    1    6    6    0    0  0.55443010548E+02 -0.40798122528E+02 -0.18066731861E+02  0.71167555955E+02  0.00000000000E+00 0. -1.
        -12    1    6    6    0    0 -0.32410005954E+02 -0.48510660706E+02 -0.26727917748E+02  0.64172223549E+02  0.00000000000E+00 0.  1.
</event>
<event>
12    1  0.1039610E+000  0.2835681E+03  0.7818608E-02  0.1093863E+00
         21   -1    0    0  503  502  0.00000000000E+00  0.00000000000E+00  0.10964990490E+04  0.10964990490E+04  0.00000000000E+00 0. -1.
         21   -1    0    0  501  503 -0.00000000000E+00 -0.00000000000E+00 -0.76225347565E+02  0.76225347565E+02  0.00000000000E+00 0. -1.
          6    2    1    2  501    0 -0.17498440279E+03  0.14207866722E+03  0.62900642739E+03  0.68997098178E+03  0.17206098075E+03 0.  0.
         24    2    3    3    0    0 -0.90722451639E+02  0.61704686494E+01  0.32742717126E+03  0.34858666378E+03  0.77688298776E+02 0.  0.
         -6    2    1    2    0  502  0.17498440279E+03 -0.14207866722E+03  0.39126727405E+03  0.48275341480E+03  0.17074803323E+03 0.  0.
        -24    2    5    5    0    0  0.73308246946E+02 -0.78612541322E+02  0.10803225315E+03  0.17516577383E+03  0.86360001617E+02 0.  0.
          5    1    3    3  501    0 -0.84261951153E+02  0.13590819857E+03  0.30157925612E+03  0.34138431800E+03  0.47000000000E+01 0. -1.
        -11    1    4    4    0    0 -0.46411712732E+02  0.32297647063E+02  0.95160114084E+02  0.11069160942E+03  0.00000000000E+00 0.  1.
         12    1    4    4    0    0 -0.44310738907E+02 -0.26127178414E+02  0.23226705718E+03  0.23789505435E+03  0.00000000000E+00 0. -1.
         -5    1    5    5    0  502  0.10167615585E+03 -0.63466125901E+02  0.28323502091E+03  0.30758764096E+03  0.47000000000E+01 0.  1.
         11    1    6    6    0    0  0.69979094512E+02 -0.13560985290E+02  0.43669767997E+02  0.83594393518E+02  0.00000000000E+00 0. -1.
        -12    1    6    6    0    0  0.33291524338E+01 -0.65051556032E+02  0.64362485152E+02  0.91571380316E+02  0.00000000000E+00 0.  1.
</event>
<event>
12    1  0.1039610E+000  0.1914615E+03  0.7818608E-02  0.1157258E+00
         21   -1    0    0  501  502  0.00000000000E+00  0.00000000000E+00  0.18335713927E+03  0.18335713927E+03  0.00000000000E+00 0. -1.
         21   -1    0    0  502  503 -0.00000000000E+00 -0.00000000000E+00 -0.21703154993E+03  0.21703154993E+03  0.00000000000E+00 0. -1.
         -6    2    1    2    0  503  0.78180321512E+02 -0.25661659700E+02  0.40211289921E+02  0.19516540645E+03  0.17234240508E+03 0.  0.
        -24    2    3    3    0    0 -0.27048275293E+01  0.26180772063E+02  0.47539443722E+02  0.98698640648E+02  0.82393410165E+02 0.  0.
          6    2    1    2  501    0 -0.78180321512E+02  0.25661659700E+02 -0.73885700575E+02  0.20522328275E+03  0.17287803673E+03 0.  0.
         24    2    5    5    0    0 -0.87524075166E+02 -0.33661554926E+02 -0.19416281859E+02  0.12401024746E+03  0.78790770143E+02 0.  0.
          5    1    5    5  501    0  0.93437536545E+01  0.59323214626E+02 -0.54469418716E+02  0.81213035291E+02  0.47000000000E+01 0. -1.
        -11    1    6    6    0    0 -0.43506059767E+02 -0.39039529135E+02  0.22838250386E+02  0.62757053407E+02  0.00000000000E+00 0.  1.
         12    1    6    6    0    0 -0.44018015399E+02  0.53779742091E+01 -0.42254532246E+02  0.61253194052E+02  0.00000000000E+00 0. -1.
         -5    1    3    3    0  503  0.80885149041E+02 -0.51842431763E+02 -0.73281538018E+01  0.96466765804E+02  0.47000000000E+01 0.  1.
         13    1    4    4    0    0  0.69805678259E+00  0.46710228757E+02 -0.96719637410E-01  0.46715544613E+02  0.00000000000E+00 0. -1.
        -14    1    4    4    0    0 -0.34028843119E+01 -0.20529456694E+02  0.47636163360E+02  0.51983096035E+02  0.00000000000E+00 0.  1.
</event>
<event>
12    1  0.1039610E+000  0.3021136E+03  0.7818608E-02  0.1084395E+00
         21   -1    0    0  501  502  0.00000000000E+00  0.00000000000E+00  0.49255755340E+03  0.49255755340E+03  0.00000000000E+00 0. -1.
         21   -1    0    0  502  503 -0.00000000000E+00 -0.00000000000E+00 -0.79701255740E+03  0.79701255740E+03  0.00000000000E+00 0.  1.
         -6    2    1    2    0  503 -0.23189901634E+03 -0.83763627665E+02 -0.71747775161E+03  0.77784709868E+03  0.17169241619E+03 0.  0.
        -24    2    3    3    0    0 -0.23432879852E+03 -0.10092668800E+03 -0.57245496367E+03  0.63171642599E+03  0.79150333298E+02 0.  0.
          6    2    1    2  501    0  0.23189901634E+03  0.83763627665E+02  0.41302274760E+03  0.51172301212E+03  0.17458279412E+03 0.  0.
         24    2    5    5    0    0  0.78304243220E+02  0.59003436025E+02  0.27081760401E+03  0.30089413772E+03  0.87075527566E+02 0.  0.
          5    1    5    5  501    0  0.15359477312E+03  0.24760191641E+02  0.14220514359E+03  0.21082887441E+03  0.47000000000E+01 0. -1.
        -11    1    6    6    0    0  0.16848986687E+02 -0.14907714286E+02  0.11970151766E+03  0.12179729730E+03  0.00000000000E+00 0.  1.
         12    1    6    6    0    0  0.61455256533E+02  0.73911150310E+02  0.15111608635E+03  0.17909684042E+03  0.00000000000E+00 0. -1.
         -5    1    3    3    0  503  0.24297821806E+01  0.17163060338E+02 -0.14502278793E+03  0.14613067269E+03  0.47000000000E+01 0.  1.
         11    1    4    4    0    0 -0.18995693066E+03 -0.64695382451E+02 -0.50384044182E+03  0.54233229558E+03  0.00000000000E+00 0. -1.
        -12    1    4    4    0    0 -0.44371867861E+02 -0.36231305553E+02 -0.68614521852E+02  0.89384130407E+02  0.00000000000E+00 0.  1.
</event>
<event>
12    1  0.1039610E+000  0.5958751E+03  0.7818608E-02  0.9914403E-01
         21   -1    0    0  503  502  0.00000000000E+00  0.00000000000E+00  0.10698761026E+04  0.10698761026E+04  0.00000000000E+00 0. -1.
         21   -1    0    0  501  503 -0.00000000000E+00 -0.00000000000E+00 -0.33824738885E+03  0.33824738885E+03  0.00000000000E+00 0. -1.
          6    2    1    2  501    0  0.49235109574E+03 -0.28784304937E+03  0.26623589848E+03  0.65264743505E+03  0.17263805572E+03 0.  0.
         24    2    3    3    0    0  0.27694184645E+03 -0.11834093097E+03  0.20201960712E+03  0.37108405869E+03  0.78677154891E+02 0.  0.
         -6    2    1    2    0  502 -0.49235109574E+03  0.28784304937E+03  0.46539281530E+03  0.75547605643E+03  0.16997169400E+03 0.  0.
        -24    2    5    5    0    0 -0.16569585913E+03  0.12379918711E+03  0.23627749568E+03  0.32404825015E+03  0.79992855914E+02 0.  0.
          5    1    3    3  501    0  0.21540924930E+03 -0.16950211840E+03  0.64216291363E+02  0.28156337635E+03  0.47000000000E+01 0. -1.
        -13    1    4    4    0    0  0.71697970489E+02 -0.42429470082E+02  0.18164784337E+02  0.85269093426E+02  0.00000000000E+00 0.  1.
         14    1    4    4    0    0  0.20524387596E+03 -0.75911460887E+02  0.18385482278E+03  0.28581496527E+03  0.00000000000E+00 0. -1.
         -5    1    5    5    0  502 -0.32665523661E+03  0.16404386226E+03  0.22911531962E+03  0.43142780628E+03  0.47000000000E+01 0.  1.
         13    1    6    6    0    0 -0.33667790031E+02  0.70138158332E+02  0.66199166581E+02  0.10215288051E+03  0.00000000000E+00 0. -1.
        -14    1    6    6    0    0 -0.13202806910E+03  0.53661028783E+02  0.17007832910E+03  0.22189536964E+03  0.00000000000E+00 0.  1.
</event>
<event>
12    1  0.1039610E+000  0.2139037E+03  0.7818608E-02  0.1138557E+00
         21   -1    0    0  503  502  0.00000000000E+00  0.00000000000E+00  0.17599734392E+03  0.17599734392E+03  0.00000000000E+00 0.  1.
         21   -1    0    0  501  503 -0.00000000000E+00 -0.00000000000E+00 -0.26345647492E+03  0.26345647492E+03  0.00000000000E+00 0.  1.
          6    2    1    2  501    0  0.27085376727E+02  0.12456821667E+03 -0.17431285914E+02  0.21437899986E+03  0.17147491832E+03 0.  0.
         24    2    3    3    0    0 -0.19468865981E+02  0.89283611812E+01  0.12778065686E+02  0.86025703768E+02  0.82330980622E+02 0.  0.
         -6    2    1    2    0  502 -0.27085376727E+02 -0.12456821667E+03 -0.70027845080E+02  0.22507481898E+03  0.17176704229E+03 0.  0.
        -24    2    5    5    0    0  0.46889231254E+02 -0.41885740701E+02 -0.25662655777E+02  0.10549641591E+03  0.80733553046E+02 0.  0.
          5    1    3    3  501    0  0.46554242708E+02  0.11563985549E+03 -0.30209351600E+02  0.12835329609E+03  0.47000000000E+01 0. -1.
        -13    1    4    4    0    0  0.27842888516E+01  0.21981554283E+02 -0.29259818328E+02  0.36702560696E+02  0.00000000000E+00 0.  1.
         14    1    4    4    0    0 -0.22253154832E+02 -0.13053193101E+02  0.42037884014E+02  0.49323143072E+02  0.00000000000E+00 0. -1.
         -5    1    5    5    0  502 -0.73974607981E+02 -0.82682475974E+02 -0.44365189303E+02  0.11957840307E+03  0.47000000000E+01 0.  1.
         11    1    6    6    0    0 -0.14150967608E+02 -0.18509778761E+02  0.15745502198E+02  0.28120857624E+02  0.00000000000E+00 0. -1.
        -12    1    6    6    0    0  0.61040198862E+02 -0.23375961940E+02 -0.41408157975E+02  0.77375558290E+02  0.00000000000E+00 0.  1.
</event>
<event>
12    1  0.1039610E+000  0.2467594E+03  0.7818608E-02  0.1115383E+00
         21   -1    0    0  501  502  0.00000000000E+00  0.00000000000E+00  0.77303510839E+02  0.77303510839E+02  0.00000000000E+00 0.  1.
         21   -1    0    0  502  503 -0.00000000000E+00 -0.00000000000E+00 -0.91912050893E+03  0.91912050893E+03  0.00000000000E+00 0. -1.
         -6    2    1    2    0  503 -0.16383483747E+03 -0.65627897412E+02 -0.23225825652E+03  0.33881313860E+03  0.17234143518E+03 0.  0.
        -24    2    3    3    0    0 -0.19053904887E+03 -0.62776193180E+02 -0.18391592649E+03  0.28331252603E+03  0.78707939949E+02 0.  0.
          6    2    1    2  501    0  0.16383483747E+03  0.65627897412E+02 -0.60955874158E+03  0.65761088117E+03  0.17245676767E+03 0.  0.
         24    2    5    5    0    0  0.13154615524E+03  0.93951364422E+02 -0.34002485054E+03  0.38463581600E+03  0.78718245259E+02 0.  0.
          5    1    5    5  501    0  0.32288682238E+02 -0.28323467010E+02 -0.26953389104E+03  0.27297506517E+03  0.47000000000E+01 0. -1.
        -13    1    6    6    0    0  0.11569957541E+03  0.58698823968E+02 -0.30880506086E+03  0.33495150291E+03  0.00000000000E+00 0.  1.
         14    1    6    6    0    0  0.15846579828E+02  0.35252540454E+02 -0.31219789674E+02  0.49684313097E+02  0.00000000000E+00 0. -1.
         -5    1    3    3    0  503  0.26704211400E+02 -0.28517042318E+01 -0.48342330026E+02  0.55500612572E+02  0.47000000000E+01 0.  1.
         13    1    4    4    0    0 -0.11151137296E+03 -0.36203587973E+02 -0.15650091632E+03  0.19554544968E+03  0.00000000000E+00 0. -1.
        -14    1    4    4    0    0 -0.79027675912E+02 -0.26572605207E+02 -0.27415010169E+02  0.87767076345E+02  0.00000000000E+00 0.  1.
</event>
<event>
12    1  0.1039610E+000  0.1781077E+03  0.7818608E-02  0.1170282E+00
         21   -1    0    0  503  502  0.00000000000E+00  0.00000000000E+00  0.10444247695E+03  0.10444247695E+03  0.00000000000E+00 0.  1.
         21   -1    0    0  501  503 -0.00000000000E+00 -0.00000000000E+00 -0.12181231173E+04  0.12181231173E+04  0.00000000000E+00 0.  1.
          6    2    1    2  501    0  0.73037167327E+01 -0.47592145396E+02  0.16466278582E+02  0.17886721100E+03  0.17147589994E+03 0.  0.
         24    2    3    3    0    0 -0.60209758708E+02 -0.39686380268E+02 -0.34389001941E+01  0.10788216588E+03  0.80165527871E+02 0.  0.
         -6    2    1    2    0  502 -0.73037167327E+01  0.47592145396E+02 -0.11301469190E+04  0.11436983833E+04  0.16880632952E+03 0.  0.
        -24    2    5    5    0    0 -0.59525168143E+02  0.69718946644E+02 -0.85607750763E+03  0.86378266820E+03  0.69626299932E+02 0.  0.
          5    1    3    3  501    0  0.67513475441E+02 -0.79057651285E+01  0.19905178776E+02  0.70985045119E+02  0.47000000000E+01 0. -1.
        -13    1    4    4    0    0 -0.51932726399E+02 -0.32581836827E+02 -0.37669658731E+02  0.71955453936E+02  0.00000000000E+00 0.  1.
         14    1    4    4    0    0 -0.82770323093E+01 -0.71045434411E+01  0.34230758537E+02  0.35926711948E+02  0.00000000000E+00 0. -1.
         -5    1    5    5    0  502  0.52221451410E+02 -0.22126801248E+02 -0.27406941135E+03  0.27991571510E+03  0.47000000000E+01 0.  1.
         11    1    6    6    0    0 -0.15755125626E+02  0.27174474232E+02 -0.58822737841E+03  0.58906546728E+03  0.00000000000E+00 0. -1.
        -12    1    6    6    0    0 -0.43770042517E+02  0.42544472412E+02 -0.26785012922E+03  0.27471720091E+03  0.00000000000E+00 0.  1.
</event>
<event>
12    1  0.1039610E+000  0.2466232E+03  0.7818608E-02  0.1115526E+00
         21   -1    0    0  503  502  0.00000000000E+00  0.00000000000E+00  0.60642421002E+03  0.60642421002E+03  0.00000000000E+00 0.  1.
         21   -1    0    0  501  503 -0.00000000000E+00 -0.00000000000E+00 -0.12305502526E+03  0.12305502526E+03  0.00000000000E+00 0.  1.
          6    2    1    2  501    0 -0.17315979393E+03  0.33715303311E+02  0.39930534252E+03  0.46932693186E+03  0.17234261369E+03 0.  0.
         24    2    3    3    0    0 -0.45430362356E+02  0.24898855694E+02  0.77241255958E+02  0.12271489616E+03  0.80055376332E+02 0.  0.
         -6    2    1    2    0  502  0.17315979393E+03 -0.33715303311E+02  0.84063842249E+02  0.26015230342E+03  0.17173076454E+03 0.  0.
        -24    2    5    5    0    0  0.60841001372E+02 -0.76631346926E+02  0.45795693571E+02  0.13388338735E+03  0.79079232919E+02 0.  0.
          5    1    3    3  501    0 -0.12772943158E+03  0.88164476173E+01  0.32206408656E+03  0.34661203570E+03  0.47000000000E+01 0. -1.
        -13    1    4    4    0    0 -0.65042282939E+02  0.34350821044E+02  0.58315391940E+02  0.93867792205E+02  0.00000000000E+00 0.  1.
         14    1    4    4    0    0  0.19611920583E+02 -0.94519653504E+01  0.18925864018E+02  0.28847103958E+02  0.00000000000E+00 0. -1.
         -5    1    5    5    0  502  0.11231879256E+03  0.42916043616E+02  0.38268148678E+02  0.12626891607E+03  0.47000000000E+01 0.  1.
         13    1    6    6    0    0  0.32987458359E+02  0.77888513328E+01  0.22535654506E-01  0.33894529381E+02  0.00000000000E+00 0. -1.
        -14    1    6    6    0    0  0.27853543013E+02 -0.84420198259E+02  0.45773157917E+02  0.99988857970E+02  0.00000000000E+00 0.  1.
</event>
<event>
12    1  0.1039610E+000  0.1759958E+03  0.7818608E-02  0.1171915E+00
         21   -1    0    0  503  502  0.00000000000E+00  0.00000000000E+00  0.54721442757E+03  0.54721442757E+03  0.00000000000E+00 0.  1.
         21   -1    0    0  501  503 -0.00000000000E+00 -0.00000000000E+00 -0.59581988897E+02  0.59581988897E+02  0.00000000000E+00 0.  1.
          6    2    1    2  501    0  0.38520054144E+02  0.20903279395E+01  0.17387514945E+03  0.24740064654E+03  0.17171589405E+03 0.  0.
         24    2    3    3    0    0  0.41698767351E+02 -0.46465090544E+02  0.48282690497E+02  0.11262940099E+03  0.80351552117E+02 0.  0.
         -6    2    1    2    0  502 -0.38520054144E+02 -0.20903279395E+01  0.31375728923E+03  0.35939576993E+03  0.17097812392E+03 0.  0.
        -24    2    5    5    0    0  0.21089552737E+02 -0.12557188292E+02  0.67071870344E+02  0.10535119454E+03  0.77445375499E+02 0.  0.
          5    1    3    3  501    0 -0.31787132069E+01  0.48555418484E+02  0.12559245895E+03  0.13477124555E+03  0.47000000000E+01 0. -1.
        -13    1    4    4    0    0 -0.15118682339E+02  0.70380782560E+01  0.27001497603E+02  0.31736256459E+02  0.00000000000E+00 0.  1.
         14    1    4    4    0    0  0.56817449690E+02 -0.53503168800E+02  0.21281192894E+02  0.80893144530E+02  0.00000000000E+00 0. -1.
         -5    1    5    5    0  502 -0.59609606880E+02  0.10466860353E+02  0.24668541888E+03  0.25404457540E+03  0.47000000000E+01 0.  1.
         11    1    6    6    0    0 -0.26534880111E+02  0.54192525651E+01  0.99843351352E+01  0.28864426358E+02  0.00000000000E+00 0. -1.
        -12    1    6    6    0    0  0.47624432848E+02 -0.17976440858E+02  0.57087535208E+02  0.76486768177E+02  0.00000000000E+00 0.  1.
</event>
<event>
12    1  0.1039610E+000  0.2362833E+03  0.7818608E-02  0.1122436E+00
         21   -1    0    0  503  502  0.00000000000E+00  0.00000000000E+00  0.36708930542E+03  0.36708930542E+03  0.00000000000E+00 0.  1.
         21   -1    0    0  501  503 -0.00000000000E+00 -0.00000000000E+00 -0.19192194443E+03  0.19192194443E+03  0.00000000000E+00 0.  1.
          6    2    1    2  501    0 -0.68590459377E+02  0.14473805565E+03 -0.40487456497E+02  0.23972701833E+03  0.17371255946E+03 0.  0.
         24    2    3    3    0    0 -0.10720753624E+03  0.85013566779E+02 -0.49808110041E+01  0.16009596239E+03  0.82976781884E+02 0.  0.
         -6    2    1    2    0  502  0.68590459377E+02 -0.14473805565E+03  0.21565481749E+03  0.31928423152E+03  0.17257364897E+03 0.  0.
        -24    2    5    5    0    0  0.91705536982E+02 -0.66883721755E+02  0.19545213915E+03  0.23546393367E+03  0.66018085486E+02 0.  0.
          5    1    3    3  501    0  0.38617076866E+02  0.59724488871E+02 -0.35506645493E+02  0.79631055944E+02  0.47000000000E+01 0. -1.
        -11    1    4    4    0    0  0.30197171242E+01 -0.20284207511E+01 -0.18631779338E+02  0.18983581947E+02  0.00000000000E+00 0.  1.
         12    1    4    4    0    0 -0.11022725337E+03  0.87041987530E+02  0.13650968334E+02  0.14111238044E+03  0.00000000000E+00 0. -1.
         -5    1    5    5    0  502 -0.23115077605E+02 -0.77854333894E+02  0.20202678333E+02  0.83820297843E+02  0.47000000000E+01 0.  1.
         11    1    6    6    0    0  0.99299815453E+01 -0.20468050132E+02  0.53385044820E+01  0.23367610914E+02  0.00000000000E+00 0. -1.
        -12    1    6    6    0    0  0.81775555436E+02 -0.46415671623E+02  0.19011363467E+03  0.21209632276E+03  0.00000000000E+00 0.  1.
</event>
<event>
12    1  0.1039610E+000  0.2231760E+03  0.7818608E-02  0.1134346E+00
         21   -1    0    0  503  502  0.00000000000E+00  0.00000000000E+00  0.11771115678E+04  0.11771115678E+04  0.00000000000E+00 0.  1.
         21   -1    0    0  501  503 -0.00000000000E+00 -0.00000000000E+00 -0.41376901853E+02  0.41376901853E+02  0.00000000000E+00 0.  1.
          6    2    1    2  501    0 -0.84257957536E+02  0.83399575551E+02  0.71428859403E+03  0.74834197864E+03  0.18908365563E+03 0.  0.
         24    2    3    3    0    0  0.10252896649E+02  0.20514143237E+02  0.13608404521E+03  0.15908017822E+03  0.79130801716E+02 0.  0.
         -6    2    1    2    0  502  0.84257957536E+02 -0.83399575551E+02  0.42144607191E+03  0.47014649101E+03  0.17136522070E+03 0.  0.
        -24    2    5    5    0    0  0.35757318726E+02  0.14097600171E+02  0.11856154624E+03  0.14824722551E+03  0.80268745165E+02 0.  0.
          5    1    3    3  501    0 -0.94510854185E+02  0.62885432314E+02  0.57820454882E+03  0.58926180042E+03  0.47000000000E+01 0. -1.
        -13    1    4    4    0    0  0.43770702902E+02  0.14002797794E+02  0.95943807142E+02  0.10638217382E+03  0.00000000000E+00 0.  1.
         14    1    4    4    0    0 -0.33517806253E+02  0.65113454433E+01  0.40140238069E+02  0.52698004400E+02  0.00000000000E+00 0. -1.
         -5    1    5    5    0  502  0.48500638810E+02 -0.97497175721E+02  0.30288452567E+03  0.32189926550E+03  0.47000000000E+01 0.  1.
         11    1    6    6    0    0  0.48162018113E+02  0.38356477570E+02  0.77741119271E+02  0.99168951723E+02  0.00000000000E+00 0. -1.
        -12    1    6    6    0    0 -0.12404699387E+02 -0.24258877400E+02  0.40820426973E+02  0.49078273787E+02  0.00000000000E+00 0.  1.
</event>
<event>
12    1  0.1039610E+000  0.1956775E+03  0.7818608E-02  0.1154376E+00
         21   -1    0    0  503  502  0.00000000000E+00  0.00000000000E+00  0.39697173335E+03  0.39697173335E+03  0.00000000000E+00 0.  1.
         21   -1    0    0  501  503 -0.00000000000E+00 -0.00000000000E+00 -0.15969616676E+03  0.15969616676E+03  0.00000000000E+00 0.  1.
          6    2    1    2  501    0 -0.80465176133E+02 -0.23576659138E+02  0.29588905350E+03  0.35240033707E+03  0.17206150691E+03 0.  0.
         24    2    3    3    0    0 -0.81496593332E+02 -0.70040518579E+02  0.16171937426E+03  0.21033152669E+03  0.80863008486E+02 0.  0.
         -6    2    1    2    0  502  0.80465176133E+02  0.23576659138E+02 -0.58613486917E+02  0.20426756304E+03  0.17680269521E+03 0.  0.
        -24    2    5    5    0    0  0.36856507339E+02 -0.51275517825E+02 -0.22665034939E+01  0.10081884661E+03  0.78560307610E+02 0.  0.
          5    1    3    3  501    0  0.10314171992E+01  0.46463859442E+02  0.13416967925E+03  0.14206881039E+03  0.47000000000E+01 0. -1.
        -11    1    4    4    0    0 -0.16064885364E+02  0.13134086419E+02  0.60231717596E+02  0.63705922585E+02  0.00000000000E+00 0.  1.
         12    1    4    4    0    0 -0.65431707968E+02 -0.83174604998E+02  0.10148765666E+03  0.14662560410E+03  0.00000000000E+00 0. -1.
         -5    1    5    5    0  502  0.43608668794E+02  0.74852176963E+02 -0.56346983423E+02  0.10344871643E+03  0.47000000000E+01 0.  1.
         13    1    6    6    0    0 -0.13052567109E+02  0.43760792471E+01  0.18663041162E+02  0.23191133718E+02  0.00000000000E+00 0. -1.
        -14    1    6    6    0    0  0.49909074448E+02 -0.55651597072E+02 -0.20929544656E+02  0.77627712889E+02  0.00000000000E+00 0.  1.
</event>
<event>
12    1  0.1039610E+000  0.2424303E+03  0.7818608E-02  0.1118700E+00
         21   -1    0    0  503  502  0.00000000000E+00  0.00000000000E+00  0.45139752005E+02  0.45139752005E+02  0.00000000000E+00 0.  1.
         21   -1    0    0  501  503 -0.00000000000E+00 -0.00000000000E+00 -0.16900726064E+04  0.16900726064E+04  0.00000000000E+00 0.  1.
          6    2    1    2  501    0 -0.43629401596E+02  0.16636429998E+03 -0.39384755900E+03  0.46085492624E+03  0.16640540351E+03 0.  0.
         24    2    3    3    0    0 -0.11423040330E+02  0.16138880152E+03 -0.38757957878E+03  0.42733802204E+03  0.78886146365E+02 0.  0.
         -6    2    1    2    0  502  0.43629401596E+02 -0.16636429998E+03 -0.12510852954E+04  0.12743574321E+04  0.17085620729E+03 0.  0.
        -24    2    5    5    0    0  0.21539353768E+02 -0.32441416401E+02 -0.74328249721E+03  0.74870633039E+03  0.81091980120E+02 0.  0.
          5    1    3    3  501    0 -0.32206361266E+02  0.49754984542E+01 -0.62679802209E+01  0.33516904196E+02  0.47000000000E+01 0. -1.
        -13    1    4    4    0    0 -0.40835969867E+02  0.10844707821E+03 -0.29238106150E+03  0.31450759980E+03  0.00000000000E+00 0.  1.
         14    1    4    4    0    0  0.29412929537E+02  0.52941723314E+02 -0.95198517276E+02  0.11283042224E+03  0.00000000000E+00 0. -1.
         -5    1    5    5    0  502  0.22090047828E+02 -0.13392288358E+03 -0.50780279814E+03  0.52565110174E+03  0.47000000000E+01 0.  1.
         11    1    6    6    0    0 -0.18622342005E+02 -0.44134546522E+02 -0.42309169291E+03  0.42579482198E+03  0.00000000000E+00 0. -1.
        -12    1    6    6    0    0  0.40161695773E+02  0.11693130121E+02 -0.32019080431E+03  0.32291150841E+03  0.00000000000E+00 0.  1.
</event>
<event>
12    1  0.1039610E+000  0.2016544E+03  0.7818608E-02  0.1153023E+00
         21   -1    0    0  501  502  0.00000000000E+00  0.00000000000E+00  0.20529937383E+03  0.20529937383E+03  0.00000000000E+00 0.  1.
         21   -1    0    0  502  503 -0.00000000000E+00 -0.00000000000E+00 -0.17789170341E+03  0.17789170341E+03  0.00000000000E+00 0.  1.
         -6    2    1    2    0  503  0.16105296834E+01  0.53053381125E+02  0.13013364435E+02  0.20207387973E+03  0.19454369731E+03 0.  0.
        -24    2    3    3    0    0 -0.58678552030E+02  0.80413432757E+02 -0.15007729761E+02  0.13002793940E+03  0.82295446016E+02 0.  0.
          6    2    1    2  501    0 -0.16105296834E+01 -0.53053381125E+02  0.14394305986E+02  0.18111719751E+03  0.17256589504E+03 0.  0.
         24    2    5    5    0    0 -0.64234753084E+02 -0.18109977970E+02 -0.73627127260E+01  0.10602863217E+03  0.82059652057E+02 0.  0.
          5    1    5    5  501    0  0.62624223401E+02 -0.34943403154E+02  0.21757018712E+02  0.75088565333E+02  0.47000000000E+01 0. -1.
        -13    1    6    6    0    0 -0.68966523845E+01 -0.35369643864E+02 -0.24701754635E+02  0.43689268742E+02  0.00000000000E+00 0.  1.
         14    1    6    6    0    0 -0.57338100699E+02  0.17259665894E+02  0.17339041909E+02  0.62339363430E+02  0.00000000000E+00 0. -1.
         -5    1    3    3    0  503  0.60289081713E+02 -0.27360051632E+02  0.28021094196E+02  0.72045940337E+02  0.47000000000E+01 0.  1.
         13    1    4    4    0    0 -0.23404374977E+02  0.40075148242E+02 -0.48267559736E+02  0.66959238329E+02  0.00000000000E+00 0. -1.
        -14    1    4    4    0    0 -0.35274177053E+02  0.40338284515E+02  0.33259829975E+02  0.63068701067E+02  0.00000000000E+00 0.  1.
</event>
<event>
12    1  0.1039610E+000  0.2389043E+03  0.7818608E-02  0.1120568E+00
         21   -1    0    0  503  502  0.00000000000E+00  0.00000000000E+00  0.11329291613E+04  0.11329291613E+04  0.00000000000E+00 0. -1.
         21   -1    0    0  501  503 -0.00000000000E+00 -0.00000000000E+00 -0.16852873726E+03  0.16852873726E+03  0.00000000000E+00 0. -1.
          6    2    1    2  501    0  0.93697871479E+02  0.13576553808E+03 -0.62701914621E+02  0.24699554056E+03  0.17281115273E+03 0.  0.
         24    2    3    3    0    0  0.71862136464E+02  0.10621267297E+02 -0.16264736239E+02  0.11165748468E+03  0.83221837660E+02 0.  0.
         -6    2    1    2    0  502 -0.93697871479E+02 -0.13576553808E+03  0.10271023387E+04  0.10544623580E+04  0.17245311797E+03 0.  0.
        -24    2    5    5    0    0 -0.11606838225E+03 -0.77455907924E+02  0.53609275602E+03  0.55947452687E+03  0.78390153243E+02 0.  0.
          5    1    3    3  501    0  0.21835735015E+02  0.12514427078E+03 -0.46437178381E+02  0.13533805588E+03  0.47000000000E+01 0. -1.
        -11    1    4    4    0    0  0.45906389241E+02  0.32669731521E+02  0.21950444099E+02  0.60469247779E+02  0.00000000000E+00 0.  1.
         12    1    4    4    0    0  0.25955747223E+02 -0.22048464224E+02 -0.38215180339E+02  0.51188236899E+02  0.00000000000E+00 0. -1.
         -5    1    5    5    0  502  0.22370510770E+02 -0.58309630157E+02  0.49100958264E+03  0.49498783113E+03  0.47000000000E+01 0.  1.
         11    1    6    6    0    0 -0.21673842855E+02  0.96156845535E+01  0.35634768923E+02  0.42802495368E+02  0.00000000000E+00 0. -1.
        -12    1    6    6    0    0 -0.94394539394E+02 -0.87071592477E+02  0.50045798710E+03  0.51667203150E+03  0.00000000000E+00 0.  1.
</event>
<event>
12    1  0.1039610E+000  0.2723538E+03  0.7818608E-02  0.1100641E+00
         21   -1    0    0  501  502  0.00000000000E+00  0.00000000000E+00  0.65562131271E+02  0.65562131271E+02  0.00000000000E+00 0.  1.
         21   -1    0    0  502  503 -0.00000000000E+00 -0.00000000000E+00 -0.11427133631E+04  0.11427133631E+04  0.00000000000E+00 0.  1.
         -6    2    1    2    0  503 -0.52067768711E+02 -0.20261989099E+03 -0.44287429138E+03  0.51991752900E+03  0.17438671461E+03 0.  0.
        -24    2    3    3    0    0 -0.12216423137E+02 -0.21292500354E+03 -0.34201001080E+03  0.41087616902E+03  0.79762652036E+02 0.  0.
          6    2    1    2  501    0  0.52067768711E+02  0.20261989099E+03 -0.63427694047E+03  0.68835796539E+03  0.16662406351E+03 0.  0.
         24    2    5    5    0    0  0.89730990954E+02  0.13922688053E+03 -0.37489887208E+03  0.41866134982E+03  0.85395471488E+02 0.  0.
          5    1    5    5  501    0 -0.37663222243E+02  0.63393010463E+02 -0.25937806840E+03  0.26969661557E+03  0.47000000000E+01 0. -1.
        -11    1    6    6    0    0  0.60393240677E+02  0.10344418697E+03 -0.16603428003E+03  0.20473257064E+03  0.00000000000E+00 0.  1.
         12    1    6    6    0    0  0.29337750277E+02  0.35782693560E+02 -0.20886459205E+03  0.21392877918E+03  0.00000000000E+00 0. -1.
         -5    1    3    3    0  503 -0.39851345574E+02  0.10305112543E+02 -0.10086428058E+03  0.10904135998E+03  0.47000000000E+01 0.  1.
         13    1    4    4    0    0 -0.41394683933E+02 -0.11310824726E+03 -0.21774857930E+03  0.24884018816E+03  0.00000000000E+00 0. -1.
        -14    1    4    4    0    0  0.29178260796E+02 -0.99816756273E+02 -0.12426143150E+03  0.16203598086E+03  0.00000000000E+00 0.  1.
</event>
<event>
12    1  0.1039610E+000  0.1988418E+03  0.7818608E-02  0.1152105E+00
         21   -1    0    0  503  502  0.00000000000E+00  0.00000000000E+00  0.15047384782E+03  0.15047384782E+03  0.00000000000E+00 0.  1.
         21   -1    0    0  501  503 -0.00000000000E+00 -0.00000000000E+00 -0.32738332972E+03  0.32738332972E+03  0.00000000000E+00 0.  1.
          6    2    1    2  501    0  0.42221256769E+02 -0.90512345865E+02 -0.20015782686E+03  0.27766092579E+03  0.16449107811E+03 0.  0.
         24    2    3    3    0    0 -0.36188601584E+02 -0.39124576562E+02 -0.12992837677E+03  0.16043006645E+03  0.77563366068E+02 0.  0.
         -6    2    1    2    0  502 -0.42221256769E+02  0.90512345865E+02  0.23248344958E+02  0.20019625176E+03  0.17193875189E+03 0.  0.
        -24    2    5    5    0    0 -0.32366955611E+01  0.31250764318E+02  0.74649895613E+02  0.11246974226E+03  0.78036847325E+02 0.  0.
          5    1    3    3  501    0  0.78409858352E+02 -0.51387769303E+02 -0.70229450091E+02  0.11723085934E+03  0.47000000000E+01 0. -1.
        -11    1    4    4    0    0 -0.19220091329E+02  0.15610082491E+01  0.37729885182E+01  0.19649022871E+02  0.00000000000E+00 0.  1.
         12    1    4    4    0    0 -0.16968510255E+02 -0.40685584811E+02 -0.13370136528E+03  0.14078104358E+03  0.00000000000E+00 0. -1.
         -5    1    5    5    0  502 -0.38984561207E+02  0.59261581546E+02 -0.51401550655E+02  0.87726509504E+02  0.47000000000E+01 0.  1.
         13    1    6    6    0    0 -0.22990481792E+02  0.41058072675E+02  0.15824777636E+02  0.49646260403E+02  0.00000000000E+00 0. -1.
        -14    1    6    6    0    0  0.19753786231E+02 -0.98073083564E+01  0.58825117977E+02  0.62823481857E+02  0.00000000000E+00 0.  1.
</event>
<event>
12    1  0.1039610E+000  0.2892524E+03  0.7818608E-02  0.1090742E+00
         21   -1    0    0  501  502  0.00000000000E+00  0.00000000000E+00  0.13478379429E+03  0.13478379429E+03  0.00000000000E+00 0.  1.
         21   -1    0    0  502  503 -0.00000000000E+00 -0.00000000000E+00 -0.10496076348E+04  0.10496076348E+04  0.00000000000E+00 0.  1.
         -6    2    1    2    0  503 -0.17721475398E+03  0.15086606400E+03 -0.78850355650E+02  0.29979059672E+03  0.17173055931E+03 0.  0.
        -24    2    3    3    0    0 -0.13769779810E+03  0.46514646841E+02 -0.40584700014E+01  0.16537808159E+03  0.78798113681E+02 0.  0.
          6    2    1    2  501    0  0.17721475398E+03 -0.15086606400E+03 -0.83597348485E+03  0.88460083236E+03  0.17175950321E+03 0.  0.
         24    2    5    5    0    0  0.98351568130E+02 -0.13543658312E+03 -0.71878803553E+03  0.74243195217E+03  0.80826137945E+02 0.  0.
          5    1    5    5  501    0  0.78863185855E+02 -0.15429480883E+02 -0.11718544932E+03  0.14216888019E+03  0.47000000000E+01 0. -1.
        -13    1    6    6    0    0  0.67512298091E+02 -0.32212404683E+02 -0.36579112921E+03  0.37336135260E+03  0.00000000000E+00 0.  1.
         14    1    6    6    0    0  0.30839270038E+02 -0.10322417843E+03 -0.35299690632E+03  0.36907059957E+03  0.00000000000E+00 0. -1.
         -5    1    3    3    0  503 -0.39516955888E+02  0.10435141716E+03 -0.74791885648E+02  0.13441251513E+03  0.47000000000E+01 0.  1.
         13    1    4    4    0    0 -0.14935540061E+02 -0.12255386222E+02  0.19271458709E+02  0.27288348597E+02  0.00000000000E+00 0. -1.
        -14    1    4    4    0    0 -0.12276225804E+03  0.58770033062E+02 -0.23329928710E+02  0.13808973299E+03  0.00000000000E+00 0.  1.
</event>
<event>
12    1  0.1039610E+000  0.1773812E+03  0.7818608E-02  0.1170815E+00
         21   -1    0    0  501  502  0.00000000000E+00  0.00000000000E+00  0.16134950460E+04  0.16134950460E+04  0.00000000000E+00 0. -1.
         21   -1    0    0  502  503 -0.00000000000E+00 -0.00000000000E+00 -0.19868255332E+02  0.19868255332E+02  0.00000000000E+00 0. -1.
         -6    2    1    2    0  503  0.38299501226E+02 -0.14105152903E+02  0.93087632022E+03  0.94728585206E+03  0.17074529224E+03 0.  0.
        -24    2    3    3    0    0 -0.28971483951E+02 -0.50412799627E+02  0.35235647119E+03  0.36371842974E+03  0.68958074939E+02 0.  0.
          6    2    1    2  501    0 -0.38299501226E+02  0.14105152903E+02  0.66275047046E+03  0.68607744928E+03  0.17262176339E+03 0.  0.
         24    2    5    5    0    0 -0.50538681709E+02  0.42552972592E+01  0.66503275767E+03  0.66952099948E+03  0.58459679063E+02 0.  0.
          5    1    5    5  501    0  0.12239180483E+02  0.98498556438E+01 -0.22822872114E+01  0.16556449801E+02  0.47000000000E+01 0. -1.
        -11    1    6    6    0    0 -0.61220029016E+02  0.14101056021E+02  0.53108976198E+03  0.53479254577E+03  0.00000000000E+00 0.  1.
         12    1    6    6    0    0  0.10681347308E+02 -0.98457587618E+01  0.13394299569E+03  0.13472845372E+03  0.00000000000E+00 0. -1.
         -5    1    3    3    0  503  0.67270985176E+02  0.36307646724E+02  0.57851984903E+03  0.58356742231E+03  0.47000000000E+01 0.  1.
         11    1    4    4    0    0  0.14221901243E+02 -0.91449397488E+01  0.18946858141E+03  0.19022154384E+03  0.00000000000E+00 0. -1.
        -12    1    4    4    0    0 -0.43193385194E+02 -0.41267859878E+02  0.16288788977E+03  0.17349688590E+03  0.00000000000E+00 0.  1.
</event>
<event>
12    1  0.1039610E+000  0.2011159E+03  0.7818608E-02  0.1149138E+00
         21   -1    0    0  503  502  0.00000000000E+00  0.00000000000E+00  0.64332625283E+02  0.64332625283E+02  0.00000000000E+00 0. -1.
         21   -1    0    0  501  503 -0.00000000000E+00 -0.00000000000E+00 -0.12453837736E+04  0.12453837736E+04  0.00000000000E+00 0. -1.
          6    2    1    2  501    0 -0.21131003174E+02  0.10196869765E+03 -0.12667217408E+03  0.23632801715E+03  0.17017919205E+03 0.  0.
         24    2    3    3    0    0 -0.27101863931E+02 -0.12057731739E+02 -0.59284411585E+02  0.10365971532E+03  0.79691876619E+02 0.  0.
         -6    2    1    2    0  502  0.21131003174E+02 -0.10196869765E+03 -0.10543789743E+04  0.10733883818E+04  0.17205656670E+03 0.  0.
        -24    2    5    5    0    0  0.16207224338E+00 -0.11307809477E+03 -0.49887888083E+03  0.51736180095E+03  0.77436513095E+02 0.  0.
          5    1    3    3  501    0  0.59708607564E+01  0.11402642938E+03 -0.67387762498E+02  0.13266830183E+03  0.47000000000E+01 0. -1.
        -13    1    4    4    0    0 -0.23353187916E+02  0.20114668516E+00  0.15340484489E+02  0.27941766412E+02  0.00000000000E+00 0.  1.
         14    1    4    4    0    0 -0.37486760144E+01 -0.12258878424E+02 -0.74624896074E+02  0.75717948903E+02  0.00000000000E+00 0. -1.
         -5    1    5    5    0  502  0.20968930931E+02  0.11109397122E+02 -0.55550009342E+03  0.55602658080E+03  0.47000000000E+01 0.  1.
         13    1    6    6    0    0 -0.35892149018E+02 -0.47502821441E+02 -0.27273579313E+03  0.27915869547E+03  0.00000000000E+00 0. -1.
        -14    1    6    6    0    0  0.36054221262E+02 -0.65575273326E+02 -0.22614308770E+03  0.23820310547E+03  0.00000000000E+00 0.  1.
</event>
<event>
12    1  0.1039610E+000  0.1729430E+03  0.7818608E-02  0.1175090E+00
         21   -1    0    0  503  502  0.00000000000E+00  0.00000000000E+00  0.13343348576E+04  0.13343348576E+04  0.00000000000E+00 0. -1.
         21   -1    0    0  501  503 -0.00000000000E+00 -0.00000000000E+00 -0.36151589674E+02  0.36151589674E+02  0.00000000000E+00 0. -1.
          6    2    1    2  501    0  0.15973335897E+02  0.15015684405E+02  0.10748884177E+04  0.10887122620E+04  0.17154783802E+03 0.  0.
         24    2    3    3    0    0  0.55457307482E+01 -0.38727581570E+02  0.33121764923E+03  0.34301435036E+03  0.80144448862E+02 0.  0.
         -6    2    1    2    0  502 -0.15973335897E+02 -0.15015684405E+02  0.22329485025E+03  0.28177418527E+03  0.17045668982E+03 0.  0.
        -24    2    5    5    0    0  0.31716353775E+02 -0.60401224615E+02  0.13155539668E+03  0.16875926988E+03  0.80738056348E+02 0.  0.
          5    1    3    3  501    0  0.10427605148E+02  0.53743265975E+02  0.74367076849E+03  0.74569791168E+03  0.47000000000E+01 0. -1.
        -13    1    4    4    0    0  0.12603720195E+02 -0.46807227183E+02  0.32835077399E+03  0.33190962785E+03  0.00000000000E+00 0.  1.
         14    1    4    4    0    0 -0.70579894470E+01  0.80796456123E+01  0.28668752398E+01  0.11104722504E+02  0.00000000000E+00 0. -1.
         -5    1    5    5    0  502 -0.47689689671E+02  0.45385540210E+02  0.91739453567E+02  0.11301491540E+03  0.47000000000E+01 0.  1.
         13    1    6    6    0    0  0.37886145819E+02  0.64083400121E+01  0.43182369933E+02  0.57802629177E+02  0.00000000000E+00 0. -1.
        -14    1    6    6    0    0 -0.61697920447E+01 -0.66809564627E+02  0.88373026746E+02  0.11095664070E+03  0.00000000000E+00 0.  1.
</event>
<event>
12    1  0.1039610E+000  0.1775697E+03  0.7818608E-02  0.1170230E+00
         21   -1    0    0  503  502  0.00000000000E+00  0.00000000000E+00  0.20649529459E+02  0.20649529459E+02  0.00000000000E+00 0.  1.
         21   -1    0    0  501  503 -0.00000000000E+00 -0.00000000000E+00 -0.15419593226E+04  0.15419593226E+04  0.00000000000E+00 0.  1.
          6    2    1    2  501    0  0.42594891209E+02 -0.13949590574E+02 -0.84195407601E+03  0.86042997365E+03  0.17159299988E+03 0.  0.
         24    2    3    3    0    0  0.96309291809E+02  0.14983652015E+02 -0.54589708741E+03  0.55811523723E+03  0.63158518554E+02 0.  0.
         -6    2    1    2    0  502 -0.42594891209E+02  0.13949590574E+02 -0.67935571711E+03  0.70217887839E+03  0.17181987968E+03 0.  0.
        -24    2    5    5    0    0 -0.42895060006E+02 -0.25878029513E+02 -0.63733198111E+03  0.64408917353E+03  0.78416520765E+02 0.  0.
          5    1    3    3  501    0 -0.53714400600E+02 -0.28933242588E+02 -0.29605698860E+03  0.30231473642E+03  0.47000000000E+01 0. -1.
        -13    1    4    4    0    0  0.35819169267E+02  0.31878223247E+02 -0.15634702873E+03  0.16353478956E+03  0.00000000000E+00 0.  1.
         14    1    4    4    0    0  0.60490122542E+02 -0.16894571232E+02 -0.38955005868E+03  0.39458044766E+03  0.00000000000E+00 0. -1.
         -5    1    5    5    0  502  0.30016879654E+00  0.39827620087E+02 -0.42023735994E+02  0.58089704853E+02  0.47000000000E+01 0.  1.
         13    1    6    6    0    0 -0.35693129998E+00 -0.45969954803E+02 -0.32406770504E+03  0.32731214703E+03  0.00000000000E+00 0. -1.
        -14    1    6    6    0    0 -0.42538128706E+02  0.20091925290E+02 -0.31326427608E+03  0.31677702650E+03  0.00000000000E+00 0.  1.
</event>
<event>
12    1  0.1039610E+000  0.1765478E+03  0.7818608E-02  0.1172182E+00
         21   -1    0    0  501  502  0.00000000000E+00  0.00000000000E+00  0.50706420029E+03  0.50706420029E+03  0.00000000000E+00 0. -1.
         21   -1    0    0  502  503 -0.00000000000E+00 -0.00000000000E+00 -0.61503153642E+02  0.61503153642E+02  0.00000000000E+00 0. -1.
         -6    2    1    2    0  503  0.27133046136E+02 -0.35213597910E+02  0.17733858434E+03  0.24745613182E+03  0.16676139844E+03 0.  0.
        -24    2    3    3    0    0 -0.30951991334E+02  0.22137857016E+02  0.71019171042E+02  0.11333317106E+03  0.79703039624E+02 0.  0.
          6    2    1    2  501    0 -0.27133046136E+02  0.35213597910E+02  0.26822246231E+03  0.32111122211E+03  0.17085938081E+03 0.  0.
         24    2    5    5    0    0 -0.49549289146E+02 -0.35239608659E+02  0.18576565713E+03  0.21026287081E+03  0.77489569614E+02 0.  0.
          5    1    5    5  501    0  0.22416243010E+02  0.70453206569E+02  0.82456805182E+02  0.11084835131E+03  0.47000000000E+01 0. -1.
        -13    1    6    6    0    0 -0.61153316889E+02 -0.21475729579E+01  0.95471674270E+02  0.11339832814E+03  0.00000000000E+00 0.  1.
         14    1    6    6    0    0  0.11604027743E+02 -0.33092035701E+02  0.90293982858E+02  0.96864542672E+02  0.00000000000E+00 0. -1.
         -5    1    3    3    0  503  0.58085037469E+02 -0.57351454926E+02  0.10631941329E+03  0.13412296076E+03  0.47000000000E+01 0.  1.
         11    1    4    4    0    0 -0.25577241156E+02  0.47967920238E+01  0.85965105195E+02  0.89817614030E+02  0.00000000000E+00 0. -1.
        -12    1    4    4    0    0 -0.53747501774E+01  0.17341064992E+02 -0.14945934153E+02  0.23515557026E+02  0.00000000000E+00 0.  1.
</event>
<event>
12    1  0.1039610E+000  0.1796414E+03  0.7818608E-02  0.1168503E+00
         21   -1    0    0  503  502  0.00000000000E+00  0.00000000000E+00  0.13915907763E+03  0.13915907763E+03  0.00000000000E+00 0. -1.
         21   -1    0    0  501  503 -0.00000000000E+00 -0.00000000000E+00 -0.25175661350E+03  0.25175661350E+03  0.00000000000E+00 0. -1.
          6    2    1    2  501    0 -0.38703852287E+02  0.31730253164E+02  0.90345132567E+00  0.17964364899E+03  0.17252891715E+03 0.  0.
         24    2    3    3    0    0 -0.62836742839E+02  0.63398127036E+02 -0.35975804502E+02  0.12516961709E+03  0.80033716455E+02 0.  0.
         -6    2    1    2    0  502  0.38703852287E+02 -0.31730253164E+02 -0.11350098720E+03  0.21127204214E+03  0.17102223407E+03 0.  0.
        -24    2    5    5    0    0  0.86897616768E+02 -0.27954731837E+02 -0.52327591928E+02  0.13316206975E+03  0.81616769799E+02 0.  0.
          5    1    3    3  501    0  0.24132890552E+02 -0.31667873872E+02  0.36879255828E+02  0.54474031908E+02  0.47000000000E+01 0. -1.
        -13    1    4    4    0    0 -0.54458193329E+02 -0.13508373741E+01 -0.13528131452E+02  0.56129581531E+02  0.00000000000E+00 0.  1.
         14    1    4    4    0    0 -0.83785495099E+01  0.64748964410E+02 -0.22447673050E+02  0.69040035555E+02  0.00000000000E+00 0. -1.
         -5    1    5    5    0  502 -0.48193764481E+02 -0.37755213273E+01 -0.61173395275E+02  0.78109972383E+02  0.47000000000E+01 0.  1.
         11    1    6    6    0    0  0.39541188963E+02 -0.46652480906E+02 -0.14322464343E+01  0.61171978300E+02  0.00000000000E+00 0. -1.
        -12    1    6    6    0    0  0.47356427805E+02  0.18697749069E+02 -0.50895345493E+02  0.71990091454E+02  0.00000000000E+00 0.  1.
</event>
<event>
12    1  0.1039610E+000  0.1991683E+03  0.7818608E-02  0.1150568E+00
         21   -1    0    0  503  502  0.00000000000E+00  0.00000000000E+00  0.41577158969E+03  0.41577158969E+03  0.00000000000E+00 0. -1.
         21   -1    0    0  501  503 -0.00000000000E+00 -0.00000000000E+00 -0.10577862467E+03  0.10577862467E+03  0.00000000000E+00 0. -1.
          6    2    1    2  501    0  0.29081486475E+02 -0.96496651241E+02  0.23795894922E+03  0.31031027940E+03  0.17178670330E+03 0.  0.
         24    2    3    3    0    0 -0.49296269896E+02 -0.59631262002E+02  0.14708888483E+03  0.18468548798E+03  0.80545513812E+02 0.  0.
         -6    2    1    2    0  502 -0.29081486475E+02  0.96496651241E+02  0.72034015804E+02  0.21123993496E+03  0.17110252521E+03 0.  0.
        -24    2    5    5    0    0 -0.86735261010E+02  0.47696602680E+02  0.43016228088E+02  0.13018733191E+03  0.72803668184E+02 0.  0.
          5    1    3    3  501    0  0.78377756372E+02 -0.36865389239E+02  0.90870064385E+02  0.12562479142E+03  0.47000000000E+01 0. -1.
        -13    1    4    4    0    0  0.58802771699E+00 -0.77245152542E+01  0.96230194059E+02  0.96541515221E+02  0.00000000000E+00 0.  1.
         14    1    4    4    0    0 -0.49884297613E+02 -0.51906746748E+02  0.50858690771E+02  0.88143972756E+02  0.00000000000E+00 0. -1.
         -5    1    5    5    0  502  0.57653774534E+02  0.48800048561E+02  0.29017787715E+02  0.81052603052E+02  0.47000000000E+01 0.  1.
         13    1    6    6    0    0 -0.13048215867E+00 -0.14188015737E+02 -0.25245227697E+01  0.14411454866E+02  0.00000000000E+00 0. -1.
        -14    1    6    6    0    0 -0.86604778851E+02  0.61884618417E+02  0.45540750858E+02  0.11577587704E+03  0.00000000000E+00 0.  1.
</event>
<event>
12    1  0.1039610E+000  0.1849508E+03  0.7818608E-02  0.1164430E+00
         21   -1    0    0  503  502  0.00000000000E+00  0.00000000000E+00  0.15888986570E+04  0.15888986570E+04  0.00000000000E+00 0.  1.
         21   -1    0    0  501  503 -0.00000000000E+00 -0.00000000000E+00 -0.21047326575E+02  0.21047326575E+02  0.00000000000E+00 0.  1.
          6    2    1    2  501    0 -0.80790496112E+01 -0.55759956375E+02  0.70011718766E+03  0.72272034007E+03  0.17025325170E+03 0.  0.
         24    2    3    3    0    0  0.10045345814E+02 -0.22080960938E+01  0.16121972947E+03  0.18084502610E+03  0.81285531509E+02 0.  0.
         -6    2    1    2    0  502  0.80790496112E+01  0.55759956375E+02  0.86773414280E+03  0.88722564354E+03  0.17616003008E+03 0.  0.
        -24    2    5    5    0    0 -0.30888454287E+02  0.38556357848E+01  0.22148881550E+03  0.23771225807E+03  0.80503786914E+02 0.  0.
          5    1    3    3  501    0 -0.18124395426E+02 -0.53551860281E+02  0.53889745819E+03  0.54187531397E+03  0.47000000000E+01 0. -1.
        -11    1    4    4    0    0  0.28902439145E+02 -0.19177922226E+02  0.26217373733E+02  0.43479815718E+02  0.00000000000E+00 0.  1.
         12    1    4    4    0    0 -0.18857093330E+02  0.16969826133E+02  0.13500235574E+03  0.13736521038E+03  0.00000000000E+00 0. -1.
         -5    1    5    5    0  502  0.38967503898E+02  0.51904320590E+02  0.64624532729E+03  0.64951338547E+03  0.47000000000E+01 0.  1.
         11    1    6    6    0    0  0.22865929734E+01  0.27648796766E+02  0.26054709631E+02  0.38059589645E+02  0.00000000000E+00 0. -1.
        -12    1    6    6    0    0 -0.33175047260E+02 -0.23793160981E+02  0.19543410587E+03  0.19965266842E+03  0.00000000000E+00 0.  1.
</event>
<event>
12    1  0.1039610E+000  0.2529079E+03  0.7818608E-02  0.1111922E+00
         21   -1    0    0  501  502  0.00000000000E+00  0.00000000000E+00  0.35388788724E+03  0.35388788724E+03  0.00000000000E+00 0. -1.
         21   -1    0    0  502  503 -0.00000000000E+00 -0.00000000000E+00 -0.18004721011E+03  0.18004721011E+03  0.00000000000E+00 0. -1.
         -6    2    1    2    0  503  0.15671831650E+03 -0.90934457033E+02  0.11021317754E+03  0.27587927697E+03  0.17644467902E+03 0.  0.
        -24    2    3    3    0    0  0.88259560231E+02  0.83026582431E+01  0.11845339186E+02  0.12020998654E+03  0.80320885817E+02 0.  0.
          6    2    1    2  501    0 -0.15671831650E+03  0.90934457033E+02  0.63627499593E+02  0.25805582039E+03  0.17237935354E+03 0.  0.
         24    2    5    5    0    0 -0.67288479429E+02  0.85645365860E+02  0.93016726232E+02  0.16365514832E+03  0.79170878834E+02 0.  0.
          5    1    5    5  501    0 -0.89429837073E+02  0.52890911736E+01 -0.29389226640E+02  0.94400672067E+02  0.47000000000E+01 0. -1.
        -11    1    6    6    0    0 -0.59184349112E+02  0.99018516425E+02  0.67290778790E+02  0.13354962630E+03  0.00000000000E+00 0.  1.
         12    1    6    6    0    0 -0.81041303163E+01 -0.13373150565E+02  0.25725947442E+02  0.30105522019E+02  0.00000000000E+00 0. -1.
         -5    1    3    3    0  503  0.68458756270E+02 -0.99237115276E+02  0.98367838352E+02  0.15566929042E+03  0.47000000000E+01 0.  1.
         11    1    4    4    0    0 -0.96213646710E+01 -0.46700624638E+01  0.18371426022E+02  0.21257691211E+02  0.00000000000E+00 0. -1.
        -12    1    4    4    0    0  0.97880924902E+02  0.12972720707E+02 -0.65260868361E+01  0.98952295333E+02  0.00000000000E+00 0.  1.
</event>
<event>
12    1  0.1039610E+000  0.3760354E+03  0.7818608E-02  0.1052510E+00
         21   -1    0    0  501  502  0.00000000000E+00  0.00000000000E+00  0.16479485303E+04  0.16479485303E+04  0.00000000000E+00 0. -1.
         21   -1    0    0  502  503 -0.00000000000E+00 -0.00000000000E+00 -0.89365947678E+02  0.89365947678E+02  0.00000000000E+00 0.  1.
         -6    2    1    2    0  503  0.30512754027E+03 -0.13330535074E+03  0.59891516114E+03  0.70660393937E+03  0.17238510529E+03 0.  0.
        -24    2    3    3    0    0  0.12713473224E+03 -0.29534589440E+02  0.35996662620E+03  0.39105948456E+03  0.79473368953E+02 0.  0.
          6    2    1    2  501    0 -0.30512754027E+03  0.13330535074E+03  0.95966742146E+03  0.10307105386E+04  0.17472699325E+03 0.  0.
         24    2    5    5    0    0 -0.31047580347E+03  0.15262633598E+03  0.91376736319E+03  0.98040338463E+03  0.80808289069E+02 0.  0.
          5    1    5    5  501    0  0.53482632009E+01 -0.19320985244E+02  0.45900058269E+02  0.50307153956E+02  0.47000000000E+01 0. -1.
        -11    1    6    6    0    0 -0.14275016487E+03  0.11451970669E+03  0.48996308903E+03  0.52302600452E+03  0.00000000000E+00 0.  1.
         12    1    6    6    0    0 -0.16772563860E+03  0.38106629296E+02  0.42380427416E+03  0.45737738011E+03  0.00000000000E+00 0. -1.
         -5    1    3    3    0  503  0.17799280803E+03 -0.10377076130E+03  0.23894853494E+03  0.31554445481E+03  0.47000000000E+01 0.  1.
         13    1    4    4    0    0  0.83092312540E+02 -0.18786516396E+02  0.31823960516E+03  0.32944455056E+03  0.00000000000E+00 0. -1.
        -14    1    4    4    0    0  0.44042419697E+02 -0.10748073044E+02  0.41727021037E+02  0.61614933998E+02  0.00000000000E+00 0.  1.
</event>
<event>
12    1  0.1039610E+000  0.1847327E+03  0.7818608E-02  0.1163996E+00
         21   -1    0    0  503  502  0.00000000000E+00  0.00000000000E+00  0.27943564322E+03  0.27943564322E+03  0.00000000000E+00 0. -1.
         21   -1    0    0  501  503 -0.00000000000E+00 -0.00000000000E+00 -0.17315617591E+03  0.17315617591E+03  0.00000000000E+00 0. -1.
          6    2    1    2  501    0 -0.54373564409E+02  0.30304992616E+02  0.17860132786E+03  0.25695252367E+03  0.17392897407E+03 0.  0.
         24    2    3    3    0    0 -0.23011578042E+02 -0.18180997450E+02  0.16311387846E+02  0.84631369853E+02  0.77693796390E+02 0.  0.
         -6    2    1    2    0  502  0.54373564409E+02 -0.30304992616E+02 -0.72321860542E+02  0.19563929546E+03  0.17079053057E+03 0.  0.
        -24    2    5    5    0    0 -0.29542140786E+02  0.72718786546E+01 -0.13587128803E+02  0.86434325131E+02  0.79753772264E+02 0.  0.
          5    1    3    3  501    0 -0.31361986367E+02  0.48485990065E+02  0.16228994002E+03  0.17232115381E+03  0.47000000000E+01 0. -1.
        -13    1    4    4    0    0  0.13556124346E+02  0.17915833221E+02 -0.12512816234E+02  0.25716068078E+02  0.00000000000E+00 0.  1.
         14    1    4    4    0    0 -0.36567702388E+02 -0.36096830671E+02  0.28824204080E+02  0.58915301775E+02  0.00000000000E+00 0. -1.
         -5    1    5    5    0  502  0.83915705195E+02 -0.37576871270E+02 -0.58734731739E+02  0.10920497033E+03  0.47000000000E+01 0.  1.
         11    1    6    6    0    0  0.16056548804E+01  0.10683617533E+02 -0.42467971264E+02  0.43820616089E+02  0.00000000000E+00 0. -1.
        -12    1    6    6    0    0 -0.31147795667E+02 -0.34117388784E+01  0.28880842461E+02  0.42613709042E+02  0.00000000000E+00 0.  1.
</event>
<event>
12    1  0.1039610E+000  0.1927191E+03  0.7818608E-02  0.1157171E+00
         21   -1    0    0  501  502  0.00000000000E+00  0.00000000000E+00  0.60630865652E+03  0.60630865652E+03  0.00000000000E+00 0. -1.
         21   -1    0    0  502  503 -0.00000000000E+00 -0.00000000000E+00 -0.61395334522E+02  0.61395334522E+02  0.00000000000E+00 0. -1.
         -6    2    1    2    0  503 -0.54614193757E+02  0.61180177232E+02  0.21271045891E+03  0.28364748816E+03  0.16877332123E+03 0.  0.
        -24    2    3    3    0    0 -0.87136135448E+02  0.84252518179E+02  0.14507043879E+03  0.20498827427E+03  0.79268956436E+02 0.  0.
          6    2    1    2  501    0  0.54614193757E+02 -0.61180177232E+02  0.33220286309E+03  0.38405650289E+03  0.17439876984E+03 0.  0.
         24    2    5    5    0    0  0.80963199131E+02  0.63899667350E+01  0.15330292564E+03  0.19095737793E+03  0.79793871245E+02 0.  0.
          5    1    5    5  501    0 -0.26349005374E+02 -0.67570143967E+02  0.17889993745E+03  0.19309912496E+03  0.47000000000E+01 0. -1.
        -13    1    6    6    0    0  0.72353449919E+02 -0.28478339719E+02  0.10980836445E+03  0.13455078763E+03  0.00000000000E+00 0.  1.
         14    1    6    6    0    0  0.86097492127E+01  0.34868306454E+02  0.43494561192E+02  0.56406590305E+02  0.00000000000E+00 0. -1.
         -5    1    3    3    0  503  0.32521941691E+02 -0.23072340947E+02  0.67640020117E+02  0.78659213889E+02  0.47000000000E+01 0.  1.
         11    1    4    4    0    0 -0.65470116034E+02  0.45328408395E+02  0.36427614739E+02  0.87566956191E+02  0.00000000000E+00 0. -1.
        -12    1    4    4    0    0 -0.21666019414E+02  0.38924109785E+02  0.10864282406E+03  0.11742131808E+03  0.00000000000E+00 0.  1.
</event>
<event>
12    1  0.1039610E+000  0.1845053E+03  0.7818608E-02  0.1165738E+00
         21   -1    0    0  503  502  0.00000000000E+00  0.00000000000E+00  0.14054592108E+03  0.14054592108E+03  0.00000000000E+00 0. -1.
         21   -1    0    0  501  503 -0.00000000000E+00 -0.00000000000E+00 -0.23040119676E+03  0.23040119676E+03  0.00000000000E+00 0. -1.
          6    2    1    2  501    0  0.62055521487E+02 -0.14756428540E+02 -0.51045460931E+02  0.19143627293E+03  0.17312876012E+03 0.  0.
         24    2    3    3    0    0 -0.13719932619E+02 -0.54643653620E+02 -0.39238883386E+02  0.10486609652E+03  0.79265647026E+02 0.  0.
         -6    2    1    2    0  502 -0.62055521487E+02  0.14756428540E+02 -0.38809814751E+02  0.17951084491E+03  0.16324613866E+03 0.  0.
        -24    2    5    5    0    0 -0.35686721616E+02  0.70612500307E+02 -0.32882521451E+02  0.11728193550E+03  0.80088231837E+02 0.  0.
          5    1    3    3  501    0  0.75775454106E+02  0.39887225080E+02 -0.11806577545E+02  0.86570176406E+02  0.47000000000E+01 0. -1.
        -13    1    4    4    0    0  0.14431812046E+02 -0.37516351513E+02  0.13735973669E+02  0.42478592284E+02  0.00000000000E+00 0.  1.
         14    1    4    4    0    0 -0.28151744666E+02 -0.17127302107E+02 -0.52974857055E+02  0.62387504239E+02  0.00000000000E+00 0. -1.
         -5    1    5    5    0  502 -0.26368799870E+02 -0.55856071767E+02 -0.59272932997E+01  0.62228909405E+02  0.47000000000E+01 0.  1.
         11    1    6    6    0    0  0.11186859526E+02  0.24088450129E+02 -0.42927931650E+02  0.50479763980E+02  0.00000000000E+00 0. -1.
        -12    1    6    6    0    0 -0.46873581143E+02  0.46524050178E+02  0.10045410199E+02  0.66802171522E+02  0.00000000000E+00 0.  1.
</event>
<event>
12    1  0.1039610E+000  0.2120881E+03  0.7818608E-02  0.1140707E+00
         21   -1    0    0  501  502  0.00000000000E+00  0.00000000000E+00  0.13047098370E+03  0.13047098370E+03  0.00000000000E+00 0.  1.
         21   -1    0    0  502  503 -0.00000000000E+00 -0.00000000000E+00 -0.33888241355E+03  0.33888241355E+03  0.00000000000E+00 0.  1.
         -6    2    1    2    0  503  0.11974961080E+03 -0.26796794066E+01 -0.95799617861E+02  0.23272066992E+03  0.17502626504E+03 0.  0.
        -24    2    3    3    0    0  0.15418910451E+03  0.14145914782E+02 -0.79113362527E+02  0.19065286199E+03  0.78199762151E+02 0.  0.
          6    2    1    2  501    0 -0.11974961080E+03  0.26796794066E+01 -0.11261181199E+03  0.23663272733E+03  0.17019540968E+03 0.  0.
         24    2    5    5    0    0 -0.96977854764E+01  0.27358028735E+02 -0.11334447403E+02  0.84976472071E+02  0.79057082721E+02 0.  0.
          5    1    5    5  501    0 -0.11005182533E+03 -0.24678349328E+02 -0.10127736458E+03  0.15165625526E+03  0.47000000000E+01 0. -1.
        -13    1    6    6    0    0  0.19510141015E+02  0.41376613390E+02 -0.22143153665E+02  0.50823114744E+02  0.00000000000E+00 0.  1.
         14    1    6    6    0    0 -0.29207926491E+02 -0.14018584655E+02  0.10808706262E+02  0.34153357327E+02  0.00000000000E+00 0. -1.
         -5    1    3    3    0  503 -0.34439493706E+02 -0.16825594189E+02 -0.16686255335E+02  0.42067807925E+02  0.47000000000E+01 0.  1.
         11    1    4    4    0    0  0.43926192273E+02  0.56958789740E+01  0.13609709721E+02  0.46337647799E+02  0.00000000000E+00 0. -1.
        -12    1    4    4    0    0  0.11026291224E+03  0.84500358082E+01 -0.92723072247E+02  0.14431521419E+03  0.00000000000E+00 0.  1.
</event>
<event>
12    1  0.1039610E+000  0.2132135E+03  0.7818608E-02  0.1139153E+00
         21   -1    0    0  503  502  0.00000000000E+00  0.00000000000E+00  0.10991221810E+03  0.10991221810E+03  0.00000000000E+00 0.  1.
         21   -1    0    0  501  503 -0.00000000000E+00 -0.00000000000E+00 -0.45943064905E+03  0.45943064905E+03  0.00000000000E+00 0.  1.
          6    2    1    2  501    0 -0.51572700824E+02 -0.11371944887E+03 -0.26590628161E+03  0.34083153888E+03  0.17282398784E+03 0.  0.
         24    2    3    3    0    0 -0.77212184100E+02 -0.10039135547E+03 -0.12040109345E+03  0.19241027706E+03  0.80530402887E+02 0.  0.
         -6    2    1    2    0  502  0.51572700824E+02  0.11371944887E+03 -0.83612149332E+02  0.22851132828E+03  0.17214696952E+03 0.  0.
        -24    2    5    5    0    0 -0.53725464722E+01  0.91374214300E+02  0.33302960921E+01  0.12210103971E+03  0.80743183803E+02 0.  0.
          5    1    3    3  501    0  0.25639483276E+02 -0.13328093402E+02 -0.14550518817E+03  0.14842126182E+03  0.47000000000E+01 0. -1.
        -13    1    4    4    0    0  0.12222173841E+02 -0.98560139141E+01  0.20143452090E+01  0.15829723001E+02  0.00000000000E+00 0.  1.
         14    1    4    4    0    0 -0.89434357941E+02 -0.90535341551E+02 -0.12241543866E+03  0.17658055406E+03  0.00000000000E+00 0. -1.
         -5    1    5    5    0  502  0.56945247297E+02  0.22345234567E+02 -0.86942445424E+02  0.10641028857E+03  0.47000000000E+01 0.  1.
         11    1    6    6    0    0 -0.24896682366E+02  0.63398583369E+02 -0.29982637693E+02  0.74418974254E+02  0.00000000000E+00 0. -1.
        -12    1    6    6    0    0  0.19524135893E+02  0.27975630931E+02  0.33312933785E+02  0.47682065452E+02  0.00000000000E+00 0.  1.
</event>
<event>
12    1  0.1039610E+000  0.2039599E+03  0.7818608E-02  0.1146980E+00
         21   -1    0    0  503  502  0.00000000000E+00  0.00000000000E+00  0.26957145245E+03  0.26957145245E+03  0.00000000000E+00 0. -1.
         21   -1    0    0  501  503 -0.00000000000E+00 -0.00000000000E+00 -0.15283322469E+03  0.15283322469E+03  0.00000000000E+00 0. -1.
          6    2    1    2  501    0  0.90432081990E+02 -0.52780665890E+02  0.70588054386E+02  0.21582940082E+03  0.17503113064E+03 0.  0.
         24    2    3    3    0    0  0.42028878320E+02 -0.84336865115E+02 -0.27258730790E+01  0.12236451011E+03  0.78016085012E+02 0.  0.
         -6    2    1    2    0  502 -0.90432081990E+02  0.52780665890E+02  0.46150173370E+02  0.20657527632E+03  0.17198763369E+03 0.  0.
        -24    2    5    5    0    0  0.28486820829E+01  0.69517283105E+02  0.30433652795E+02  0.11039568223E+03  0.80126348923E+02 0.  0.
          5    1    3    3  501    0  0.48403203670E+02  0.31556199225E+02  0.73313927465E+02  0.93464890710E+02  0.47000000000E+01 0. -1.
        -11    1    4    4    0    0 -0.66532847191E+01  0.78182452041E+01  0.13421603986E+02  0.16897650996E+02  0.00000000000E+00 0.  1.
         12    1    4    4    0    0  0.48682163039E+02 -0.92155110319E+02 -0.16147477065E+02  0.10546685912E+03  0.00000000000E+00 0. -1.
         -5    1    5    5    0  502 -0.93280764073E+02 -0.16736617216E+02  0.15716520575E+02  0.96179594098E+02  0.47000000000E+01 0.  1.
         13    1    6    6    0    0 -0.76854126705E+01  0.10266147773E+02  0.46394955915E+02  0.48134720238E+02  0.00000000000E+00 0. -1.
        -14    1    6    6    0    0  0.10534094753E+02  0.59251135332E+02 -0.15961303120E+02  0.62260961988E+02  0.00000000000E+00 0.  1.
</event>
<event>
12    1  0.1039610E+000  0.4496128E+03  0.7818608E-02  0.1027890E+00
         21   -1    0    0  503  502  0.00000000000E+00  0.00000000000E+00  0.74732812989E+03  0.74732812989E+03  0.00000000000E+00 0.  1.
         21   -1    0    0  501  503 -0.00000000000E+00 -0.00000000000E+00 -0.27654754969E+03  0.27654754969E+03  0.00000000000E+00 0. -1.
          6    2    1    2  501    0  0.37321094401E+03  0.18236183436E+03  0.31351790404E+03  0.54755306811E+03  0.17023113370E+03 0.  0.
         24    2    3    3    0    0  0.22778397334E+03  0.18229657325E+03  0.22693306408E+03  0.37823669983E+03  0.80292007035E+02 0.  0.
         -6    2    1    2    0  502 -0.37321094401E+03 -0.18236183436E+03  0.15726267615E+03  0.47632261148E+03  0.17207391882E+03 0.  0.
        -24    2    5    5    0    0 -0.30142869707E+03 -0.18538144507E+03  0.79452825023E+02  0.37031189524E+03  0.74783746631E+02 0.  0.
          5    1    3    3  501    0  0.14542697066E+03  0.65261106348E-01  0.86584839959E+02  0.16931636827E+03  0.47000000000E+01 0. -1.
        -11    1    4    4    0    0  0.18327273494E+03  0.12623143303E+03  0.12997250087E+03  0.25771325352E+03  0.00000000000E+00 0.  1.
         12    1    4    4    0    0  0.44511238407E+02  0.56065140217E+02  0.96960563217E+02  0.12052344631E+03  0.00000000000E+00 0. -1.
         -5    1    5    5    0  502 -0.71782246934E+02  0.30196107135E+01  0.77809851128E+02  0.10601071623E+03  0.47000000000E+01 0.  1.
         11    1    6    6    0    0 -0.14938923452E+03 -0.10785421872E+03  0.76819132959E+02  0.19962678947E+03  0.00000000000E+00 0. -1.
        -12    1    6    6    0    0 -0.15203946255E+03 -0.77527226350E+02  0.26336920645E+01  0.17068510577E+03  0.00000000000E+00 0.  1.
</event>
<event>
12    1  0.1039610E+000  0.1848565E+03  0.7818608E-02  0.1164883E+00
         21   -1    0    0  501  502  0.00000000000E+00  0.00000000000E+00  0.19033158301E+04  0.19033158301E+04  0.00000000000E+00 0.  1.
         21   -1    0    0  502  503 -0.00000000000E+00 -0.00000000000E+00 -0.17360133237E+02  0.17360133237E+02  0.00000000000E+00 0.  1.
         -6    2    1    2    0  503 -0.44441455334E+02  0.10314947978E+02  0.89190377340E+03  0.91085908203E+03  0.17913817353E+03 0.  0.
        -24    2    3    3    0    0 -0.57293241990E+01 -0.47166212081E+02  0.27929779778E+03  0.29432774932E+03  0.79775230837E+02 0.  0.
          6    2    1    2  501    0  0.44441455334E+02 -0.10314947978E+02  0.99405192344E+03  0.10098168813E+04  0.17178319509E+03 0.  0.
         24    2    5    5    0    0  0.64472380540E+02  0.55616976927E+02  0.49365901691E+03  0.50467986264E+03  0.61258491734E+02 0.  0.
          5    1    5    5  501    0 -0.20030925207E+02 -0.65931924904E+02  0.50039290653E+03  0.50513701863E+03  0.47000000000E+01 0. -1.
        -13    1    6    6    0    0  0.37726022721E+02  0.13979518752E+02  0.97987913954E+02  0.10592596951E+03  0.00000000000E+00 0.  1.
         14    1    6    6    0    0  0.26746357819E+02  0.41637458175E+02  0.39567110295E+03  0.39875389314E+03  0.00000000000E+00 0. -1.
         -5    1    3    3    0  503 -0.38712131135E+02  0.57481160059E+02  0.61260597562E+03  0.61653133272E+03  0.47000000000E+01 0.  1.
         13    1    4    4    0    0 -0.38497624442E+02 -0.37408741789E+02  0.21388876291E+03  0.22052184461E+03  0.00000000000E+00 0. -1.
        -14    1    4    4    0    0  0.32768300243E+02 -0.97574702924E+01  0.65409034870E+02  0.73805904710E+02  0.00000000000E+00 0.  1.
</event>
<event>
12    1  0.1039610E+000  0.2734258E+03  0.7818608E-02  0.1100360E+00
         21   -1    0    0  503  502  0.00000000000E+00  0.00000000000E+00  0.20536463926E+04  0.20536463926E+04  0.00000000000E+00 0. -1.
         21   -1    0    0  501  503 -0.00000000000E+00 -0.00000000000E+00 -0.81130560149E+02  0.81130560149E+02  0.00000000000E+00 0. -1.
          6    2    1    2  501    0  0.15583422130E+03 -0.13090501400E+03  0.17966995259E+03  0.32120092865E+03  0.17166338421E+03 0.  0.
         24    2    3    3    0    0  0.73612222788E+01 -0.32569337727E+02  0.77463687612E+02  0.11581751338E+03  0.79360721724E+02 0.  0.
         -6    2    1    2    0  502 -0.15583422130E+03  0.13090501400E+03  0.17928458799E+04  0.18135760241E+04  0.18259578051E+03 0.  0.
        -24    2    5    5    0    0 -0.36580815991E+02  0.11741363319E+03  0.76627166867E+03  0.77999966354E+03  0.78122260355E+02 0.  0.
          5    1    3    3  501    0  0.14847299902E+03 -0.98335676275E+02  0.10220626498E+03  0.20538341527E+03  0.47000000000E+01 0. -1.
        -11    1    4    4    0    0 -0.10944321221E+02  0.22605221756E+02  0.38022422028E+02  0.45568396884E+02  0.00000000000E+00 0.  1.
         12    1    4    4    0    0  0.18305543500E+02 -0.55174559484E+02  0.39441265584E+02  0.70249116492E+02  0.00000000000E+00 0. -1.
         -5    1    5    5    0  502 -0.11925340531E+03  0.13491380816E+02  0.10265742112E+04  0.10335763606E+04  0.47000000000E+01 0.  1.
         13    1    6    6    0    0  0.26173112084E+01 -0.94949452800E+01  0.24079134427E+02  0.26015553397E+02  0.00000000000E+00 0. -1.
        -14    1    6    6    0    0 -0.39198127200E+02  0.12690857847E+03  0.74219253424E+03  0.75398411014E+03  0.00000000000E+00 0.  1.
</event>
<event>
12    1  0.1039610E+000  0.1777959E+03  0.7818608E-02  0.1170146E+00
         21   -1    0    0  501  502  0.00000000000E+00  0.00000000000E+00  0.49530066357E+03  0.49530066357E+03  0.00000000000E+00 0.  1.
         21   -1    0    0  502  503 -0.00000000000E+00 -0.00000000000E+00 -0.14357407556E+03  0.14357407556E+03  0.00000000000E+00 0.  1.
         -6    2    1    2    0  503 -0.28616544890E+02 -0.38140493052E+02  0.41418685289E+03  0.45042668255E+03  0.17046947935E+03 0.  0.
        -24    2    3    3    0    0  0.19916271451E+02  0.23044670598E+02  0.12854215397E+03  0.15426111646E+03  0.79659851824E+02 0.  0.
          6    2    1    2  501    0  0.28616544890E+02  0.38140493052E+02 -0.62460264883E+02  0.18844805659E+03  0.17128275305E+03 0.  0.
         24    2    5    5    0    0  0.71973825874E+00  0.82406921291E+02 -0.73037810534E+02  0.13485959737E+03  0.77853519739E+02 0.  0.
          5    1    5    5  501    0  0.27896806632E+02 -0.44266428238E+02  0.10577545651E+02  0.53588459217E+02  0.47000000000E+01 0. -1.
        -11    1    6    6    0    0 -0.25941406978E+02  0.25148903322E+02 -0.60498167175E+02  0.70465964591E+02  0.00000000000E+00 0.  1.
         12    1    6    6    0    0  0.26661145237E+02  0.57258017969E+02 -0.12539643359E+02  0.64393632780E+02  0.00000000000E+00 0. -1.
         -5    1    3    3    0  503 -0.48532816342E+02 -0.61185163650E+02  0.28564469893E+03  0.29616556609E+03  0.47000000000E+01 0.  1.
         13    1    4    4    0    0  0.38955239342E+02  0.82863742415E+01  0.12334798748E+03  0.12961828839E+03  0.00000000000E+00 0. -1.
        -14    1    4    4    0    0 -0.19038967890E+02  0.14758296356E+02  0.51941664894E+01  0.24642828068E+02  0.00000000000E+00 0.  1.
</event>
<event>
12    1  0.1039610E+000  0.1857159E+03  0.7818608E-02  0.1163615E+00
         21   -1    0    0  503  502  0.00000000000E+00  0.00000000000E+00  0.11944887176E+03  0.11944887176E+03  0.00000000000E+00 0.  1.
         21   -1    0    0  501  503 -0.00000000000E+00 -0.00000000000E+00 -0.34841998196E+03  0.34841998196E+03  0.00000000000E+00 0.  1.
          6    2    1    2  501    0  0.61503860095E+01 -0.56747801419E+02 -0.21630760964E+03  0.28172171475E+03  0.17123084523E+03 0.  0.
         24    2    3    3    0    0 -0.60440075265E+02 -0.14109129488E+02 -0.14022607868E+03  0.17189077544E+03  0.77659611807E+02 0.  0.
         -6    2    1    2    0  502 -0.61503860095E+01  0.56747801419E+02 -0.12663500547E+02  0.18614713896E+03  0.17672649175E+03 0.  0.
        -24    2    5    5    0    0  0.45739882181E+02  0.29157655860E+02  0.43215298874E+02  0.10491693344E+03  0.78725441558E+02 0.  0.
          5    1    3    3  501    0  0.66590461275E+02 -0.42638671931E+02 -0.76081530961E+02  0.10983093931E+03  0.47000000000E+01 0. -1.
        -13    1    4    4    0    0 -0.42169299740E+02  0.17490538738E+02 -0.27255975669E+02  0.53170076129E+02  0.00000000000E+00 0.  1.
         14    1    4    4    0    0 -0.18270775525E+02 -0.31599668226E+02 -0.11297010301E+03  0.11872069931E+03  0.00000000000E+00 0. -1.
         -5    1    5    5    0  502 -0.51890268190E+02  0.27590145560E+02 -0.55878799421E+02  0.81230205525E+02  0.47000000000E+01 0.  1.
         11    1    6    6    0    0  0.13730703974E+02 -0.16656132373E+02 -0.13364650478E+02  0.25388439488E+02  0.00000000000E+00 0. -1.
        -12    1    6    6    0    0  0.32009178206E+02  0.45813788232E+02  0.56579949352E+02  0.79528493952E+02  0.00000000000E+00 0.  1.
</event>
<event>
12    1  0.1039610E+000  0.2231929E+03  0.7818608E-02  0.1132398E+00
         21   -1    0    0  503  502  0.00000000000E+00  0.00000000000E+00  0.69914259366E+02  0.69914259366E+02  0.00000000000E+00 0.  1.
         21   -1    0    0  501  503 -0.00000000000E+00 -0.00000000000E+00 -0.87597241881E+03  0.87597241881E+03  0.00000000000E+00 0.  1.
          6    2    1    2  501    0  0.45164332927E+02  0.13338830868E+03 -0.19301128456E+03  0.29507359734E+03  0.17315546199E+03 0.  0.
         24    2    3    3    0    0 -0.35943907179E+02  0.92260406057E+02 -0.79612695499E+02  0.14963845376E+03  0.79054023107E+02 0.  0.
         -6    2    1    2    0  502 -0.45164332927E+02 -0.13338830868E+03 -0.61304687489E+03  0.65081308084E+03  0.16702975042E+03 0.  0.
        -24    2    5    5    0    0 -0.60436287542E+02 -0.15596093211E+03 -0.57174093898E+03  0.60110366254E+03  0.80383795764E+02 0.  0.
          5    1    3    3  501    0  0.81108240106E+02  0.41127902621E+02 -0.11339858906E+03  0.14543514358E+03  0.47000000000E+01 0. -1.
        -11    1    4    4    0    0 -0.37109475686E+02  0.98098592477E+02 -0.44346019823E+02  0.11387280846E+03  0.00000000000E+00 0.  1.
         12    1    4    4    0    0  0.11655685065E+01 -0.58381864200E+01 -0.35266675676E+02  0.35765645302E+02  0.00000000000E+00 0. -1.
         -5    1    5    5    0  502  0.15271954616E+02  0.22572623431E+02 -0.41305935907E+02  0.49709418298E+02  0.47000000000E+01 0.  1.
         13    1    6    6    0    0 -0.46910306546E+02 -0.33535098377E+02 -0.12439108015E+03  0.13710696738E+03  0.00000000000E+00 0. -1.
        -14    1    6    6    0    0 -0.13525980996E+02 -0.12242583373E+03 -0.44734985883E+03  0.46399669516E+03  0.00000000000E+00 0.  1.
</event>
<event>
12    1  0.1039610E+000  0.2522313E+03  0.7818608E-02  0.1114123E+00
         21   -1    0    0  501  502  0.00000000000E+00  0.00000000000E+00  0.66202987715E+02  0.66202987715E+02  0.00000000000E+00 0.  1.
         21   -1    0    0  502  503 -0.00000000000E+00 -0.00000000000E+00 -0.12090312474E+04  0.12090312474E+04  0.00000000000E+00 0. -1.
         -6    2    1    2    0  503  0.61067450231E+02  0.16356150654E+03 -0.24188385953E+03  0.33964808574E+03  0.16239279770E+03 0.  0.
        -24    2    3    3    0    0  0.81020633874E+02  0.83767436361E+02 -0.20430764059E+03  0.24909818014E+03  0.82018076301E+02 0.  0.
          6    2    1    2  501    0 -0.61067450231E+02 -0.16356150654E+03 -0.90094440014E+03  0.93558614937E+03  0.18204128883E+03 0.  0.
         24    2    5    5    0    0 -0.22596234712E+02 -0.61226701582E+02 -0.19075205752E+03  0.21701277090E+03  0.80305021472E+02 0.  0.
          5    1    5    5  501    0 -0.38471215520E+02 -0.10233480495E+03 -0.71019234262E+03  0.71857337847E+03  0.47000000000E+01 0. -1.
        -11    1    6    6    0    0 -0.29384148635E+01  0.17996571822E+02 -0.61479065419E+02  0.64126331285E+02  0.00000000000E+00 0.  1.
         12    1    6    6    0    0 -0.19657819848E+02 -0.79223273404E+02 -0.12927299210E+03  0.15288643961E+03  0.00000000000E+00 0. -1.
         -5    1    3    3    0  503 -0.19953183642E+02  0.79794070176E+02 -0.37576218941E+02  0.90549905592E+02  0.47000000000E+01 0.  1.
         13    1    4    4    0    0  0.27097365217E+02  0.23018554458E+02 -0.77103593353E+01  0.36380911095E+02  0.00000000000E+00 0. -1.
        -14    1    4    4    0    0  0.53923268657E+02  0.60748881902E+02 -0.19659728125E+03  0.21271726905E+03  0.00000000000E+00 0.  1.
</event>
<event>
12    1  0.1039610E+000  0.2001435E+03  0.7818608E-02  0.1150117E+00
         21   -1    0    0  501  502  0.00000000000E+00  0.00000000000E+00  0.59973446351E+02  0.59973446351E+02  0.00000000000E+00 0. -1.
         21   -1    0    0  502  503 -0.00000000000E+00 -0.00000000000E+00 -0.12218255057E+04  0.12218255057E+04  0.00000000000E+00 0. -1.
         -6    2    1    2    0  503 -0.97775863324E+02  0.89605514344E+01 -0.10136269872E+04  0.10327445546E+04  0.17170100428E+03 0.  0.
        -24    2    3    3    0    0 -0.49121673133E+02  0.44700364935E+01 -0.24192616508E+03  0.25948415612E+03  0.79817528945E+02 0.  0.
          6    2    1    2  501    0  0.97775863324E+02 -0.89605514344E+01 -0.14822507210E+03  0.24905439744E+03  0.17440473031E+03 0.  0.
         24    2    5    5    0    0  0.13353192759E+03  0.12708481629E+02 -0.10159061631E+03  0.18624591400E+03  0.79841129530E+02 0.  0.
          5    1    5    5  501    0 -0.35756064271E+02 -0.21669033063E+02 -0.46634455790E+02  0.62808483447E+02  0.47000000000E+01 0. -1.
        -11    1    6    6    0    0  0.57392261019E+02 -0.11980105828E+01  0.13902821088E+01  0.57421596447E+02  0.00000000000E+00 0.  1.
         12    1    6    6    0    0  0.76139666576E+02  0.13906492212E+02 -0.10298089842E+03  0.12882431755E+03  0.00000000000E+00 0. -1.
         -5    1    3    3    0  503 -0.48654190191E+02  0.44905149409E+01 -0.77170082217E+03  0.77326039850E+03  0.47000000000E+01 0.  1.
         13    1    4    4    0    0  0.19916574035E+02 -0.95884561349E+01 -0.77695906776E+02  0.80779095947E+02  0.00000000000E+00 0. -1.
        -14    1    4    4    0    0 -0.69038247168E+02  0.14058492628E+02 -0.16423025831E+03  0.17870506017E+03  0.00000000000E+00 0.  1.
</event>
<event>
12    1  0.1039610E+000  0.3487484E+03  0.7818608E-02  0.1063179E+00
         21   -1    0    0  501  502  0.00000000000E+00  0.00000000000E+00  0.81352446679E+03  0.81352446679E+03  0.00000000000E+00 0. -1.
         21   -1    0    0  502  503 -0.00000000000E+00 -0.00000000000E+00 -0.18971350679E+03  0.18971350679E+03  0.00000000000E+00 0. -1.
         -6    2    1    2    0  503 -0.24552786410E+03 -0.17615688918E+03  0.54359423034E+03  0.64584836470E+03  0.17409836663E+03 0.  0.
        -24    2    3    3    0    0 -0.16366256973E+03 -0.37259526252E+02  0.31495538391E+03  0.36604090242E+03  0.81334736490E+02 0.  0.
          6    2    1    2  501    0  0.24552786410E+03  0.17615688918E+03  0.80216729653E+02  0.35738960889E+03  0.17313990634E+03 0.  0.
         24    2    5    5    0    0  0.23537365724E+03  0.18344915042E+03  0.35938730390E+02  0.31114119043E+03  0.80392155904E+02 0.  0.
          5    1    5    5  501    0  0.10154206863E+02 -0.72922612357E+01  0.44277999263E+02  0.46248418456E+02  0.47000000000E+01 0. -1.
        -13    1    6    6    0    0  0.16814464320E+03  0.11181497920E+03  0.58721246340E+02  0.21029359330E+03  0.00000000000E+00 0.  1.
         14    1    6    6    0    0  0.67229014035E+02  0.71634171220E+02 -0.22782515950E+02  0.10084759713E+03  0.00000000000E+00 0. -1.
         -5    1    3    3    0  503 -0.81865294370E+02 -0.13889736293E+03  0.22863884643E+03  0.27980746228E+03  0.47000000000E+01 0.  1.
         13    1    4    4    0    0 -0.24430301224E+02 -0.95753626586E+01  0.13141117834E+03  0.13400531698E+03  0.00000000000E+00 0. -1.
        -14    1    4    4    0    0 -0.13923226851E+03 -0.27684163594E+02  0.18354420558E+03  0.23203558543E+03  0.00000000000E+00 0.  1.
</event>
<event>
12    1  0.1039610E+000  0.1903539E+03  0.7818608E-02  0.1159748E+00
         21   -1    0    0  501  502  0.00000000000E+00  0.00000000000E+00  0.84096298156E+03  0.84096298156E+03  0.00000000000E+00 0.  1.
         21   -1    0    0  502  503 -0.00000000000E+00 -0.00000000000E+00 -0.43393738707E+02  0.43393738707E+02  0.00000000000E+00 0.  1.
         -6    2    1    2    0  503  0.19910796298E+02 -0.79919639320E+02  0.48355434998E+03  0.51715108819E+03  0.16381956558E+03 0.  0.
        -24    2    3    3    0    0  0.60268107710E+02 -0.11992381576E+02  0.31991734274E+03  0.33537654358E+03  0.79713598411E+02 0.  0.
          6    2    1    2  501    0 -0.19910796298E+02  0.79919639320E+02  0.31401489287E+03  0.36720563208E+03  0.17161303776E+03 0.  0.
         24    2    5    5    0    0  0.45200468586E+02  0.24840800680E+02  0.20757757494E+03  0.23073531322E+03  0.86545868830E+02 0.  0.
          5    1    5    5  501    0 -0.65111264884E+02  0.55078838640E+02  0.10643731793E+03  0.13647031886E+03  0.47000000000E+01 0. -1.
        -13    1    6    6    0    0  0.35599456339E+02  0.18004765935E+02  0.21374301360E+03  0.21743405610E+03  0.00000000000E+00 0.  1.
         14    1    6    6    0    0  0.96010122469E+01  0.68360347444E+01 -0.61654386622E+01  0.13301257124E+02  0.00000000000E+00 0. -1.
         -5    1    3    3    0  503 -0.40357311412E+02 -0.67927257743E+02  0.16363700724E+03  0.18177454461E+03  0.47000000000E+01 0.  1.
         11    1    4    4    0    0 -0.10360938710E+02 -0.23514299267E+02  0.51101152161E+02  0.57197893957E+02  0.00000000000E+00 0. -1.
        -12    1    4    4    0    0  0.70629046420E+02  0.11521917691E+02  0.26881619058E+03  0.27817864962E+03  0.00000000000E+00 0.  1.
</event>
<event>
12    1  0.1039610E+000  0.1741439E+03  0.7818608E-02  0.1176194E+00
         21   -1    0    0  501  502  0.00000000000E+00  0.00000000000E+00  0.15482418103E+03  0.15482418103E+03  0.00000000000E+00 0.  1.
         21   -1    0    0  502  503 -0.00000000000E+00 -0.00000000000E+00 -0.25630173715E+03  0.25630173715E+03  0.00000000000E+00 0.  1.
         -6    2    1    2    0  503 -0.11563244967E+02  0.77701937240E+01  0.58864299616E+02  0.17440752939E+03  0.16358146592E+03 0.  0.
        -24    2    3    3    0    0 -0.22654851713E+01 -0.20756084016E+02  0.95797509156E+02  0.12659174929E+03  0.80077217622E+02 0.  0.
          6    2    1    2  501    0  0.11563244967E+02 -0.77701937240E+01 -0.16034185575E+03  0.23671838879E+03  0.17358571469E+03 0.  0.
         24    2    5    5    0    0  0.30459230237E+02 -0.42410185982E+02 -0.17081527729E+03  0.19562374338E+03  0.79777198709E+02 0.  0.
          5    1    5    5  501    0 -0.18895985270E+02  0.34639992258E+02  0.10473421548E+02  0.41094645416E+02  0.47000000000E+01 0. -1.
        -11    1    6    6    0    0  0.37233536961E+02  0.14664887602E+01 -0.13028599866E+03  0.13550988271E+03  0.00000000000E+00 0.  1.
         12    1    6    6    0    0 -0.67743067239E+01 -0.43876674742E+02 -0.40529278629E+02  0.60113860666E+02  0.00000000000E+00 0. -1.
         -5    1    3    3    0  503 -0.92977597957E+01  0.28526277740E+02 -0.36933209540E+02  0.47815780093E+02  0.47000000000E+01 0.  1.
         13    1    4    4    0    0  0.13086058198E+02 -0.15035096905E+02 -0.80230907936E+01  0.21486485148E+02  0.00000000000E+00 0. -1.
        -14    1    4    4    0    0 -0.15351543370E+02 -0.57209871108E+01  0.10382059995E+03  0.10510526415E+03  0.00000000000E+00 0.  1.
</event>
<event>
12    1  0.1039610E+000  0.3919893E+03  0.7818608E-02  0.1046603E+00
         21   -1    0    0  503  502  0.00000000000E+00  0.00000000000E+00  0.11357858979E+04  0.11357858979E+04  0.00000000000E+00 0.  1.
         21   -1    0    0  501  503 -0.00000000000E+00 -0.00000000000E+00 -0.25450309474E+03  0.25450309474E+03  0.00000000000E+00 0.  1.
          6    2    1    2  501    0  0.30403657816E+03  0.17924269547E+03  0.91656649994E+03  0.99686998502E+03  0.17055624727E+03 0.  0.
         24    2    3    3    0    0  0.23667048191E+03  0.19536229026E+03  0.80771084588E+03  0.86775888681E+03  0.80183125534E+02 0.  0.
         -6    2    1    2    0  502 -0.30403657816E+03 -0.17924269547E+03 -0.35283696732E+02  0.39341900766E+03  0.17019809516E+03 0.  0.
        -24    2    5    5    0    0 -0.16439820997E+03 -0.15153565188E+03 -0.68995536787E+02  0.24704574407E+03  0.79255222756E+02 0.  0.
          5    1    3    3  501    0  0.67366096252E+02 -0.16119594789E+02  0.10885565406E+03  0.12911109821E+03  0.47000000000E+01 0. -1.
        -11    1    4    4    0    0  0.49379518684E+02  0.94691674945E+01  0.90279470393E+02  0.10333627037E+03  0.00000000000E+00 0.  1.
         12    1    4    4    0    0  0.18729096322E+03  0.18589312277E+03  0.71743137549E+03  0.76442261644E+03  0.00000000000E+00 0. -1.
         -5    1    5    5    0  502 -0.13963836819E+03 -0.27707043596E+02  0.33711840055E+02  0.14637326360E+03  0.47000000000E+01 0.  1.
         13    1    6    6    0    0 -0.86398479584E+02 -0.85950380176E+02  0.36019566604E+01  0.12192267721E+03  0.00000000000E+00 0. -1.
        -14    1    6    6    0    0 -0.77999730383E+02 -0.65585271701E+02 -0.72597493447E+02  0.12512306685E+03  0.00000000000E+00 0.  1.
</event>
<event>
12    1  0.1039610E+000  0.1856036E+03  0.7818608E-02  0.1163072E+00
         21   -1    0    0  501  502  0.00000000000E+00  0.00000000000E+00  0.35249468642E+02  0.35249468642E+02  0.00000000000E+00 0.  1.
         21   -1    0    0  502  503 -0.00000000000E+00 -0.00000000000E+00 -0.10316991582E+04  0.10316991582E+04  0.00000000000E+00 0.  1.
         -6    2    1    2    0  503  0.39542962109E+02  0.51401519247E+02 -0.63785474224E+03  0.66430968265E+03  0.17390491721E+03 0.  0.
        -24    2    3    3    0    0 -0.11337922833E+02 -0.24604304274E+02 -0.19523692610E+03  0.21231590965E+03  0.78909238344E+02 0.  0.
          6    2    1    2  501    0 -0.39542962109E+02 -0.51401519247E+02 -0.35859494736E+03  0.40263894424E+03  0.17123673996E+03 0.  0.
         24    2    5    5    0    0  0.18206728720E+02 -0.79901934088E+02 -0.27823167247E+03  0.29954846753E+03  0.74837268734E+02 0.  0.
          5    1    5    5  501    0 -0.57749690829E+02  0.28500414841E+02 -0.80363274895E+02  0.10309047671E+03  0.47000000000E+01 0. -1.
        -13    1    6    6    0    0  0.24772190407E+02  0.38985617704E+01 -0.89449557659E+02  0.92898243077E+02  0.00000000000E+00 0.  1.
         14    1    6    6    0    0 -0.65654616871E+01 -0.83800495858E+02 -0.18878211481E+03  0.20665022445E+03  0.00000000000E+00 0. -1.
         -5    1    3    3    0  503  0.50880884942E+02  0.76005823521E+02 -0.44261781614E+03  0.45199377300E+03  0.47000000000E+01 0.  1.
         11    1    4    4    0    0  0.33753120626E+02 -0.44696290531E+01 -0.79846191466E+02  0.86802448280E+02  0.00000000000E+00 0. -1.
        -12    1    4    4    0    0 -0.45091043459E+02 -0.20134675221E+02 -0.11539073463E+03  0.12551346137E+03  0.00000000000E+00 0.  1.
</event>
<event>
12    1  0.1039610E+000  0.1901653E+03  0.7818608E-02  0.1158375E+00
         21   -1    0    0  503  502  0.00000000000E+00  0.00000000000E+00  0.26313340499E+04  0.26313340499E+04  0.00000000000E+00 0.  1.
         21   -1    0    0  501  503 -0.00000000000E+00 -0.00000000000E+00 -0.18194627024E+02  0.18194627024E+02  0.00000000000E+00 0.  1.
          6    2    1    2  501    0  0.14104850391E+02 -0.78425292934E+02  0.64912096597E+03  0.67632535731E+03  0.17236150123E+03 0.  0.
         24    2    3    3    0    0  0.11479821705E+01 -0.11135569186E+03  0.60131832037E+03  0.61666402533E+03  0.79305672863E+02 0.  0.
         -6    2    1    2    0  502 -0.14104850391E+02  0.78425292934E+02  0.19640184569E+04  0.19732033197E+04  0.17266548028E+03 0.  0.
        -24    2    5    5    0    0 -0.11554534961E+01 -0.29613378429E+02  0.10582201499E+04  0.10608806221E+04  0.68989285199E+02 0.  0.
          5    1    3    3  501    0  0.12956868220E+02  0.32930398930E+02  0.47802645600E+02  0.59661331984E+02  0.47000000000E+01 0. -1.
        -13    1    4    4    0    0  0.14551039024E+02 -0.81003698710E+02  0.54592638505E+03  0.55209505507E+03  0.00000000000E+00 0.  1.
         14    1    4    4    0    0 -0.13403056854E+02 -0.30351993154E+02  0.55391935317E+02  0.64568970254E+02  0.00000000000E+00 0. -1.
         -5    1    5    5    0  502 -0.12949396894E+02  0.10803867136E+03  0.90579830704E+03  0.91232269753E+03  0.47000000000E+01 0.  1.
         11    1    6    6    0    0  0.28558309620E+02 -0.34563519947E+02  0.66280853775E+03  0.66432324337E+03  0.00000000000E+00 0. -1.
        -12    1    6    6    0    0 -0.29713763116E+02  0.49501415180E+01  0.39541161215E+03  0.39655737875E+03  0.00000000000E+00 0.  1.
</event>
<event>
12    1  0.1039610E+000  0.1842378E+03  0.7818608E-02  0.1164168E+00
         21   -1    0    0  503  502  0.00000000000E+00  0.00000000000E+00  0.13660871916E+04  0.13660871916E+04  0.00000000000E+00 0. -1.
         21   -1    0    0  501  503 -0.00000000000E+00 -0.00000000000E+00 -0.46216669144E+02  0.46216669144E+02  0.00000000000E+00 0. -1.
          6    2    1    2  501    0  0.25242669147E+02  0.60916068743E+02  0.17554062494E+03  0.25323764849E+03  0.17019646245E+03 0.  0.
         24    2    3    3    0    0  0.50864723995E+02  0.20703355039E+02  0.18209844713E+03  0.20487808822E+03  0.76153381579E+02 0.  0.
         -6    2    1    2    0  502 -0.25242669147E+02 -0.60916068743E+02  0.11443298975E+04  0.11590662123E+04  0.17203374748E+03 0.  0.
        -24    2    5    5    0    0 -0.83377119855E+02 -0.30397620364E+02  0.72642347143E+03  0.73600727900E+03  0.78357484958E+02 0.  0.
          5    1    3    3  501    0 -0.25622054848E+02  0.40212713703E+02 -0.65578221880E+01  0.48359560274E+02  0.47000000000E+01 0. -1.
        -11    1    4    4    0    0  0.41129223542E+02  0.24339364849E+02  0.39780563452E+02  0.62181274826E+02  0.00000000000E+00 0.  1.
         12    1    4    4    0    0  0.97355004531E+01 -0.36360098093E+01  0.14231788368E+03  0.14269681339E+03  0.00000000000E+00 0. -1.
         -5    1    5    5    0  502  0.58134450708E+02 -0.30518448379E+02  0.41790642609E+03  0.42305893327E+03  0.47000000000E+01 0.  1.
         13    1    6    6    0    0  0.70895590220E+01  0.15015641542E+02  0.12975955093E+03  0.13081770673E+03  0.00000000000E+00 0. -1.
        -14    1    6    6    0    0 -0.90466678877E+02 -0.45413261906E+02  0.59666392051E+03  0.60518957227E+03  0.00000000000E+00 0.  1.
</event>
<event>
12    1  0.1039610E+000  0.2427309E+03  0.7818608E-02  0.1118972E+00
         21   -1    0    0  501  502  0.00000000000E+00  0.00000000000E+00  0.21826836464E+04  0.21826836464E+04  0.00000000000E+00 0. -1.
         21   -1    0    0  502  503 -0.00000000000E+00 -0.00000000000E+00 -0.26592304797E+02  0.26592304797E+02  0.00000000000E+00 0. -1.
         -6    2    1    2    0  503  0.16010580757E+03 -0.73980132713E+02  0.11990661938E+04  0.12233879354E+04  0.16676742394E+03 0.  0.
        -24    2    3    3    0    0  0.15616849270E+03 -0.84067365734E+01  0.91261445420E+03  0.92946266964E+03  0.81095258162E+02 0.  0.
          6    2    1    2  501    0 -0.16010580757E+03  0.73980132713E+02  0.95702514782E+03  0.98588801582E+03  0.15802251906E+03 0.  0.
         24    2    5    5    0    0 -0.89601518450E+02  0.50334009390E+02  0.81738360968E+03  0.82761027542E+03  0.79125583705E+02 0.  0.
          5    1    5    5  501    0 -0.70504289123E+02  0.23646123324E+02  0.13964153813E+03  0.15827774040E+03  0.47000000000E+01 0. -1.
        -11    1    6    6    0    0 -0.38427457356E+02  0.16312189105E+02  0.11153309767E+03  0.11908983529E+03  0.00000000000E+00 0.  1.
         12    1    6    6    0    0 -0.51174061094E+02  0.34021820285E+02  0.70585051201E+03  0.70852044014E+03  0.00000000000E+00 0. -1.
         -5    1    3    3    0  503  0.39373148732E+01 -0.65573396140E+02  0.28645173958E+03  0.29392526574E+03  0.47000000000E+01 0.  1.
         11    1    4    4    0    0 -0.50636431974E+00  0.11984299044E+02  0.23132611622E+02  0.26057581408E+02  0.00000000000E+00 0. -1.
        -12    1    4    4    0    0  0.15667485702E+03 -0.20391035618E+02  0.88948184258E+03  0.90340508823E+03  0.00000000000E+00 0.  1.
</event>
<event>
12    1  0.1039610E+000  0.2692391E+03  0.7818608E-02  0.1102128E+00
         21   -1    0    0  501  502  0.00000000000E+00  0.00000000000E+00  0.39644036176E+03  0.39644036176E+03  0.00000000000E+00 0. -1.
         21   -1    0    0  502  503 -0.00000000000E+00 -0.00000000000E+00 -0.30155672485E+03  0.30155672485E+03  0.00000000000E+00 0. -1.
         -6    2    1    2    0  503 -0.69540147985E+01  0.20638223157E+03  0.26802886130E+03  0.37788937774E+03  0.16828228514E+03 0.  0.
        -24    2    3    3    0    0 -0.68329534235E+02  0.13117992506E+03  0.14736501423E+03  0.22295650428E+03  0.78205226125E+02 0.  0.
          6    2    1    2  501    0  0.69540147985E+01 -0.20638223157E+03 -0.17314522439E+03  0.32010770887E+03  0.17276484805E+03 0.  0.
         24    2    5    5    0    0 -0.57810474441E+02 -0.12785063956E+03 -0.69187373031E+02  0.17453650681E+03  0.77383865455E+02 0.  0.
          5    1    5    5  501    0  0.64764489240E+02 -0.78531592012E+02 -0.10395785136E+03  0.14557120206E+03  0.47000000000E+01 0. -1.
        -11    1    6    6    0    0  0.68280683723E+01 -0.19784513854E+02 -0.40198105855E+02  0.45320384160E+02  0.00000000000E+00 0.  1.
         12    1    6    6    0    0 -0.64638542814E+02 -0.10806612570E+03 -0.28989267176E+02  0.12921612265E+03  0.00000000000E+00 0. -1.
         -5    1    3    3    0  503  0.61375519436E+02  0.75202306510E+02  0.12066384706E+03  0.15493287346E+03  0.47000000000E+01 0.  1.
         11    1    4    4    0    0 -0.38709711759E+01 -0.17698805404E+01 -0.76826222535E+01  0.87829140757E+01  0.00000000000E+00 0. -1.
        -12    1    4    4    0    0 -0.64458563059E+02  0.13294980560E+03  0.15504763649E+03  0.21417359020E+03  0.00000000000E+00 0.  1.
</event>
<event>
12    1  0.1039610E+000  0.2270143E+03  0.7818608E-02  0.1128781E+00
         21   -1    0    0  501  502  0.00000000000E+00  0.00000000000E+00  0.15143189765E+04  0.15143189765E+04  0.00000000000E+00 0. -1.
         21   -1    0    0  502  503 -0.00000000000E+00 -0.00000000000E+00 -0.35913454965E+02  0.35913454965E+02  0.00000000000E+00 0. -1.
         -6    2    1    2    0  503  0.10660414615E+03 -0.10164490609E+03  0.56110665124E+03  0.60529015104E+03  0.17274073629E+03 0.  0.
        -24    2    3    3    0    0 -0.21464887619E+01 -0.21720922660E+02  0.12647482989E+03  0.15016219778E+03  0.77951248538E+02 0.  0.
          6    2    1    2  501    0 -0.10660414615E+03  0.10164490609E+03  0.91729887030E+03  0.94494228043E+03  0.17257625843E+03 0.  0.
         24    2    5    5    0    0 -0.58144634762E+02  0.14447566643E+02  0.69478715600E+03  0.70104629184E+03  0.71743852830E+02 0.  0.
          5    1    5    5  501    0 -0.48459511390E+02  0.87197339443E+02  0.22251171430E+03  0.24389598859E+03  0.47000000000E+01 0. -1.
        -11    1    6    6    0    0 -0.26216859996E+02 -0.22814371792E+02  0.14641728245E+03  0.15048534782E+03  0.00000000000E+00 0.  1.
         12    1    6    6    0    0 -0.31927774766E+02  0.37261938435E+02  0.54836987355E+03  0.55056094402E+03  0.00000000000E+00 0. -1.
         -5    1    3    3    0  503  0.10875063491E+03 -0.79923983426E+02  0.43463182134E+03  0.45512795326E+03  0.47000000000E+01 0.  1.
         13    1    4    4    0    0  0.20894654667E+02  0.22105653413E+02  0.60037378484E+02  0.67303293542E+02  0.00000000000E+00 0. -1.
        -14    1    4    4    0    0 -0.23041143429E+02 -0.43826576073E+02  0.66437451411E+02  0.82858904233E+02  0.00000000000E+00 0.  1.
</event>
<event>
12    1  0.1039610E+000  0.1834780E+03  0.7818608E-02  0.1165766E+00
         21   -1    0    0  501  502  0.00000000000E+00  0.00000000000E+00  0.14673467897E+03  0.14673467897E+03  0.00000000000E+00 0.  1.
         21   -1    0    0  502  503 -0.00000000000E+00 -0.00000000000E+00 -0.22592553476E+03  0.22592553476E+03  0.00000000000E+00 0.  1.
         -6    2    1    2    0  503 -0.27753311167E+02 -0.39615806895E+02 -0.16950568510E+02  0.17891291913E+03  0.17141427134E+03 0.  0.
        -24    2    3    3    0    0  0.24208452447E+02 -0.61054975054E+02 -0.48116429745E+02  0.11446865083E+03  0.80461929280E+02 0.  0.
          6    2    1    2  501    0  0.27753311167E+02  0.39615806895E+02 -0.62240287280E+02  0.19374729460E+03  0.17698729437E+03 0.  0.
         24    2    5    5    0    0  0.20403551765E+02 -0.13707857315E+02 -0.99005808143E+02  0.12839267998E+03  0.77963580914E+02 0.  0.
          5    1    5    5  501    0  0.73497594024E+01  0.53323664210E+02  0.36765520863E+02  0.65354614622E+02  0.47000000000E+01 0. -1.
        -11    1    6    6    0    0 -0.83422079848E+01  0.12153433850E+02 -0.86509891120E+02  0.87756821102E+02  0.00000000000E+00 0.  1.
         12    1    6    6    0    0  0.28745759749E+02 -0.25861291165E+02 -0.12495917024E+02  0.40635858875E+02  0.00000000000E+00 0. -1.
         -5    1    3    3    0  503 -0.51961763614E+02  0.21439168159E+02  0.31165861235E+02  0.64444268293E+02  0.47000000000E+01 0.  1.
         11    1    4    4    0    0  0.26924796978E+01  0.16001854053E+02  0.66268996108E+01  0.17527822983E+02  0.00000000000E+00 0. -1.
        -12    1    4    4    0    0  0.21515972749E+02 -0.77056829107E+02 -0.54743329356E+02  0.96940827851E+02  0.00000000000E+00 0.  1.
</event>
<event>
12    1  0.1280588E+000  0.4707579E+03  0.7818608E-02  0.1021896E+00
         21   -1    0    0  503  502  0.00000000000E+00  0.00000000000E+00  0.32016200561E+03  0.32016200561E+03  0.00000000000E+00 0.  1.
         21   -1    0    0  501  503 -0.00000000000E+00 -0.00000000000E+00 -0.14599646432E+04  0.14599646432E+04  0.00000000000E+00 0. -1.
          6    2    1    2  501    0 -0.15575798017E+02  0.43710713061E+03  0.77979162308E+02  0.47452124149E+03  0.16668656143E+03 0.  0.
         24    2    3    3    0    0 -0.31204923833E+01  0.31623565665E+03  0.11729390784E+03  0.34672144857E+03  0.80269384396E+02 0.  0.
         -6    2    1    2    0  502  0.15575798017E+02 -0.43710713061E+03 -0.12177817998E+04  0.13056054073E+04  0.17409112082E+03 0.  0.
        -24    2    5    5    0    0  0.44155515310E+02 -0.15201620006E+03 -0.57028757889E+03  0.59753443972E+03  0.82224384462E+02 0.  0.
          5    1    3    3  501    0 -0.12455305633E+02  0.12087147396E+03 -0.39314745535E+02  0.12779979293E+03  0.47000000000E+01 0. -1.
        -13    1    4    4    0    0 -0.28978290615E+02  0.18169706937E+03  0.36205909476E+02  0.18752182333E+03  0.00000000000E+00 0.  1.
         14    1    4    4    0    0  0.25857798232E+02  0.13453858728E+03  0.81087998366E+02  0.15919962524E+03  0.00000000000E+00 0. -1.
         -5    1    5    5    0  502 -0.28579717293E+02 -0.28509093054E+03 -0.64749422096E+03  0.70807096755E+03  0.47000000000E+01 0.  1.
         11    1    6    6    0    0  0.28899626600E+02 -0.14898808514E+02 -0.53118027114E+02  0.62279111404E+02  0.00000000000E+00 0. -1.
        -12    1    6    6    0    0  0.15255888710E+02 -0.13711739155E+03 -0.51716955178E+03  0.53525532832E+03  0.00000000000E+00 0.  1.
</event>
<event>
12    1  0.1039610E+000  0.1743999E+03  0.7818608E-02  0.1173561E+00
         21   -1    0    0  501  502  0.00000000000E+00  0.00000000000E+00  0.19308898985E+03  0.19308898985E+03  0.00000000000E+00 0.  1.
         21   -1    0    0  502  503 -0.00000000000E+00 -0.00000000000E+00 -0.16672675962E+03  0.16672675962E+03  0.00000000000E+00 0.  1.
         -6    2    1    2    0  503 -0.57897906120E+01 -0.28177738107E+02 -0.30875406346E+02  0.17711192180E+03  0.17201114943E+03 0.  0.
        -24    2    3    3    0    0  0.58337313640E+01  0.37841585847E+02 -0.59801992277E+02  0.10395117569E+03  0.75918051910E+02 0.  0.
          6    2    1    2  501    0  0.57897906120E+01  0.28177738107E+02  0.57237636575E+02  0.18270382767E+03  0.17110533307E+03 0.  0.
         24    2    5    5    0    0  0.53900802761E+02  0.29436839908E+02  0.38793087865E+01  0.11069371747E+03  0.92012096859E+02 0.  0.
          5    1    5    5  501    0 -0.48111012149E+02 -0.12591018012E+01  0.53358327789E+02  0.72010110205E+02  0.47000000000E+01 0. -1.
        -13    1    6    6    0    0 -0.15316180212E+02  0.36377553287E+02  0.10420455569E+02  0.40822759016E+02  0.00000000000E+00 0.  1.
         14    1    6    6    0    0  0.69216982972E+02 -0.69407133781E+01 -0.65411467826E+01  0.69870958454E+02  0.00000000000E+00 0. -1.
         -5    1    3    3    0  503 -0.11623521976E+02 -0.66019323954E+02  0.28926585931E+02  0.73160746115E+02  0.47000000000E+01 0.  1.
         11    1    4    4    0    0 -0.21806587222E+02 -0.13317268249E+02 -0.27065353502E+02  0.37221099394E+02  0.00000000000E+00 0. -1.
        -12    1    4    4    0    0  0.27640318586E+02  0.51158854097E+02 -0.32736638775E+02  0.66730076295E+02  0.00000000000E+00 0.  1.
</event>
<event>
12    1  0.1039610E+000  0.4833673E+03  0.7818608E-02  0.1018245E+00
         21   -1    0    0  503  502  0.00000000000E+00  0.00000000000E+00  0.26280740434E+03  0.26280740434E+03  0.00000000000E+00 0. -1.
         21   -1    0    0  501  503 -0.00000000000E+00 -0.00000000000E+00 -0.91193141388E+03  0.91193141388E+03  0.00000000000E+00 0. -1.
          6    2    1    2  501    0  0.27038324136E+03 -0.36177307559E+03 -0.22995592249E+03  0.53527904461E+03  0.17221229304E+03 0.  0.
         24    2    3    3    0    0  0.24429193578E+03 -0.32320325589E+03 -0.14334081458E+03  0.43682776662E+03  0.78313562433E+02 0.  0.
         -6    2    1    2    0  502 -0.27038324136E+03  0.36177307559E+03 -0.41916808705E+03  0.63945977362E+03  0.17093876519E+03 0.  0.
        -24    2    5    5    0    0 -0.19485440607E+03  0.17144287706E+03 -0.18404414119E+03  0.32763362117E+03  0.78170609283E+02 0.  0.
          5    1    3    3  501    0  0.26091305587E+02 -0.38569819702E+02 -0.86615107913E+02  0.98451277990E+02  0.47000000000E+01 0. -1.
        -13    1    4    4    0    0  0.73464547544E+02 -0.75734019887E+02 -0.72119952186E+02  0.12780441705E+03  0.00000000000E+00 0.  1.
         14    1    4    4    0    0  0.17082738823E+03 -0.24746923600E+03 -0.71220862391E+02  0.30902334957E+03  0.00000000000E+00 0. -1.
         -5    1    5    5    0  502 -0.75528835292E+02  0.19033019853E+03 -0.23512394586E+03  0.31182615245E+03  0.47000000000E+01 0.  1.
         11    1    6    6    0    0 -0.13019896581E+03  0.14880092176E+03 -0.10804343713E+03  0.22531504460E+03  0.00000000000E+00 0. -1.
        -12    1    6    6    0    0 -0.64655440262E+02  0.22641955303E+02 -0.76000704056E+02  0.10231857658E+03  0.00000000000E+00 0.  1.
</event>
<event>
12    1  0.1039610E+000  0.2241648E+03  0.7818608E-02  0.1131170E+00
         21   -1    0    0  503  502  0.00000000000E+00  0.00000000000E+00  0.34982160277E+03  0.34982160277E+03  0.00000000000E+00 0.  1.
         21   -1    0    0  501  503 -0.00000000000E+00 -0.00000000000E+00 -0.21602048718E+03  0.21602048718E+03  0.00000000000E+00 0.  1.
          6    2    1    2  501    0  0.13274493434E+03  0.53324902050E+02 -0.98068274452E+02  0.24467787995E+03  0.17258364845E+03 0.  0.
         24    2    3    3    0    0  0.12496253423E+03  0.44569067257E+02 -0.13554691440E+03  0.20513083396E+03  0.78125900430E+02 0.  0.
         -6    2    1    2    0  502 -0.13274493434E+03 -0.53324902050E+02  0.23186939004E+03  0.32116421000E+03  0.17005373556E+03 0.  0.
        -24    2    5    5    0    0 -0.15248952457E+03 -0.67891746577E+02  0.23099519709E+03  0.29616628977E+03  0.80581299071E+02 0.  0.
          5    1    3    3  501    0  0.77824001093E+01  0.87558347935E+01  0.37478639952E+02  0.39547045997E+02  0.47000000000E+01 0. -1.
        -13    1    4    4    0    0  0.77507407020E+02  0.17544781553E+02 -0.12706006041E+03  0.14986486064E+03  0.00000000000E+00 0.  1.
         14    1    4    4    0    0  0.47455127210E+02  0.27024285704E+02 -0.84868539962E+01  0.55265973320E+02  0.00000000000E+00 0. -1.
         -5    1    5    5    0  502  0.19744590229E+02  0.14566844526E+02  0.87419294772E+00  0.24997920235E+02  0.47000000000E+01 0.  1.
         13    1    6    6    0    0 -0.12023209367E+03 -0.45665177460E+02  0.11083101599E+03  0.16977802828E+03  0.00000000000E+00 0. -1.
        -14    1    6    6    0    0 -0.32257430898E+02 -0.22226569117E+02  0.12016418110E+03  0.12638826149E+03  0.00000000000E+00 0.  1.
</event>
<event>
12    1  0.1039610E+000  0.1946262E+03  0.7818608E-02  0.1154482E+00
         21   -1    0    0  501  502  0.00000000000E+00  0.00000000000E+00  0.60101798355E+03  0.60101798355E+03  0.00000000000E+00 0.  1.
         21   -1    0    0  502  503 -0.00000000000E+00 -0.00000000000E+00 -0.11398170809E+03  0.11398170809E+03  0.00000000000E+00 0.  1.
         -6    2    1    2    0  503  0.88292623332E+02 -0.13176265248E+02  0.48279306792E+03  0.52032725703E+03  0.17228495775E+03 0.  0.
        -24    2    3    3    0    0  0.83806146406E+02  0.49690360653E+02  0.26337754334E+03  0.29199065559E+03  0.79988814826E+02 0.  0.
          6    2    1    2  501    0 -0.88292623332E+02  0.13176265248E+02  0.42432075378E+01  0.19467243461E+03  0.17294551364E+03 0.  0.
         24    2    5    5    0    0 -0.20343703842E+02  0.68131539522E+02  0.64746913498E+01  0.10712697585E+03  0.79865476662E+02 0.  0.
          5    1    5    5  501    0 -0.67948919489E+02 -0.54955274274E+02 -0.22314838120E+01  0.87545458764E+02  0.47000000000E+01 0. -1.
        -11    1    6    6    0    0 -0.28404725457E+02  0.81017959447E+01  0.30045989211E+02  0.42133466431E+02  0.00000000000E+00 0.  1.
         12    1    6    6    0    0  0.80610216144E+01  0.60029743577E+02 -0.23571297861E+02  0.64993509417E+02  0.00000000000E+00 0. -1.
         -5    1    3    3    0  503  0.44864769261E+01 -0.62866625902E+02  0.21941552458E+03  0.22833660144E+03  0.47000000000E+01 0.  1.
         11    1    4    4    0    0  0.31441513031E+02  0.18444105745E+01  0.17904542590E+03  0.18179448596E+03  0.00000000000E+00 0. -1.
        -12    1    4    4    0    0  0.52364633375E+02  0.47845950079E+02  0.84332117445E+02  0.11019616963E+03  0.00000000000E+00 0.  1.
</event>
<event>
12    1  0.1039610E+000  0.1973820E+03  0.7818608E-02  0.1152498E+00
         21   -1    0    0  503  502  0.00000000000E+00  0.00000000000E+00  0.24475868296E+03  0.24475868296E+03  0.00000000000E+00 0. -1.
         21   -1    0    0  501  503 -0.00000000000E+00 -0.00000000000E+00 -0.18998362682E+03  0.18998362682E+03  0.00000000000E+00 0. -1.
          6    2    1    2  501    0  0.77060221500E+02 -0.49367666208E+02  0.11754328830E+03  0.22762033418E+03  0.17210214322E+03 0.  0.
         24    2    3    3    0    0  0.89002345344E+02  0.43786598020E+01  0.29527627163E+02  0.12369666754E+03  0.80550572039E+02 0.  0.
         -6    2    1    2    0  502 -0.77060221500E+02  0.49367666208E+02 -0.62768232168E+02  0.20712197560E+03  0.17488344005E+03 0.  0.
        -24    2    5    5    0    0 -0.69460670783E+02  0.60877960364E+02 -0.10574580768E+03  0.16174134053E+03  0.80294299628E+02 0.  0.
          5    1    3    3  501    0 -0.11942123844E+02 -0.53746326010E+02  0.88015661140E+02  0.10392366664E+03  0.47000000000E+01 0. -1.
        -13    1    4    4    0    0  0.20624718690E+02 -0.13326171778E+02 -0.24562863217E+02  0.34731831577E+02  0.00000000000E+00 0.  1.
         14    1    4    4    0    0  0.68377626654E+02  0.17704831580E+02  0.54090490379E+02  0.88964835961E+02  0.00000000000E+00 0. -1.
         -5    1    5    5    0  502 -0.75995507173E+01 -0.11510294156E+02  0.42977575509E+02  0.45380635069E+02  0.47000000000E+01 0.  1.
         13    1    6    6    0    0 -0.91965915120E+01 -0.15429833161E+02 -0.41440349104E+02  0.45165911711E+02  0.00000000000E+00 0. -1.
        -14    1    6    6    0    0 -0.60264079271E+02  0.76307793525E+02 -0.64305458573E+02  0.11657542882E+03  0.00000000000E+00 0.  1.
</event>
<event>
12    1  0.1039610E+000  0.3159225E+03  0.7818608E-02  0.1077640E+00
         21   -1    0    0  501  502  0.00000000000E+00  0.00000000000E+00  0.57766884542E+03  0.57766884542E+03  0.00000000000E+00 0.  1.
         21   -1    0    0  502  503 -0.00000000000E+00 -0.00000000000E+00 -0.19177939888E+03  0.19177939888E+03  0.00000000000E+00 0.  1.
         -6    2    1    2    0  503 -0.36461954071E+02 -0.26209113589E+03  0.31527507841E+03  0.44573015635E+03  0.17104315131E+03 0.  0.
        -24    2    3    3    0    0  0.34276010936E+01 -0.25765940988E+03  0.29708337398E+03  0.40141486647E+03  0.80468900714E+02 0.  0.
          6    2    1    2  501    0  0.36461954071E+02  0.26209113589E+03  0.70614368131E+02  0.32371808795E+03  0.17258555523E+03 0.  0.
         24    2    5    5    0    0 -0.31992634506E+02  0.13421869658E+03 -0.58140492393E+01  0.15970350197E+03  0.80207345048E+02 0.  0.
          5    1    5    5  501    0  0.68454588577E+02  0.12787243931E+03  0.76428417370E+02  0.16401458598E+03  0.47000000000E+01 0. -1.
        -13    1    6    6    0    0  0.10706761129E+02  0.62223051101E+01 -0.20526833381E+02  0.23972957753E+02  0.00000000000E+00 0.  1.
         14    1    6    6    0    0 -0.42699395635E+02  0.12799639147E+03  0.14712784142E+02  0.13573054422E+03  0.00000000000E+00 0. -1.
         -5    1    3    3    0  503 -0.39889555165E+02 -0.44317260061E+01  0.18191704428E+02  0.44315289874E+02  0.47000000000E+01 0.  1.
         11    1    4    4    0    0  0.30605678147E-01 -0.89626499052E+02  0.16456007281E+03  0.18738443861E+03  0.00000000000E+00 0. -1.
        -12    1    4    4    0    0  0.33969954155E+01 -0.16803291083E+03  0.13252330117E+03  0.21403042787E+03  0.00000000000E+00 0.  1.
</event>
<event>
12    1  0.1039610E+000  0.2135550E+03  0.7818608E-02  0.1139162E+00
         21   -1    0    0  501  502  0.00000000000E+00  0.00000000000E+00  0.18806053192E+04  0.18806053192E+04  0.00000000000E+00 0. -1.
         21   -1    0    0  502  503 -0.00000000000E+00 -0.00000000000E+00 -0.24062952352E+02  0.24062952352E+02  0.00000000000E+00 0. -1.
         -6    2    1    2    0  503 -0.11687053589E+03 -0.38047034171E+02  0.95966860569E+03  0.98272018593E+03  0.17224642847E+03 0.  0.
        -24    2    3    3    0    0  0.10546939916E+02  0.82627242639E+01  0.33883542204E+03  0.34723947121E+03  0.74741531829E+02 0.  0.
          6    2    1    2  501    0  0.11687053589E+03  0.38047034171E+02  0.89687376116E+03  0.92194808562E+03  0.17464086051E+03 0.  0.
         24    2    5    5    0    0  0.23408766526E+02  0.27521716723E+02  0.19826084213E+03  0.21701689375E+03  0.80520527875E+02 0.  0.
          5    1    5    5  501    0  0.93461769364E+02  0.10525317447E+02  0.69861291903E+03  0.70493119187E+03  0.47000000000E+01 0. -1.
        -11    1    6    6    0    0  0.36079091454E+02 -0.13686777991E+02  0.53443212103E+02  0.65918173911E+02  0.00000000000E+00 0.  1.
         12    1    6    6    0    0 -0.12670324927E+02  0.41208494714E+02  0.14481763003E+03  0.15109871984E+03  0.00000000000E+00 0. -1.
         -5    1    3    3    0  503 -0.12741747581E+03 -0.46309758435E+02  0.62083318365E+03  0.63548071473E+03  0.47000000000E+01 0.  1.
         11    1    4    4    0    0  0.22116646346E+02  0.35752713424E+00  0.32985584990E+03  0.33059666602E+03  0.00000000000E+00 0. -1.
        -12    1    4    4    0    0 -0.11569706431E+02  0.79051971296E+01  0.89795721384E+01  0.16642805182E+02  0.00000000000E+00 0.  1.
</event>
<event>
12    1  0.1039610E+000  0.2323127E+03  0.7818608E-02  0.1125334E+00
         21   -1    0    0  501  502  0.00000000000E+00  0.00000000000E+00  0.18665653009E+03  0.18665653009E+03  0.00000000000E+00 0. -1.
         21   -1    0    0  502  503 -0.00000000000E+00 -0.00000000000E+00 -0.30892672448E+03  0.30892672448E+03  0.00000000000E+00 0. -1.
         -6    2    1    2    0  503 -0.11034483440E+03 -0.10813388730E+03 -0.12705925016E+03  0.26322124183E+03  0.17109193153E+03 0.  0.
        -24    2    3    3    0    0 -0.58396503964E+02 -0.79364473135E+02 -0.45224988320E+01  0.12697274219E+03  0.79954693373E+02 0.  0.
          6    2    1    2  501    0  0.11034483440E+03  0.10813388730E+03  0.47890557792E+01  0.23236201274E+03  0.17349423578E+03 0.  0.
         24    2    5    5    0    0  0.57113064452E+02  0.12832074640E+03 -0.33627187158E+02  0.16352141184E+03  0.76683429266E+02 0.  0.
          5    1    5    5  501    0  0.53231769944E+02 -0.20186859101E+02  0.38416242938E+02  0.68840600906E+02  0.47000000000E+01 0. -1.
        -11    1    6    6    0    0  0.26423482436E+02  0.10183245485E+03  0.78823567721E+01  0.10549967219E+03  0.00000000000E+00 0.  1.
         12    1    6    6    0    0  0.30689582016E+02  0.26488291554E+02 -0.41509543931E+02  0.58021739642E+02  0.00000000000E+00 0. -1.
         -5    1    3    3    0  503 -0.51948330432E+02 -0.28769414168E+02 -0.12253675133E+03  0.13624849964E+03  0.47000000000E+01 0.  1.
         13    1    4    4    0    0  0.18472294453E+02 -0.55095286215E+01  0.51016264853E+01  0.19940089287E+02  0.00000000000E+00 0. -1.
        -14    1    4    4    0    0 -0.76868798417E+02 -0.73854944514E+02 -0.96241253172E+01  0.10703265290E+03  0.00000000000E+00 0.  1.
</event>
<event>
12    1  0.1039610E+000  0.3794462E+03  0.7818608E-02  0.1051354E+00
         21   -1    0    0  501  502  0.00000000000E+00  0.00000000000E+00  0.32132673942E+03  0.32132673942E+03  0.00000000000E+00 0.  1.
         21   -1    0    0  502  503 -0.00000000000E+00 -0.00000000000E+00 -0.44746794294E+03  0.44746794294E+03  0.00000000000E+00 0.  1.
         -6    2    1    2    0  503 -0.34291559073E+01 -0.33650295295E+03 -0.89337559405E+02  0.38756784698E+03  0.17023994843E+03 0.  0.
        -24    2    3    3    0    0 -0.52329465152E+02 -0.23728023065E+03 -0.18472150249E+02  0.25611296849E+03  0.78818471904E+02 0.  0.
          6    2    1    2  501    0  0.34291559073E+01  0.33650295295E+03 -0.36803644119E+02  0.38122683537E+03  0.17530942741E+03 0.  0.
         24    2    5    5    0    0 -0.17315081744E+02  0.38342383842E+02 -0.37245212144E+02  0.82308228817E+02  0.60145558846E+02 0.  0.
          5    1    5    5  501    0  0.20744237651E+02  0.29816056910E+03  0.44156802509E+00  0.29891860656E+03  0.47000000000E+01 0. -1.
        -11    1    6    6    0    0 -0.30054451302E+02  0.27135682083E+02 -0.47551638003E+02  0.62456173129E+02  0.00000000000E+00 0.  1.
         12    1    6    6    0    0  0.12739369559E+02  0.11206701758E+02  0.10306425859E+02  0.19852055688E+02  0.00000000000E+00 0. -1.
         -5    1    3    3    0  503  0.48900309245E+02 -0.99222722295E+02 -0.70865409156E+02  0.13145487849E+03  0.47000000000E+01 0.  1.
         13    1    4    4    0    0  0.21127808713E+01 -0.12970723761E+03  0.16023210156E+02  0.13071026966E+03  0.00000000000E+00 0. -1.
        -14    1    4    4    0    0 -0.54442246023E+02 -0.10757299304E+03 -0.34495360405E+02  0.12540269883E+03  0.00000000000E+00 0.  1.
</event>
<event>
12    1  0.1039610E+000  0.1992851E+03  0.7818608E-02  0.1151025E+00
         21   -1    0    0  503  502  0.00000000000E+00  0.00000000000E+00  0.94714728340E+02  0.94714728340E+02  0.00000000000E+00 0.  1.
         21   -1    0    0  501  503 -0.00000000000E+00 -0.00000000000E+00 -0.48968930312E+03  0.48968930312E+03  0.00000000000E+00 0.  1.
          6    2    1    2  501    0 -0.61325163794E+01 -0.10253153307E+03 -0.80231770937E+02  0.21187542087E+03  0.16704410757E+03 0.  0.
         24    2    3    3    0    0 -0.82505559173E+01  0.66929302929E+01 -0.63289501117E+02  0.10122461883E+03  0.78281514522E+02 0.  0.
         -6    2    1    2    0  502  0.61325163794E+01  0.10253153307E+03 -0.31474280385E+03  0.37252861059E+03  0.17077532054E+03 0.  0.
        -24    2    5    5    0    0  0.67452172953E+02  0.95433034501E+02 -0.22071807112E+03  0.25995317220E+03  0.72124372497E+02 0.  0.
          5    1    3    3  501    0  0.21180395380E+01 -0.10922446336E+03 -0.16942269820E+02  0.11065080205E+03  0.47000000000E+01 0. -1.
        -11    1    4    4    0    0  0.35138091240E+02  0.51249135140E+01 -0.30634251958E+02  0.46897842035E+02  0.00000000000E+00 0.  1.
         12    1    4    4    0    0 -0.43388647158E+02  0.15680167789E+01 -0.32655249158E+02  0.54326776790E+02  0.00000000000E+00 0. -1.
         -5    1    5    5    0  502 -0.61319656574E+02  0.70984985647E+01 -0.94024732727E+02  0.11257543839E+03  0.47000000000E+01 0.  1.
         11    1    6    6    0    0 -0.11947581879E+01  0.53382823837E+02 -0.60819189740E+02  0.80932855928E+02  0.00000000000E+00 0. -1.
        -12    1    6    6    0    0  0.68646931141E+02  0.42050210664E+02 -0.15989888138E+03  0.17902031627E+03  0.00000000000E+00 0.  1.
</event>
<event>
12    1  0.1039610E+000  0.3094439E+03  0.7818608E-02  0.1080753E+00
         21   -1    0    0  503  502  0.00000000000E+00  0.00000000000E+00  0.92316660274E+02  0.92316660274E+02  0.00000000000E+00 0.  1.
         21   -1    0    0  501  503 -0.00000000000E+00 -0.00000000000E+00 -0.11136544311E+04  0.11136544311E+04  0.00000000000E+00 0.  1.
          6    2    1    2  501    0 -0.25464446852E+03 -0.27084288160E+02 -0.34964326339E+03  0.46691104914E+03  0.17371860050E+03 0.  0.
         24    2    3    3    0    0 -0.90596176174E+02 -0.17684033723E+02 -0.24022917365E+03  0.26944272247E+03  0.79805592726E+02 0.  0.
         -6    2    1    2    0  502  0.25464446852E+03  0.27084288160E+02 -0.67169450744E+03  0.73906004223E+03  0.17163586657E+03 0.  0.
        -24    2    5    5    0    0  0.16697495936E+03 -0.46751836882E+02 -0.37917208307E+03  0.42484805177E+03  0.81596735245E+02 0.  0.
          5    1    3    3  501    0 -0.16404829235E+03 -0.94002544370E+01 -0.10941408974E+03  0.19746832667E+03  0.47000000000E+01 0. -1.
        -11    1    4    4    0    0 -0.30794237719E+02  0.18175467302E+02 -0.26166303166E+02  0.44309232781E+02  0.00000000000E+00 0.  1.
         12    1    4    4    0    0 -0.59801938455E+02 -0.35859501025E+02 -0.21406287049E+03  0.22513348969E+03  0.00000000000E+00 0. -1.
         -5    1    5    5    0  502  0.87669509165E+02  0.73836125042E+02 -0.29252242436E+03  0.31421199047E+03  0.47000000000E+01 0.  1.
         13    1    6    6    0    0  0.12253065353E+03  0.13502842079E+01 -0.28411958806E+03  0.30941804188E+03  0.00000000000E+00 0. -1.
        -14    1    6    6    0    0  0.44444305827E+02 -0.48102121090E+02 -0.95052495015E+02  0.11543000989E+03  0.00000000000E+00 0.  1.
</event>
<event>
12    1  0.1039610E+000  0.1954597E+03  0.7818608E-02  0.1153912E+00
         21   -1    0    0  501  502  0.00000000000E+00  0.00000000000E+00  0.15810241510E+03  0.15810241510E+03  0.00000000000E+00 0. -1.
         21   -1    0    0  502  503 -0.00000000000E+00 -0.00000000000E+00 -0.24038629433E+03  0.24038629433E+03  0.00000000000E+00 0. -1.
         -6    2    1    2    0  503  0.48225191401E+02 -0.77449905299E+02 -0.48918527175E+02  0.20148828169E+03  0.17285933137E+03 0.  0.
        -24    2    3    3    0    0  0.57934879962E+02  0.73544986507E+01 -0.59447011192E+02  0.11535464159E+03  0.79763445452E+02 0.  0.
          6    2    1    2  501    0 -0.48225191401E+02  0.77449905299E+02 -0.33365352058E+02  0.19700042773E+03  0.17138192697E+03 0.  0.
         24    2    5    5    0    0  0.72200703392E+01  0.74557891969E+02 -0.70543718473E+02  0.13001638695E+03  0.79478525331E+02 0.  0.
          5    1    5    5  501    0 -0.55445261740E+02  0.28920133294E+01  0.37178366415E+02  0.66984040785E+02  0.47000000000E+01 0. -1.
        -11    1    6    6    0    0 -0.78261038197E+01  0.80495688561E+02 -0.29819706448E+02  0.86197556059E+02  0.00000000000E+00 0.  1.
         12    1    6    6    0    0  0.15046174159E+02 -0.59377965918E+01 -0.40724012025E+02  0.43818830891E+02  0.00000000000E+00 0. -1.
         -5    1    3    3    0  503 -0.97096885613E+01 -0.84804403949E+02  0.10528484017E+02  0.86133640100E+02  0.47000000000E+01 0.  1.
         11    1    4    4    0    0 -0.14951280286E+02 -0.87282035948E+01 -0.30944518755E+02  0.35458222759E+02  0.00000000000E+00 0. -1.
        -12    1    4    4    0    0  0.72886160248E+02  0.16082702245E+02 -0.28502492436E+02  0.79896418833E+02  0.00000000000E+00 0.  1.
</event>
<event>
12    1  0.1039610E+000  0.4080923E+03  0.7818608E-02  0.1041100E+00
         21   -1    0    0  501  502  0.00000000000E+00  0.00000000000E+00  0.72750004820E+03  0.72750004820E+03  0.00000000000E+00 0. -1.
         21   -1    0    0  502  503 -0.00000000000E+00 -0.00000000000E+00 -0.37441808871E+03  0.37441808871E+03  0.00000000000E+00 0.  1.
         -6    2    1    2    0  503 -0.31837451808E+03 -0.18640296498E+03 -0.16773393401E+03  0.44026224884E+03  0.17201097645E+03 0.  0.
        -24    2    3    3    0    0 -0.57547994274E+02 -0.35098895232E+02 -0.58150417218E+02  0.11939773819E+03  0.79565349053E+02 0.  0.
          6    2    1    2  501    0  0.31837451808E+03  0.18640296498E+03  0.52081589350E+03  0.66165588806E+03  0.17444460487E+03 0.  0.
         24    2    5    5    0    0  0.21329767070E+03  0.78996151573E+02  0.22477166973E+03  0.32962932309E+03  0.79980615379E+02 0.  0.
          5    1    5    5  501    0  0.10507684738E+03  0.10740681341E+03  0.29604422377E+03  0.33202656497E+03  0.47000000000E+01 0. -1.
        -13    1    6    6    0    0  0.15530035048E+02  0.17650554124E+02 -0.67827921341E+00  0.23519866330E+02  0.00000000000E+00 0.  1.
         14    1    6    6    0    0  0.19776763566E+03  0.61345597449E+02  0.22544994895E+03  0.30610945676E+03  0.00000000000E+00 0. -1.
         -5    1    3    3    0  503 -0.26082652381E+03 -0.15130406975E+03 -0.10958351679E+03  0.32086451065E+03  0.47000000000E+01 0.  1.
         13    1    4    4    0    0 -0.54379398910E+02 -0.25941379465E+02  0.19771885704E+00  0.60250421468E+02  0.00000000000E+00 0. -1.
        -14    1    4    4    0    0 -0.31685953647E+01 -0.91575157667E+01 -0.58348136075E+02  0.59147316718E+02  0.00000000000E+00 0.  1.
</event>
<event>
12    1  0.1039610E+000  0.3553322E+03  0.7818608E-02  0.1060451E+00
         21   -1    0    0  503  502  0.00000000000E+00  0.00000000000E+00  0.12417352358E+04  0.12417352358E+04  0.00000000000E+00 0.  1.
         21   -1    0    0  501  503 -0.00000000000E+00 -0.00000000000E+00 -0.17134411330E+03  0.17134411330E+03  0.00000000000E+00 0.  1.
          6    2    1    2  501    0 -0.15134731443E+03 -0.27163776369E+03  0.98572212810E+03  0.10477989162E+04  0.17187603309E+03 0.  0.
         24    2    3    3    0    0 -0.56071707941E+02 -0.45691621071E+02  0.35922753575E+03  0.37500870760E+03  0.79720434474E+02 0.  0.
         -6    2    1    2    0  502  0.15134731443E+03  0.27163776369E+03  0.84668994396E+02  0.36528043287E+03  0.17195310924E+03 0.  0.
        -24    2    5    5    0    0  0.71804969673E+02  0.70857071058E+02 -0.10881294364E+02  0.12907751412E+03  0.79786740100E+02 0.  0.
          5    1    3    3  501    0 -0.95275606492E+02 -0.22594614262E+03  0.62649459235E+03  0.67279020861E+03  0.47000000000E+01 0. -1.
        -13    1    4    4    0    0 -0.51938831382E+02 -0.37503925901E+02  0.12372079542E+03  0.13932344341E+03  0.00000000000E+00 0.  1.
         14    1    4    4    0    0 -0.41328765587E+01 -0.81876951708E+01  0.23550674032E+03  0.23568526419E+03  0.00000000000E+00 0. -1.
         -5    1    5    5    0  502  0.79542344760E+02  0.20078069263E+03  0.95550288759E+02  0.23620291875E+03  0.47000000000E+01 0.  1.
         11    1    6    6    0    0  0.48116827225E+02  0.86391602383E+02 -0.44449571999E+00  0.98888500853E+02  0.00000000000E+00 0. -1.
        -12    1    6    6    0    0  0.23688142448E+02 -0.15534531325E+02 -0.10436798644E+02  0.30189013268E+02  0.00000000000E+00 0.  1.
</event>
<event>
12    1  0.1039610E+000  0.2026166E+03  0.7818608E-02  0.1147795E+00
         21   -1    0    0  501  502  0.00000000000E+00  0.00000000000E+00  0.12979366397E+03  0.12979366397E+03  0.00000000000E+00 0. -1.
         21   -1    0    0  502  503 -0.00000000000E+00 -0.00000000000E+00 -0.69506237531E+03  0.69506237531E+03  0.00000000000E+00 0. -1.
         -6    2    1    2    0  503  0.63719636401E+02 -0.83552196175E+02 -0.58745198266E+03  0.62102871178E+03  0.17185944075E+03 0.  0.
        -24    2    3    3    0    0 -0.51478875122E+01 -0.10063520678E+03 -0.39416732078E+03  0.41507819438E+03  0.82268372317E+02 0.  0.
          6    2    1    2  501    0 -0.63719636401E+02  0.83552196175E+02  0.22183271319E+02  0.20382732751E+03  0.17324064293E+03 0.  0.
         24    2    5    5    0    0  0.20649745592E+02  0.50089182108E+01  0.35101665433E+02  0.87740230733E+02  0.77554625382E+02 0.  0.
          5    1    5    5  501    0 -0.84369381993E+02  0.78543277965E+02 -0.12918394114E+02  0.11608709678E+03  0.47000000000E+01 0. -1.
        -11    1    6    6    0    0  0.23391683088E+02  0.34617750643E+02  0.56724519662E-01  0.41779931964E+02  0.00000000000E+00 0.  1.
         12    1    6    6    0    0 -0.27419374958E+01 -0.29608832433E+02  0.35044940913E+02  0.45960298768E+02  0.00000000000E+00 0. -1.
         -5    1    3    3    0  503  0.68867523913E+02  0.17083010608E+02 -0.19328466188E+03  0.20595051740E+03  0.47000000000E+01 0.  1.
         13    1    4    4    0    0  0.27090254308E+02 -0.86258642809E+02 -0.32611339893E+03  0.33841451549E+03  0.00000000000E+00 0. -1.
        -14    1    4    4    0    0 -0.32238141821E+02 -0.14376563974E+02 -0.68053921856E+02  0.76663678882E+02  0.00000000000E+00 0.  1.
</event>
<event>
12    1  0.1039610E+000  0.1860846E+03  0.7818608E-02  0.1162769E+00
         21   -1    0    0  501  502  0.00000000000E+00  0.00000000000E+00  0.31412296054E+03  0.31412296054E+03  0.00000000000E+00 0. -1.
         21   -1    0    0  502  503 -0.00000000000E+00 -0.00000000000E+00 -0.12679045708E+03  0.12679045708E+03  0.00000000000E+00 0. -1.
         -6    2    1    2    0  503  0.61220221688E+02 -0.69706324050E+01  0.17695233254E+03  0.25453954489E+03  0.17228391295E+03 0.  0.
        -24    2    3    3    0    0 -0.19328335400E+01  0.12531519810E+02  0.14409102011E+02  0.79008823599E+02  0.76642006442E+02 0.  0.
          6    2    1    2  501    0 -0.61220221688E+02  0.69706324050E+01  0.10380170917E+02  0.18637387273E+03  0.17558749166E+03 0.  0.
         24    2    5    5    0    0  0.36669127977E+02 -0.51497204008E+00  0.11110399265E+02  0.88083576745E+02  0.79311949777E+02 0.  0.
          5    1    5    5  501    0 -0.97889349665E+02  0.74856044451E+01 -0.73022834788E+00  0.98290295987E+02  0.47000000000E+01 0. -1.
        -11    1    6    6    0    0  0.12972426691E+02 -0.24478816682E+02 -0.25972309484E+02  0.37974427979E+02  0.00000000000E+00 0.  1.
         12    1    6    6    0    0  0.23696701286E+02  0.23963844642E+02  0.37082708749E+02  0.50109148766E+02  0.00000000000E+00 0. -1.
         -5    1    3    3    0  503  0.63153055228E+02 -0.19502152215E+02  0.16254323053E+03  0.17553072129E+03  0.47000000000E+01 0.  1.
         13    1    4    4    0    0 -0.46301029354E+01 -0.21496269702E+02  0.33368574180E+02  0.39962347367E+02  0.00000000000E+00 0. -1.
        -14    1    4    4    0    0  0.26972693954E+01  0.34027789512E+02 -0.18959472168E+02  0.39046476232E+02  0.00000000000E+00 0.  1.
</event>
<event>
12    1  0.1039610E+000  0.2298707E+03  0.7818608E-02  0.1126798E+00
         21   -1    0    0  501  502  0.00000000000E+00  0.00000000000E+00  0.12504401512E+03  0.12504401512E+03  0.00000000000E+00 0. -1.
         21   -1    0    0  502  503 -0.00000000000E+00 -0.00000000000E+00 -0.47626481237E+03  0.47626481237E+03  0.00000000000E+00 0. -1.
         -6    2    1    2    0  503  0.17416395758E+02 -0.15112984807E+03 -0.73882335835E+02  0.24109058521E+03  0.17182115386E+03 0.  0.
        -24    2    3    3    0    0  0.71712727711E+02 -0.66765135020E+02 -0.61452884019E+02  0.13988743436E+03  0.78687602372E+02 0.  0.
          6    2    1    2  501    0 -0.17416395758E+02  0.15112984807E+03 -0.27733846141E+03  0.36021824228E+03  0.17232816971E+03 0.  0.
         24    2    5    5    0    0  0.23562838600E+00  0.99245981175E+02 -0.27773129928E+03  0.30521120708E+03  0.78545439249E+02 0.  0.
          5    1    5    5  501    0 -0.17652024144E+02  0.51883866890E+02  0.39283787240E+00  0.55007035200E+02  0.47000000000E+01 0. -1.
        -13    1    6    6    0    0 -0.19226169811E+02  0.68567034838E+02 -0.24873317521E+03  0.25872625750E+03  0.00000000000E+00 0.  1.
         14    1    6    6    0    0  0.19461798197E+02  0.30678946337E+02 -0.28998124070E+02  0.46484949575E+02  0.00000000000E+00 0. -1.
         -5    1    3    3    0  503 -0.54296331952E+02 -0.84364713045E+02 -0.12429451816E+02  0.10120315086E+03  0.47000000000E+01 0.  1.
         11    1    4    4    0    0 -0.70375921939E+01 -0.27292516031E+02 -0.40497224532E+02  0.49339987130E+02  0.00000000000E+00 0. -1.
        -12    1    4    4    0    0  0.78750319905E+02 -0.39472618989E+02 -0.20955659487E+02  0.90547447228E+02  0.00000000000E+00 0.  1.
</event>
<event>
12    1  0.1039610E+000  0.1735063E+03  0.7818608E-02  0.1174575E+00
         21   -1    0    0  501  502  0.00000000000E+00  0.00000000000E+00  0.15549644806E+02  0.15549644806E+02  0.00000000000E+00 0. -1.
         21   -1    0    0  502  503 -0.00000000000E+00 -0.00000000000E+00 -0.19515026268E+04  0.19515026268E+04  0.00000000000E+00 0. -1.
         -6    2    1    2    0  503  0.10429347632E+02  0.58065642701E+01 -0.10937871708E+04  0.11074632314E+04  0.17309519485E+03 0.  0.
        -24    2    3    3    0    0  0.29618267829E+02  0.65336893243E+02 -0.75341752970E+03  0.76136258522E+03  0.82999160842E+02 0.  0.
          6    2    1    2  501    0 -0.10429347632E+02 -0.58065642701E+01 -0.84216581125E+03  0.85958904023E+03  0.17177769637E+03 0.  0.
         24    2    5    5    0    0 -0.31968711682E+02 -0.57282011527E+02 -0.36550668128E+03  0.37965187554E+03  0.78975851796E+02 0.  0.
          5    1    5    5  501    0  0.21539364051E+02  0.51475447256E+02 -0.47665912997E+03  0.47993716469E+03  0.47000000000E+01 0. -1.
        -13    1    6    6    0    0 -0.53064071721E+02 -0.45379303806E+02 -0.18888013345E+03  0.20137224668E+03  0.00000000000E+00 0.  1.
         14    1    6    6    0    0  0.21095360039E+02 -0.11902707720E+02 -0.17662654783E+03  0.17827962885E+03  0.00000000000E+00 0. -1.
         -5    1    3    3    0  503 -0.19188920197E+02 -0.59530328973E+02 -0.34036964107E+03  0.34610064619E+03  0.47000000000E+01 0.  1.
         13    1    4    4    0    0  0.54796595240E+02  0.37464976242E+02 -0.58796368904E+03  0.59169890225E+03  0.00000000000E+00 0. -1.
        -14    1    4    4    0    0 -0.25178327411E+02  0.27871917001E+02 -0.16545384066E+03  0.16966368297E+03  0.00000000000E+00 0.  1.
</event>
<event>
12    1  0.1039610E+000  0.2657147E+03  0.7818608E-02  0.1104019E+00
         21   -1    0    0  503  502  0.00000000000E+00  0.00000000000E+00  0.48432637790E+03  0.48432637790E+03  0.00000000000E+00 0.  1.
         21   -1    0    0  501  503 -0.00000000000E+00 -0.00000000000E+00 -0.23706032445E+03  0.23706032445E+03  0.00000000000E+00 0.  1.
          6    2    1    2  501    0  0.20176218591E+03  0.16020344624E+02  0.34839484189E+03  0.43707819728E+03  0.16939230674E+03 0.  0.
         24    2    3    3    0    0  0.93895706579E+02  0.18106575633E+02  0.10072857589E+03  0.16689270722E+03  0.92534739042E+02 0.  0.
         -6    2    1    2    0  502 -0.20176218591E+03 -0.16020344624E+02 -0.10112878844E+03  0.28430850507E+03  0.17216173529E+03 0.  0.
        -24    2    5    5    0    0 -0.75784632166E+02 -0.66663299643E+02 -0.64575349806E+02  0.14361985302E+03  0.79179418958E+02 0.  0.
          5    1    3    3  501    0  0.10786647933E+03 -0.20862310092E+01  0.24766626600E+03  0.27018549006E+03  0.47000000000E+01 0. -1.
        -11    1    4    4    0    0 -0.11390251379E+02 -0.16415432415E+02  0.53238189427E+01  0.20677216833E+02  0.00000000000E+00 0.  1.
         12    1    4    4    0    0  0.10528595796E+03  0.34522008048E+02  0.95404756944E+02  0.14621549039E+03  0.00000000000E+00 0. -1.
         -5    1    5    5    0  502 -0.12597755374E+03  0.50642955019E+02 -0.36553438637E+02  0.14068865205E+03  0.47000000000E+01 0.  1.
         13    1    6    6    0    0 -0.60922388405E+02 -0.26771579000E+02 -0.74515866675E+02  0.99904300395E+02  0.00000000000E+00 0. -1.
        -14    1    6    6    0    0 -0.14862243761E+02 -0.39891720643E+02  0.99405168697E+01  0.43715552623E+02  0.00000000000E+00 0.  1.
</event>
<event>
12    1  0.1039610E+000  0.1743562E+03  0.7818608E-02  0.1173502E+00
         21   -1    0    0  503  502  0.00000000000E+00  0.00000000000E+00  0.24303906866E+03  0.24303906866E+03  0.00000000000E+00 0.  1.
         21   -1    0    0  501  503 -0.00000000000E+00 -0.00000000000E+00 -0.18548230279E+03  0.18548230279E+03  0.00000000000E+00 0.  1.
          6    2    1    2  501    0 -0.20361647740E+02 -0.17253825887E+02  0.15142199419E+03  0.23093007129E+03  0.17230144019E+03 0.  0.
         24    2    3    3    0    0 -0.37990925865E+02 -0.17800404366E+02  0.17762936161E+03  0.19899253378E+03  0.79282239839E+02 0.  0.
         -6    2    1    2    0  502  0.20361647740E+02  0.17253825887E+02 -0.93865228325E+02  0.19759130016E+03  0.17181196001E+03 0.  0.
        -24    2    5    5    0    0 -0.29979774681E+02  0.43202744648E+02 -0.10148464671E+03  0.14025238900E+03  0.81279364336E+02 0.  0.
          5    1    3    3  501    0  0.17629278125E+02  0.54657847840E+00 -0.26207367411E+02  0.31937537505E+02  0.47000000000E+01 0. -1.
        -11    1    4    4    0    0 -0.16260112180E+02  0.31318781998E+02  0.82847158088E+02  0.90049480605E+02  0.00000000000E+00 0.  1.
         12    1    4    4    0    0 -0.21730813686E+02 -0.49119186364E+02  0.94782203517E+02  0.10894305318E+03  0.00000000000E+00 0. -1.
         -5    1    5    5    0  502  0.50341422421E+02 -0.25948918761E+02  0.76194183874E+01  0.57338911158E+02  0.47000000000E+01 0.  1.
         13    1    6    6    0    0 -0.43504060519E+02 -0.59759391447E+01 -0.60850024790E+02  0.75040260176E+02  0.00000000000E+00 0. -1.
        -14    1    6    6    0    0  0.13524285838E+02  0.49178683793E+02 -0.40634621922E+02  0.65212128824E+02  0.00000000000E+00 0.  1.
</event>
<event>
12    1  0.1039610E+000  0.2231281E+03  0.7818608E-02  0.1131711E+00
         21   -1    0    0  501  502  0.00000000000E+00  0.00000000000E+00  0.53771576746E+03  0.53771576746E+03  0.00000000000E+00 0.  1.
         21   -1    0    0  502  503 -0.00000000000E+00 -0.00000000000E+00 -0.94864575767E+02  0.94864575767E+02  0.00000000000E+00 0.  1.
         -6    2    1    2    0  503  0.70922407690E+02  0.12323027464E+03  0.27331406863E+03  0.35235011488E+03  0.17098051013E+03 0.  0.
        -24    2    3    3    0    0 -0.18794529777E+02  0.10009396353E+03  0.17113107271E+03  0.21433608510E+03  0.79259557447E+02 0.  0.
          6    2    1    2  501    0 -0.70922407690E+02 -0.12323027464E+03  0.16953712307E+03  0.28023022835E+03  0.17196062422E+03 0.  0.
         24    2    5    5    0    0 -0.11591239711E+03 -0.88564634541E+02  0.12090502288E+03  0.20531042509E+03  0.79088354367E+02 0.  0.
          5    1    5    5  501    0  0.44989989424E+02 -0.34665640099E+02  0.48632100191E+02  0.74919803262E+02  0.47000000000E+01 0. -1.
        -13    1    6    6    0    0 -0.38165743557E+02 -0.51718915045E+01 -0.82826555995E+00  0.38523479423E+02  0.00000000000E+00 0.  1.
         14    1    6    6    0    0 -0.77746653557E+02 -0.83392743037E+02  0.12173328844E+03  0.16678694566E+03  0.00000000000E+00 0. -1.
         -5    1    3    3    0  503  0.89716937466E+02  0.23136311110E+02  0.10218299592E+03  0.13801402978E+03  0.47000000000E+01 0.  1.
         13    1    4    4    0    0  0.24723892887E+02  0.69252961466E+02  0.79364767578E+02  0.10819431540E+03  0.00000000000E+00 0. -1.
        -14    1    4    4    0    0 -0.43518422664E+02  0.30841002064E+02  0.91766305128E+02  0.10614176971E+03  0.00000000000E+00 0.  1.
</event>
<event>
12    1  0.1556372E+000  0.3509559E+03  0.7818608E-02  0.1062285E+00
         21   -1    0    0  501  502  0.00000000000E+00  0.00000000000E+00  0.12228832730E+04  0.12228832730E+04  0.00000000000E+00 0.  1.
         21   -1    0    0  502  503 -0.00000000000E+00 -0.00000000000E+00 -0.44674126264E+03  0.44674126264E+03  0.00000000000E+00 0.  1.
         -6    2    1    2    0  503  0.30421210698E+03  0.29240299040E+02  0.11230315689E+04  0.11765925187E+04  0.17253999311E+03 0.  0.
        -24    2    3    3    0    0  0.65306540724E+02  0.21257446379E+02  0.22968027451E+03  0.25180161223E+03  0.77033759704E+02 0.  0.
          6    2    1    2  501    0 -0.30421210698E+03 -0.29240299040E+02 -0.34688955856E+03  0.49303201691E+03  0.17131317151E+03 0.  0.
         24    2    5    5    0    0 -0.58406711088E+02 -0.30925797544E+02 -0.92534525391E+02  0.13927827989E+03  0.80424200371E+02 0.  0.
          5    1    5    5  501    0 -0.24580539590E+03  0.16854985039E+01 -0.25435503317E+03  0.35375373702E+03  0.47000000000E+01 0. -1.
        -11    1    6    6    0    0 -0.67429655210E+02 -0.49275119072E+02 -0.77054061261E+02  0.11363152784E+03  0.00000000000E+00 0.  1.
         12    1    6    6    0    0  0.90229441220E+01  0.18349321528E+02 -0.15480464130E+02  0.25646752053E+02  0.00000000000E+00 0. -1.
         -5    1    3    3    0  503  0.23890556626E+03  0.79828526615E+01  0.89335129440E+03  0.92479090649E+03  0.47000000000E+01 0.  1.
         11    1    4    4    0    0 -0.55207726430E+01 -0.69790024359E+01  0.10691560280E+03  0.10728528104E+03  0.00000000000E+00 0. -1.
        -12    1    4    4    0    0  0.70827313367E+02  0.28236448814E+02  0.12276467171E+03  0.14451633119E+03  0.00000000000E+00 0.  1.
</event>
<event>
12    1  0.1039610E+000  0.8376341E+03  0.7818608E-02  0.9507294E-01
         21   -1    0    0  503  502  0.00000000000E+00  0.00000000000E+00  0.37817774208E+03  0.37817774208E+03  0.00000000000E+00 0.  1.
         21   -1    0    0  501  503 -0.00000000000E+00 -0.00000000000E+00 -0.19663225429E+04  0.19663225429E+04  0.00000000000E+00 0.  1.
          6    2    1    2  501    0 -0.80607953791E+03 -0.14629281930E+03 -0.51356183516E+03  0.98201745506E+03  0.17160044606E+03 0.  0.
         24    2    3    3    0    0 -0.60690232773E+03 -0.14783030901E+03 -0.44862892349E+03  0.77246484126E+03  0.72455395442E+02 0.  0.
         -6    2    1    2    0  502  0.80607953791E+03  0.14629281930E+03 -0.10745829657E+04  0.13624828299E+04  0.17454254869E+03 0.  0.
        -24    2    5    5    0    0  0.41527021272E+03  0.13054309140E+03 -0.63583599741E+03  0.77468952038E+03  0.79784641991E+02 0.  0.
          5    1    3    3  501    0 -0.19917721019E+03  0.15374897123E+01 -0.64932911668E+02  0.20955261380E+03  0.47000000000E+01 0. -1.
        -13    1    4    4    0    0 -0.21594701418E+03 -0.38002555317E+02 -0.19679245775E+03  0.29462616749E+03  0.00000000000E+00 0.  1.
         14    1    4    4    0    0 -0.39095531355E+03 -0.10982775369E+03 -0.25183646574E+03  0.47783867378E+03  0.00000000000E+00 0. -1.
         -5    1    5    5    0  502  0.39080932519E+03  0.15749727899E+02 -0.43874696828E+03  0.58779330956E+03  0.47000000000E+01 0.  1.
         13    1    6    6    0    0  0.17804738866E+03  0.45530168410E+02 -0.33641836024E+03  0.38334212128E+03  0.00000000000E+00 0. -1.
        -14    1    6    6    0    0  0.23722282406E+03  0.85012922990E+02 -0.29941763717E+03  0.39134739910E+03  0.00000000000E+00 0.  1.
</event>
<event>
12    1  0.1039610E+000  0.1860471E+03  0.7818608E-02  0.1162105E+00
         21   -1    0    0  503  502  0.00000000000E+00  0.00000000000E+00  0.27259129326E+02  0.27259129326E+02  0.00000000000E+00 0. -1.
         21   -1    0    0  501  503 -0.00000000000E+00 -0.00000000000E+00 -0.18700583463E+04  0.18700583463E+04  0.00000000000E+00 0. -1.
          6    2    1    2  501    0  0.15764116637E+02 -0.68902720164E+02 -0.38333483162E+03  0.42604258691E+03  0.17196104358E+03 0.  0.
         24    2    3    3    0    0 -0.21274121892E+02 -0.44458158734E+02 -0.98498569172E+02  0.13773172325E+03  0.82697903969E+02 0.  0.
         -6    2    1    2    0  502 -0.15764116637E+02  0.68902720164E+02 -0.14594643854E+04  0.14712748887E+04  0.17209710582E+03 0.  0.
        -24    2    5    5    0    0 -0.33580738976E+02 -0.24628342124E+02 -0.73534487098E+03  0.74090741084E+03  0.80482860868E+02 0.  0.
          5    1    3    3  501    0  0.37038238529E+02 -0.24444561430E+02 -0.28483626245E+03  0.28831086366E+03  0.47000000000E+01 0. -1.
        -13    1    4    4    0    0  0.18833069864E+01 -0.63114120535E+02 -0.48744796758E+02  0.79768378867E+02  0.00000000000E+00 0.  1.
         14    1    4    4    0    0 -0.23157428879E+02  0.18655961800E+02 -0.49753772415E+02  0.57963344386E+02  0.00000000000E+00 0. -1.
         -5    1    5    5    0  502  0.17816622339E+02  0.93531062287E+02 -0.72411951439E+03  0.73036747789E+03  0.47000000000E+01 0.  1.
         11    1    6    6    0    0 -0.31236104236E+02 -0.25584698189E+02 -0.73685414817E+03  0.73795955626E+03  0.00000000000E+00 0. -1.
        -12    1    6    6    0    0 -0.23446347402E+01  0.95635606565E+00  0.15092771941E+01  0.29478545822E+01  0.00000000000E+00 0.  1.
</event>
<event>
12    1  0.1039610E+000  0.1803000E+03  0.7818608E-02  0.1169545E+00
         21   -1    0    0  503  502  0.00000000000E+00  0.00000000000E+00  0.24910887260E+03  0.24910887260E+03  0.00000000000E+00 0.  1.
         21   -1    0    0  501  503 -0.00000000000E+00 -0.00000000000E+00 -0.17678072038E+03  0.17678072038E+03  0.00000000000E+00 0.  1.
          6    2    1    2  501    0  0.79780919731E+01 -0.12885745023E+02  0.15121527435E+03  0.22908697230E+03  0.17142079601E+03 0.  0.
         24    2    3    3    0    0  0.26061344407E+02 -0.55211566962E+02  0.15214333307E+03  0.18281137923E+03  0.80900530145E+02 0.  0.
         -6    2    1    2    0  502 -0.79780919731E+01  0.12885745023E+02 -0.78887122136E+02  0.19680262067E+03  0.17966190773E+03 0.  0.
        -24    2    5    5    0    0 -0.40601167959E+02  0.30742168150E+02  0.12643555322E+02  0.97893208333E+02  0.82641908281E+02 0.  0.
          5    1    3    3  501    0 -0.18083252434E+02  0.42325821939E+02 -0.92805871877E+00  0.46275593074E+02  0.47000000000E+01 0. -1.
        -13    1    4    4    0    0  0.21876602475E+01  0.20974830642E+02  0.25347176013E+02  0.32972848067E+02  0.00000000000E+00 0.  1.
         14    1    4    4    0    0  0.23873684159E+02 -0.76186397604E+02  0.12679615706E+03  0.14983853116E+03  0.00000000000E+00 0. -1.
         -5    1    5    5    0  502  0.32623075986E+02 -0.17856423127E+02 -0.91530677458E+02  0.98909412341E+02  0.47000000000E+01 0.  1.
         13    1    6    6    0    0 -0.13815581107E+01 -0.27121606142E+02  0.42781870664E+01  0.27491691601E+02  0.00000000000E+00 0. -1.
        -14    1    6    6    0    0 -0.39219609848E+02  0.57863774292E+02  0.83653682557E+01  0.70401516731E+02  0.00000000000E+00 0.  1.
</event>
<event>
12    1  0.1039610E+000  0.2178238E+03  0.7818608E-02  0.1136530E+00
         21   -1    0    0  501  502  0.00000000000E+00  0.00000000000E+00  0.36303271546E+03  0.36303271546E+03  0.00000000000E+00 0. -1.
         21   -1    0    0  502  503 -0.00000000000E+00 -0.00000000000E+00 -0.16312677432E+03  0.16312677432E+03  0.00000000000E+00 0. -1.
         -6    2    1    2    0  503 -0.47717390298E+02 -0.11647507786E+03  0.22378931116E+03  0.31229610026E+03  0.17777459142E+03 0.  0.
        -24    2    3    3    0    0 -0.36646670088E+02 -0.10560011105E+01  0.14618596978E+03  0.17269490859E+03  0.84315479756E+02 0.  0.
          6    2    1    2  501    0  0.47717390298E+02  0.11647507786E+03 -0.23883370014E+02  0.21386338951E+03  0.17124176158E+03 0.  0.
         24    2    5    5    0    0 -0.18768062188E+02  0.71043472700E+02 -0.61145757398E+02  0.12501001786E+03  0.80556103101E+02 0.  0.
          5    1    5    5  501    0  0.66485452486E+02  0.45431605158E+02  0.37262387384E+02  0.88853371647E+02  0.47000000000E+01 0. -1.
        -13    1    6    6    0    0  0.17576757710E+01  0.63781406174E+02 -0.75561662730E+02  0.98897533195E+02  0.00000000000E+00 0.  1.
         14    1    6    6    0    0 -0.20525737959E+02  0.72620665266E+01  0.14415905332E+02  0.26112484668E+02  0.00000000000E+00 0. -1.
         -5    1    3    3    0  503 -0.11070720210E+02 -0.11541907675E+03  0.77603341374E+02  0.13960119167E+03  0.47000000000E+01 0.  1.
         13    1    4    4    0    0 -0.52022992282E+02  0.17755588170E+02  0.52872493329E+02  0.76270264114E+02  0.00000000000E+00 0. -1.
        -14    1    4    4    0    0  0.15376322194E+02 -0.18811589280E+02  0.93313476453E+02  0.96424644481E+02  0.00000000000E+00 0.  1.
</event>
<event>
12    1  0.1039610E+000  0.3776274E+03  0.7818608E-02  0.1051832E+00
         21   -1    0    0  503  502  0.00000000000E+00  0.00000000000E+00  0.21311369092E+03  0.21311369092E+03  0.00000000000E+00 0. -1.
         21   -1    0    0  501  503 -0.00000000000E+00 -0.00000000000E+00 -0.92923884553E+03  0.92923884553E+03  0.00000000000E+00 0. -1.
          6    2    1    2  501    0  0.27828803663E+03  0.18856335078E+03 -0.55740965477E+02  0.38171914044E+03  0.17205254534E+03 0.  0.
         24    2    3    3    0    0  0.27876406913E+03  0.20398565004E+03 -0.35951303003E+02  0.35618887091E+03  0.79110453872E+02 0.  0.
         -6    2    1    2    0  502 -0.27828803663E+03 -0.18856335078E+03 -0.66038418912E+03  0.76063339601E+03  0.17162609734E+03 0.  0.
        -24    2    5    5    0    0 -0.78797358752E+02 -0.52059637809E+02 -0.31339610615E+03  0.33772369649E+03  0.83192224338E+02 0.  0.
          5    1    3    3  501    0 -0.47603250201E+00 -0.15422299260E+02 -0.19789662475E+02  0.25530269530E+02  0.47000000000E+01 0. -1.
        -13    1    4    4    0    0  0.20340626811E+03  0.12632823886E+03  0.75499948851E+01  0.23956196748E+03  0.00000000000E+00 0.  1.
         14    1    4    4    0    0  0.75357801024E+02  0.77657411182E+02 -0.43501297888E+02  0.11662690343E+03  0.00000000000E+00 0. -1.
         -5    1    5    5    0  502 -0.19949067788E+03 -0.13650371297E+03 -0.34698808298E+03  0.42290969951E+03  0.47000000000E+01 0.  1.
         11    1    6    6    0    0 -0.77257213112E+02 -0.19114064407E+02 -0.13844108059E+03  0.15968706031E+03  0.00000000000E+00 0. -1.
        -12    1    6    6    0    0 -0.15401456396E+01 -0.32945573402E+02 -0.17495502556E+03  0.17803663618E+03  0.00000000000E+00 0.  1.
</event>
<event>
12    1  0.1376551E+000  0.2968955E+03  0.7818608E-02  0.1086803E+00
         21   -1    0    0  501  502  0.00000000000E+00  0.00000000000E+00  0.61393747710E+03  0.61393747710E+03  0.00000000000E+00 0.  1.
         21   -1    0    0  502  503 -0.00000000000E+00 -0.00000000000E+00 -0.28077299508E+03  0.28077299508E+03  0.00000000000E+00 0. -1.
         -6    2    1    2    0  503  0.21429864818E+03  0.11423358124E+03  0.47929652412E+03  0.56380144396E+03  0.17080306931E+03 0.  0.
        -24    2    3    3    0    0  0.17714760443E+03  0.28674475039E+02  0.26863368228E+03  0.33336385233E+03  0.82242954168E+02 0.  0.
          6    2    1    2  501    0 -0.21429864818E+03 -0.11423358124E+03 -0.14613204210E+03  0.33090902822E+03  0.17080102322E+03 0.  0.
         24    2    5    5    0    0 -0.19051090931E+03 -0.92350714824E+02 -0.52987495944E+02  0.23220384679E+03  0.79296220855E+02 0.  0.
          5    1    5    5  501    0 -0.23787738872E+02 -0.21882866413E+02 -0.93144546155E+02  0.98705181432E+02  0.47000000000E+01 0. -1.
        -13    1    6    6    0    0 -0.11663763706E+03 -0.27505517697E+02 -0.59297537284E+02  0.13370523479E+03  0.00000000000E+00 0.  1.
         14    1    6    6    0    0 -0.73873272247E+02 -0.64845197127E+02  0.63100413398E+01  0.98498611993E+02  0.00000000000E+00 0. -1.
         -5    1    3    3    0  503  0.37151043752E+02  0.85559106198E+02  0.21066284184E+03  0.23043759163E+03  0.47000000000E+01 0.  1.
         13    1    4    4    0    0  0.62653730904E+02 -0.26810330077E+02  0.11723899487E+03  0.13560702678E+03  0.00000000000E+00 0. -1.
        -14    1    4    4    0    0  0.11449387352E+03  0.55484805117E+02  0.15139468741E+03  0.19775682554E+03  0.00000000000E+00 0.  1.
</event>
<event>
12    1  0.1039610E+000  0.3175850E+03  0.7818608E-02  0.1076904E+00
         21   -1    0    0  501  502  0.00000000000E+00  0.00000000000E+00  0.66273319010E+02  0.66273319010E+02  0.00000000000E+00 0.  1.
         21   -1    0    0  502  503 -0.00000000000E+00 -0.00000000000E+00 -0.15403404261E+04  0.15403404261E+04  0.00000000000E+00 0. -1.
         -6    2    1    2    0  503  0.21031150864E+03 -0.16225217904E+03 -0.63785377722E+03  0.71254310770E+03  0.17407911692E+03 0.  0.
        -24    2    3    3    0    0  0.14096601948E+03 -0.97097914336E+02 -0.25384746748E+03  0.31689577611E+03  0.81761681448E+02 0.  0.
          6    2    1    2  501    0 -0.21031150864E+03  0.16225217904E+03 -0.83621332991E+03  0.89407063745E+03  0.17190948596E+03 0.  0.
         24    2    5    5    0    0 -0.18585731777E+03  0.62895482071E+02 -0.51200517528E+03  0.55406655187E+03  0.79634541205E+02 0.  0.
          5    1    5    5  501    0 -0.24454190868E+02  0.99356696965E+02 -0.32420815462E+03  0.34000408558E+03  0.47000000000E+01 0. -1.
        -11    1    6    6    0    0 -0.71096473860E+02  0.28856756766E+02 -0.10649447761E+03  0.13125736081E+03  0.00000000000E+00 0.  1.
         12    1    6    6    0    0 -0.11476084391E+03  0.34038725305E+02 -0.40551069768E+03  0.42280919106E+03  0.00000000000E+00 0. -1.
         -5    1    3    3    0  503  0.69345489160E+02 -0.65154264700E+02 -0.38400630973E+03  0.39564733159E+03  0.47000000000E+01 0.  1.
         13    1    4    4    0    0  0.57807526560E+02 -0.14411550436E+02 -0.14554136971E+03  0.15726313367E+03  0.00000000000E+00 0. -1.
        -14    1    4    4    0    0  0.83158492918E+02 -0.82686363899E+02 -0.10830609777E+03  0.15963264244E+03  0.00000000000E+00 0.  1.
</event>
<event>
12    1  0.1039610E+000  0.2828507E+03  0.7818608E-02  0.1094202E+00
         21   -1    0    0  503  502  0.00000000000E+00  0.00000000000E+00  0.10057097605E+04  0.10057097605E+04  0.00000000000E+00 0.  1.
         21   -1    0    0  501  503 -0.00000000000E+00 -0.00000000000E+00 -0.82910182963E+02  0.82910182963E+02  0.00000000000E+00 0.  1.
          6    2    1    2  501    0  0.70172153489E+02 -0.21310053592E+03  0.57334511795E+03  0.63931930085E+03  0.17224568103E+03 0.  0.
         24    2    3    3    0    0 -0.12488012202E+02 -0.12460536840E+02  0.12020165312E+03  0.13687507316E+03  0.63048654335E+02 0.  0.
         -6    2    1    2    0  502 -0.70172153489E+02  0.21310053592E+03  0.34945445956E+03  0.44930064258E+03  0.17151291084E+03 0.  0.
        -24    2    5    5    0    0 -0.15705705409E+02  0.20942714161E+03  0.25308700917E+03  0.33844549707E+03  0.79911973124E+02 0.  0.
          5    1    3    3  501    0  0.82660165692E+02 -0.20063999908E+03  0.45314346483E+03  0.50244422769E+03  0.47000000000E+01 0. -1.
        -11    1    4    4    0    0  0.18527150043E+02 -0.14525097861E+02  0.91797047949E+02  0.94767778114E+02  0.00000000000E+00 0.  1.
         12    1    4    4    0    0 -0.31015162245E+02  0.20645610206E+01  0.28404605166E+02  0.42107295044E+02  0.00000000000E+00 0. -1.
         -5    1    5    5    0  502 -0.54466448081E+02  0.36733943064E+01  0.96367450389E+02  0.11085514551E+03  0.47000000000E+01 0.  1.
         11    1    6    6    0    0 -0.47488098539E+02  0.14577989522E+03  0.16543422051E+03  0.22555571079E+03  0.00000000000E+00 0. -1.
        -12    1    6    6    0    0  0.31782393130E+02  0.63647246389E+02  0.87652788659E+02  0.11288978628E+03  0.00000000000E+00 0.  1.
</event>
<event>
12    1  0.1039610E+000  0.1921953E+03  0.7818608E-02  0.1156686E+00
         21   -1    0    0  503  502  0.00000000000E+00  0.00000000000E+00  0.31830256687E+03  0.31830256687E+03  0.00000000000E+00 0.  1.
         21   -1    0    0  501  503 -0.00000000000E+00 -0.00000000000E+00 -0.13195198951E+03  0.13195198951E+03  0.00000000000E+00 0.  1.
          6    2    1    2  501    0 -0.52341371970E+02  0.75385861155E+02  0.17240055599E+03  0.25755368403E+03  0.16789669791E+03 0.  0.
         24    2    3    3    0    0 -0.77002254418E+01  0.36152166012E+02  0.13315057517E+02  0.87664306428E+02  0.78367514224E+02 0.  0.
         -6    2    1    2    0  502  0.52341371970E+02 -0.75385861155E+02  0.13950021374E+02  0.19270087235E+03  0.16886792421E+03 0.  0.
        -24    2    5    5    0    0 -0.36357909111E+02 -0.38562563422E+02  0.12026788538E+02  0.96527557214E+02  0.79774411978E+02 0.  0.
          5    1    3    3  501    0 -0.44641146528E+02  0.39233695143E+02  0.15908549847E+03  0.16988937760E+03  0.47000000000E+01 0. -1.
        -11    1    4    4    0    0 -0.15264775109E+02 -0.10830377543E+02  0.31565307671E+02  0.36697126389E+02  0.00000000000E+00 0.  1.
         12    1    4    4    0    0  0.75645496669E+01  0.46982543555E+02 -0.18250250153E+02  0.50967180040E+02  0.00000000000E+00 0. -1.
         -5    1    5    5    0  502  0.88699281081E+02 -0.36823297733E+02  0.19232328350E+01  0.96173315139E+02  0.47000000000E+01 0.  1.
         11    1    6    6    0    0 -0.24896648655E+02 -0.13642725289E+02  0.45266169859E+02  0.53432136409E+02  0.00000000000E+00 0. -1.
        -12    1    6    6    0    0 -0.11461260456E+02 -0.24919838133E+02 -0.33239381320E+02  0.43095420805E+02  0.00000000000E+00 0.  1.
</event>
<event>
12    1  0.1039610E+000  0.2230839E+03  0.7818608E-02  0.1131700E+00
         21   -1    0    0  503  502  0.00000000000E+00  0.00000000000E+00  0.89901427603E+02  0.89901427603E+02  0.00000000000E+00 0.  1.
         21   -1    0    0  501  503 -0.00000000000E+00 -0.00000000000E+00 -0.16078385727E+04  0.16078385727E+04  0.00000000000E+00 0.  1.
          6    2    1    2  501    0 -0.25932286008E+02 -0.13867561519E+03 -0.14464638449E+04  0.14634861645E+04  0.17213567066E+03 0.  0.
         24    2    3    3    0    0  0.29343496144E+02 -0.13975201388E+03 -0.11636149509E+04  0.11752464073E+04  0.82539068515E+02 0.  0.
         -6    2    1    2    0  502  0.25932286008E+02  0.13867561519E+03 -0.71473300168E+02  0.23425383586E+03  0.17280919326E+03 0.  0.
        -24    2    5    5    0    0  0.56623238452E+02  0.14056954396E+03 -0.17927178633E+02  0.17232808468E+03  0.80059960123E+02 0.  0.
          5    1    3    3  501    0 -0.55275782152E+02  0.10763986872E+01 -0.28284889405E+03  0.28823975714E+03  0.47000000000E+01 0. -1.
        -11    1    4    4    0    0  0.45053743258E+01  0.99311999272E+01 -0.41058004008E+02  0.42481605701E+02  0.00000000000E+00 0.  1.
         12    1    4    4    0    0  0.24838121818E+02 -0.14968321381E+03 -0.11225569469E+04  0.11327648016E+04  0.00000000000E+00 0. -1.
         -5    1    5    5    0  502 -0.30690952444E+02 -0.18939287659E+01 -0.53546121536E+02  0.61925751183E+02  0.47000000000E+01 0.  1.
         13    1    6    6    0    0  0.40203737233E+00  0.46875136660E+02 -0.39081675779E+02  0.61031282574E+02  0.00000000000E+00 0. -1.
        -14    1    6    6    0    0  0.56221201080E+02  0.93694407297E+02  0.21154497147E+02  0.11129680211E+03  0.00000000000E+00 0.  1.
</event>
<event>
12    1  0.1039610E+000  0.2193751E+03  0.7818608E-02  0.1134809E+00
         21   -1    0    0  501  502  0.00000000000E+00  0.00000000000E+00  0.57355384781E+02  0.57355384781E+02  0.00000000000E+00 0.  1.
         21   -1    0    0  502  503 -0.00000000000E+00 -0.00000000000E+00 -0.83827974103E+03  0.83827974103E+03  0.00000000000E+00 0.  1.
         -6    2    1    2    0  503 -0.10606196754E+02  0.13621360605E+03 -0.34748720475E+03  0.41094133562E+03  0.17163561977E+03 0.  0.
        -24    2    3    3    0    0  0.33142521892E+02  0.71512746621E+02 -0.94525929615E+02  0.14615529311E+03  0.78827144097E+02 0.  0.
          6    2    1    2  501    0  0.10606196754E+02 -0.13621360605E+03 -0.43343715150E+03  0.48469379019E+03  0.16850420785E+03 0.  0.
         24    2    5    5    0    0  0.62879869184E+02 -0.51923135625E+02 -0.27109644909E+03  0.29439399016E+03  0.80775285622E+02 0.  0.
          5    1    5    5  501    0 -0.52273672430E+02 -0.84290470429E+02 -0.16234070240E+03  0.19029980003E+03  0.47000000000E+01 0. -1.
        -11    1    6    6    0    0  0.23961413102E+02  0.20179062039E+01 -0.17999636216E+03  0.18159546154E+03  0.00000000000E+00 0.  1.
         12    1    6    6    0    0  0.38918456082E+02 -0.53941041829E+02 -0.91100086936E+02  0.11279852861E+03  0.00000000000E+00 0. -1.
         -5    1    3    3    0  503 -0.43748718645E+02  0.64700859433E+02 -0.25296127514E+03  0.26478604252E+03  0.47000000000E+01 0.  1.
         13    1    4    4    0    0  0.58702556426E+02  0.47015892699E+02 -0.72471611356E+02  0.10444433326E+03  0.00000000000E+00 0. -1.
        -14    1    4    4    0    0 -0.25560034534E+02  0.24496853922E+02 -0.22054318259E+02  0.41710959847E+02  0.00000000000E+00 0.  1.
</event>
<event>
12    1  0.1039610E+000  0.2260029E+03  0.7818608E-02  0.1129842E+00
         21   -1    0    0  503  502  0.00000000000E+00  0.00000000000E+00  0.25330147796E+03  0.25330147796E+03  0.00000000000E+00 0. -1.
         21   -1    0    0  501  503 -0.00000000000E+00 -0.00000000000E+00 -0.23469928624E+03  0.23469928624E+03  0.00000000000E+00 0. -1.
          6    2    1    2  501    0 -0.14042702734E+03 -0.38138322755E+02 -0.84698599796E+02  0.23950862146E+03  0.17034155476E+03 0.  0.
         24    2    3    3    0    0 -0.15996845600E+03 -0.32209520400E+02 -0.10480991197E+03  0.21046429312E+03  0.81748033067E+02 0.  0.
         -6    2    1    2    0  502  0.14042702734E+03  0.38138322755E+02  0.10330079152E+03  0.24849214273E+03  0.17292486750E+03 0.  0.
        -24    2    5    5    0    0  0.52711506284E+02  0.38064121539E+02  0.12239319291E+03  0.15859982977E+03  0.77113112302E+02 0.  0.
          5    1    3    3  501    0  0.19541428665E+02 -0.59288023555E+01  0.20111312176E+02  0.29044328346E+02  0.47000000000E+01 0. -1.
        -13    1    4    4    0    0 -0.81692959270E+02 -0.57822172421E+02 -0.60299278444E+02  0.11684667817E+03  0.00000000000E+00 0.  1.
         14    1    4    4    0    0 -0.78275496731E+02  0.25612652021E+02 -0.44510633528E+02  0.93617614951E+02  0.00000000000E+00 0. -1.
         -5    1    5    5    0  502  0.87715521052E+02  0.74201216910E-01 -0.19092401387E+02  0.89892312964E+02  0.47000000000E+01 0.  1.
         13    1    6    6    0    0  0.18165138701E+02 -0.22671933092E+02  0.22750886252E+02  0.36899751210E+02  0.00000000000E+00 0. -1.
        -14    1    6    6    0    0  0.34546367583E+02  0.60736054630E+02  0.99642306654E+02  0.12170007856E+03  0.00000000000E+00 0.  1.
</event>
<event>
12    1  0.1039610E+000  0.4092818E+03  0.7818608E-02  0.1040613E+00
         21   -1    0    0  503  502  0.00000000000E+00  0.00000000000E+00  0.32864546740E+03  0.32864546740E+03  0.00000000000E+00 0. -1.
         21   -1    0    0  501  503 -0.00000000000E+00 -0.00000000000E+00 -0.12485465283E+04  0.12485465283E+04  0.00000000000E+00 0.  1.
          6    2    1    2  501    0  0.34505053001E+03  0.13642256671E+03 -0.10665901115E+04  0.11424211521E+04  0.17274442947E+03 0.  0.
         24    2    3    3    0    0  0.25089805126E+03  0.13166866418E+03 -0.58808471687E+03  0.65469500813E+03  0.49954481374E+02 0.  0.
         -6    2    1    2    0  502 -0.34505053001E+03 -0.13642256671E+03  0.14668905059E+03  0.43477084357E+03  0.17273396853E+03 0.  0.
        -24    2    5    5    0    0 -0.13393875553E+03 -0.15806680425E+01  0.34315538613E+02  0.16017948326E+03  0.80856798862E+02 0.  0.
          5    1    3    3  501    0  0.94152478750E+02  0.47539025262E+01 -0.47850539460E+03  0.48772614396E+03  0.47000000000E+01 0. -1.
        -13    1    4    4    0    0 -0.39675452295E+00  0.70715378017E+01 -0.11503447066E+02  0.13509010157E+02  0.00000000000E+00 0.  1.
         14    1    4    4    0    0  0.25129480579E+03  0.12459712638E+03 -0.57658126980E+03  0.64118599798E+03  0.00000000000E+00 0. -1.
         -5    1    5    5    0  502 -0.21111177448E+03 -0.13484189867E+03  0.11237351198E+03  0.27459136030E+03  0.47000000000E+01 0.  1.
         13    1    6    6    0    0  0.90621683743E+01 -0.52796207899E+01 -0.52937149452E+01  0.11748221536E+02  0.00000000000E+00 0. -1.
        -14    1    6    6    0    0 -0.14300092391E+03  0.36989527474E+01  0.39609253559E+02  0.14843126173E+03  0.00000000000E+00 0.  1.
</event>
<event>
12    1  0.1039610E+000  0.2003155E+03  0.7818608E-02  0.1149985E+00
         21   -1    0    0  501  502  0.00000000000E+00  0.00000000000E+00  0.13375115622E+03  0.13375115622E+03  0.00000000000E+00 0. -1.
         21   -1    0    0  502  503 -0.00000000000E+00 -0.00000000000E+00 -0.51889114593E+03  0.51889114593E+03  0.00000000000E+00 0.  1.
         -6    2    1    2    0  503 -0.70764738804E+02 -0.73091769009E+02 -0.40691628926E+03  0.45354953933E+03  0.17255799953E+03 0.  0.
        -24    2    3    3    0    0 -0.80469854867E+02 -0.10776490108E+03 -0.27178556366E+03  0.31362520847E+03  0.80029415353E+02 0.  0.
          6    2    1    2  501    0  0.70764738804E+02  0.73091769009E+02  0.21776299558E+02  0.19909276282E+03  0.16974588664E+03 0.  0.
         24    2    5    5    0    0 -0.85909596896E+01  0.85207921840E+02  0.22467454025E+02  0.11867699486E+03  0.79026882045E+02 0.  0.
          5    1    5    5  501    0  0.79355698494E+02 -0.12116152831E+02 -0.69115446720E+00  0.80415767965E+02  0.47000000000E+01 0. -1.
        -13    1    6    6    0    0  0.21365900265E+02  0.99461933709E+01 -0.16517512133E+02  0.28779448636E+02  0.00000000000E+00 0.  1.
         14    1    6    6    0    0 -0.29956859955E+02  0.75261728469E+02  0.38984966159E+02  0.89897546223E+02  0.00000000000E+00 0. -1.
         -5    1    3    3    0  503  0.97051160630E+01  0.34673132075E+02 -0.13513072560E+03  0.13992433086E+03  0.47000000000E+01 0.  1.
         11    1    4    4    0    0  0.67305922720E+01  0.65823029914E+01 -0.52696645247E+01  0.10788741780E+02  0.00000000000E+00 0. -1.
        -12    1    4    4    0    0 -0.87200447139E+02 -0.11434720408E+03 -0.26651589914E+03  0.30283646669E+03  0.00000000000E+00 0.  1.
</event>
<event>
12    1  0.1039610E+000  0.2451444E+03  0.7818608E-02  0.1116523E+00
         21   -1    0    0  503  502  0.00000000000E+00  0.00000000000E+00  0.59940634043E+03  0.59940634043E+03  0.00000000000E+00 0.  1.
         21   -1    0    0  501  503 -0.00000000000E+00 -0.00000000000E+00 -0.14430178617E+03  0.14430178617E+03  0.00000000000E+00 0.  1.
          6    2    1    2  501    0  0.89182622468E+02  0.14903659379E+03  0.43341759216E+03  0.49760629998E+03  0.17203422378E+03 0.  0.
         24    2    3    3    0    0 -0.17081885250E+02  0.38375016898E+02  0.14336904112E+03  0.16944721941E+03  0.79957773168E+02 0.  0.
         -6    2    1    2    0  502 -0.89182622468E+02 -0.14903659379E+03  0.21686962102E+02  0.24610182662E+03  0.17300386788E+03 0.  0.
        -24    2    5    5    0    0 -0.11015629404E+03 -0.10582929289E+03  0.62310706672E+02  0.18302136710E+03  0.79246124820E+02 0.  0.
          5    1    3    3  501    0  0.10626450772E+03  0.11066157689E+03  0.29004855104E+03  0.32815908057E+03  0.47000000000E+01 0. -1.
        -11    1    4    4    0    0 -0.16470982183E+02  0.58108440508E+02  0.65422567741E+02  0.89039297404E+02  0.00000000000E+00 0.  1.
         12    1    4    4    0    0 -0.61090306684E+00 -0.19733423610E+02  0.77946473375E+02  0.80407922007E+02  0.00000000000E+00 0. -1.
         -5    1    5    5    0  502  0.20973671570E+02 -0.43207300895E+02 -0.40623744570E+02  0.63080459515E+02  0.47000000000E+01 0.  1.
         11    1    6    6    0    0 -0.92850549531E+02 -0.11812200554E+03  0.59540425965E+02  0.16161403115E+03  0.00000000000E+00 0. -1.
        -12    1    6    6    0    0 -0.17305744508E+02  0.12292712648E+02  0.27702807068E+01  0.21407335948E+02  0.00000000000E+00 0.  1.
</event>
<event>
12    1  0.1039610E+000  0.1819871E+03  0.7818608E-02  0.1166580E+00
         21   -1    0    0  501  502  0.00000000000E+00  0.00000000000E+00  0.11986697285E+03  0.11986697285E+03  0.00000000000E+00 0. -1.
         21   -1    0    0  502  503 -0.00000000000E+00 -0.00000000000E+00 -0.31401271652E+03  0.31401271652E+03  0.00000000000E+00 0. -1.
         -6    2    1    2    0  503  0.15589044531E+02  0.59689136800E+02 -0.17048346389E+02  0.17994504398E+03  0.16817776719E+03 0.  0.
        -24    2    3    3    0    0  0.63659265403E+02  0.30259121573E+02  0.26194574264E+02  0.10874875111E+03  0.78562195984E+02 0.  0.
          6    2    1    2  501    0 -0.15589044531E+02 -0.59689136800E+02 -0.17709739727E+03  0.25393464539E+03  0.17121187064E+03 0.  0.
         24    2    5    5    0    0 -0.59453487203E+02 -0.36443338922E+02 -0.17435799183E+03  0.20399417291E+03  0.79687384018E+02 0.  0.
          5    1    5    5  501    0  0.43864442671E+02 -0.23245797878E+02 -0.27394054378E+01  0.49940472485E+02  0.47000000000E+01 0. -1.
        -13    1    6    6    0    0 -0.28166702324E+02  0.15836994811E+02 -0.19889742043E+02  0.37944371954E+02  0.00000000000E+00 0.  1.
         14    1    6    6    0    0 -0.31286784879E+02 -0.52280333733E+02 -0.15446824979E+03  0.16604980095E+03  0.00000000000E+00 0. -1.
         -5    1    3    3    0  503 -0.48070220872E+02  0.29430015227E+02 -0.43242920653E+02  0.71196292864E+02  0.47000000000E+01 0.  1.
         11    1    4    4    0    0 -0.72116022519E+01 -0.47812746083E+01 -0.16695128307E+02  0.18804124630E+02  0.00000000000E+00 0. -1.
        -12    1    4    4    0    0  0.70870867655E+02  0.35040396182E+02  0.42889702570E+02  0.89944626484E+02  0.00000000000E+00 0.  1.
</event>
<event>
12    1  0.1039610E+000  0.1979044E+03  0.7818608E-02  0.1151796E+00
         21   -1    0    0  503  502  0.00000000000E+00  0.00000000000E+00  0.25394683338E+03  0.25394683338E+03  0.00000000000E+00 0. -1.
         21   -1    0    0  501  503 -0.00000000000E+00 -0.00000000000E+00 -0.29348829597E+03  0.29348829597E+03  0.00000000000E+00 0. -1.
          6    2    1    2  501    0 -0.65358049150E+02  0.75040492346E+02  0.16948827321E+03  0.25958173058E+03  0.16956901255E+03 0.  0.
         24    2    3    3    0    0  0.99533342060E+01  0.53013320878E+02  0.33886445674E+02  0.10284326569E+03  0.80740108030E+02 0.  0.
         -6    2    1    2    0  502  0.65358049150E+02 -0.75040492346E+02 -0.20902973580E+03  0.28785339877E+03  0.17106548061E+03 0.  0.
        -24    2    5    5    0    0  0.89720759354E+02 -0.18874973452E+02 -0.18658600435E+03  0.22247818755E+03  0.79222014831E+02 0.  0.
          5    1    3    3  501    0 -0.75311383356E+02  0.22027171468E+02  0.13560182754E+03  0.15673846489E+03  0.47000000000E+01 0. -1.
        -13    1    4    4    0    0 -0.21915112917E+02  0.45895480621E+02  0.45444294045E+02  0.68204480621E+02  0.00000000000E+00 0.  1.
         14    1    4    4    0    0  0.31868447123E+02  0.71178402573E+01 -0.11557848372E+02  0.34638785067E+02  0.00000000000E+00 0. -1.
         -5    1    5    5    0  502 -0.24362710204E+02 -0.56165518893E+02 -0.22443731442E+02  0.65375211220E+02  0.47000000000E+01 0.  1.
         11    1    6    6    0    0  0.64249605068E+02  0.14989954046E+02 -0.15838673543E+03  0.17157817004E+03  0.00000000000E+00 0. -1.
        -12    1    6    6    0    0  0.25471154286E+02 -0.33864927499E+02 -0.28199268928E+02  0.50900017517E+02  0.00000000000E+00 0.  1.
</event>
<event>
12    1  0.1039610E+000  0.1807070E+03  0.7818608E-02  0.1167228E+00
         21   -1    0    0  503  502  0.00000000000E+00  0.00000000000E+00  0.48741371890E+02  0.48741371890E+02  0.00000000000E+00 0.  1.
         21   -1    0    0  501  503 -0.00000000000E+00 -0.00000000000E+00 -0.10196169719E+04  0.10196169719E+04  0.00000000000E+00 0.  1.
          6    2    1    2  501    0  0.25339197871E+02  0.46868558651E+02 -0.17149773281E+03  0.24880968431E+03  0.17220932003E+03 0.  0.
         24    2    3    3    0    0 -0.11088049270E+02  0.25046107974E+02 -0.14923433565E+02  0.86511302083E+02  0.80692280656E+02 0.  0.
         -6    2    1    2    0  502 -0.25339197871E+02 -0.46868558651E+02 -0.79937786717E+03  0.81954865946E+03  0.17267395274E+03 0.  0.
        -24    2    5    5    0    0 -0.81309167414E+02 -0.13460015118E+02 -0.48660132169E+03  0.50001771311E+03  0.80277733143E+02 0.  0.
          5    1    3    3  501    0  0.36427247141E+02  0.21822450677E+02 -0.15657429925E+03  0.16229838223E+03  0.47000000000E+01 0. -1.
        -11    1    4    4    0    0 -0.40277074683E+01  0.47895977277E+02 -0.31450775088E+02  0.57440389278E+02  0.00000000000E+00 0.  1.
         12    1    4    4    0    0 -0.70603418014E+01 -0.22849869303E+02  0.16527341523E+02  0.29070912805E+02  0.00000000000E+00 0. -1.
         -5    1    5    5    0  502  0.55969969543E+02 -0.33408543533E+02 -0.31277654548E+03  0.31953094635E+03  0.47000000000E+01 0.  1.
         11    1    6    6    0    0 -0.94167849577E+02 -0.19146302471E+02 -0.35879859579E+03  0.37144393538E+03  0.00000000000E+00 0. -1.
        -12    1    6    6    0    0  0.12858682163E+02  0.56862873524E+01 -0.12780272590E+03  0.12857377773E+03  0.00000000000E+00 0.  1.
</event>
<event>
12    1  0.1039610E+000  0.3711489E+03  0.7818608E-02  0.1054276E+00
         21   -1    0    0  501  502  0.00000000000E+00  0.00000000000E+00  0.10690126370E+04  0.10690126370E+04  0.00000000000E+00 0.  1.
         21   -1    0    0  502  503 -0.00000000000E+00 -0.00000000000E+00 -0.14497877004E+03  0.14497877004E+03  0.00000000000E+00 0.  1.
         -6    2    1    2    0  503 -0.32523824311E+03 -0.48408053659E+02  0.66504162731E+03  0.76159822148E+03  0.17212852893E+03 0.  0.
        -24    2    3    3    0    0 -0.29328903548E+03 -0.80262216339E+02  0.49896858350E+03  0.58944193950E+03  0.77534966377E+02 0.  0.
          6    2    1    2  501    0  0.32523824311E+03  0.48408053659E+02  0.25899223970E+03  0.45239318561E+03  0.17163729117E+03 0.  0.
         24    2    5    5    0    0  0.11063387460E+03  0.42142907705E+02  0.16585502125E+03  0.21831858533E+03  0.78353288033E+02 0.  0.
          5    1    5    5  501    0  0.21460436851E+03  0.62651459541E+01  0.93137218447E+02  0.23407460028E+03  0.47000000000E+01 0. -1.
        -11    1    6    6    0    0  0.18828534414E+02  0.39804355300E+02  0.26397715261E+02  0.51339456366E+02  0.00000000000E+00 0.  1.
         12    1    6    6    0    0  0.91805340190E+02  0.23385524054E+01  0.13945730599E+03  0.16697912896E+03  0.00000000000E+00 0. -1.
         -5    1    3    3    0  503 -0.31949207629E+02  0.31854162680E+02  0.16607304381E+03  0.17215628199E+03  0.47000000000E+01 0.  1.
         13    1    4    4    0    0 -0.11986889553E+03 -0.21995116948E+02  0.27100013116E+03  0.29714206766E+03  0.00000000000E+00 0. -1.
        -14    1    4    4    0    0 -0.17342013995E+03 -0.58267099391E+02  0.22796845235E+03  0.29229987184E+03  0.00000000000E+00 0.  1.
</event>
<event>
12    1  0.1039610E+000  0.2254069E+03  0.7818608E-02  0.1130099E+00
         21   -1    0    0  503  502  0.00000000000E+00  0.00000000000E+00  0.71679258882E+02  0.71679258882E+02  0.00000000000E+00 0. -1.
         21   -1    0    0  501  503 -0.00000000000E+00 -0.00000000000E+00 -0.99387029651E+03  0.99387029651E+03  0.00000000000E+00 0. -1.
          6    2    1    2  501    0 -0.45780958277E+02  0.13773195225E+03 -0.17492188292E+03  0.28531728591E+03  0.17245956542E+03 0.  0.
         24    2    3    3    0    0 -0.27741948005E+02  0.16913284946E+03 -0.14097457978E+03  0.23545816812E+03  0.78684053921E+02 0.  0.
         -6    2    1    2    0  502  0.45780958277E+02 -0.13773195225E+03 -0.74726915471E+03  0.78023226948E+03  0.17112924340E+03 0.  0.
        -24    2    5    5    0    0  0.91616291280E+01 -0.11044293115E+03 -0.28875215142E+03  0.31942254926E+03  0.79820946745E+02 0.  0.
          5    1    3    3  501    0 -0.18039010271E+02 -0.31400897212E+02 -0.33947303132E+02  0.49859117794E+02  0.47000000000E+01 0. -1.
        -13    1    4    4    0    0 -0.43925179359E+02  0.46986697784E+02 -0.36774519001E+02  0.74091405696E+02  0.00000000000E+00 0.  1.
         14    1    4    4    0    0  0.16183231353E+02  0.12214615168E+03 -0.10420006078E+03  0.16136676242E+03  0.00000000000E+00 0. -1.
         -5    1    5    5    0  502  0.36619329149E+02 -0.27289021102E+02 -0.45851700330E+03  0.46080972023E+03  0.47000000000E+01 0.  1.
         11    1    6    6    0    0 -0.21091326792E+02 -0.10070085119E+01 -0.28399129968E+02  0.35388821892E+02  0.00000000000E+00 0. -1.
        -12    1    6    6    0    0  0.30252955920E+02 -0.10943592263E+03 -0.26035302145E+03  0.28403372737E+03  0.00000000000E+00 0.  1.
</event>
<event>
12    1  0.1039610E+000  0.1890083E+03  0.7818608E-02  0.1159561E+00
         21   -1    0    0  503  502  0.00000000000E+00  0.00000000000E+00  0.18074930497E+03  0.18074930497E+03  0.00000000000E+00 0. -1.
         21   -1    0    0  501  503 -0.00000000000E+00 -0.00000000000E+00 -0.22301863262E+03  0.22301863262E+03  0.00000000000E+00 0. -1.
          6    2    1    2  501    0 -0.71786967486E+02 -0.20445575757E+02 -0.90422167137E+02  0.20872219201E+03  0.17267714052E+03 0.  0.
         24    2    3    3    0    0 -0.73697103223E+02 -0.71178842424E+02 -0.80108903501E+02  0.15670328802E+03  0.87411632091E+02 0.  0.
         -6    2    1    2    0  502  0.71786967486E+02  0.20445575757E+02  0.48152839486E+02  0.19504574558E+03  0.17364549130E+03 0.  0.
        -24    2    5    5    0    0  0.55635899355E+02 -0.26279371627E+02 -0.26663203752E+02  0.10524815076E+03  0.81118975173E+02 0.  0.
          5    1    3    3  501    0  0.19101357366E+01  0.50733266667E+02 -0.10313263637E+02  0.52018903988E+02  0.47000000000E+01 0. -1.
        -13    1    4    4    0    0 -0.87350750079E+02 -0.32745480762E+02 -0.48761927337E+02  0.10526227058E+03  0.00000000000E+00 0.  1.
         14    1    4    4    0    0  0.13653646856E+02 -0.38433361662E+02 -0.31346976164E+02  0.51441017445E+02  0.00000000000E+00 0. -1.
         -5    1    5    5    0  502  0.16151068131E+02  0.46724947384E+02  0.74816043239E+02  0.89797594822E+02  0.47000000000E+01 0.  1.
         13    1    6    6    0    0 -0.14853731739E+02 -0.70373336041E+01  0.14031764668E+02  0.21611289423E+02  0.00000000000E+00 0. -1.
        -14    1    6    6    0    0  0.70489631094E+02 -0.19242038023E+02 -0.40694968420E+02  0.83636861334E+02  0.00000000000E+00 0.  1.
</event>
<event>
12    1  0.1039610E+000  0.2723687E+03  0.7818608E-02  0.1099940E+00
         21   -1    0    0  501  502  0.00000000000E+00  0.00000000000E+00  0.25096935312E+03  0.25096935312E+03  0.00000000000E+00 0. -1.
         21   -1    0    0  502  503 -0.00000000000E+00 -0.00000000000E+00 -0.34201288908E+03  0.34201288908E+03  0.00000000000E+00 0. -1.
         -6    2    1    2    0  503 -0.12261178455E+02 -0.21080202716E+03 -0.15483569878E+03  0.31330301602E+03  0.17203736534E+03 0.  0.
        -24    2    3    3    0    0  0.18547165657E+00 -0.19693954464E+03 -0.18211716258E+03  0.27993453107E+03  0.80071606298E+02 0.  0.
          6    2    1    2  501    0  0.12261178455E+02  0.21080202716E+03  0.63792162821E+02  0.27967922619E+03  0.17193951951E+03 0.  0.
         24    2    5    5    0    0 -0.37647448990E+02  0.15096972733E+03  0.90776275337E+02  0.19708983507E+03  0.79968005717E+02 0.  0.
          5    1    5    5  501    0  0.49908627446E+02  0.59832299839E+02 -0.26984112516E+02  0.82589391122E+02  0.47000000000E+01 0. -1.
        -11    1    6    6    0    0 -0.31927668913E+02  0.11609485868E+02  0.28484782882E+02  0.44334400415E+02  0.00000000000E+00 0.  1.
         12    1    6    6    0    0 -0.57197800771E+01  0.13936024146E+03  0.62291492455E+02  0.15275543465E+03  0.00000000000E+00 0. -1.
         -5    1    3    3    0  503 -0.12446650112E+02 -0.13862482527E+02  0.27281463798E+02  0.33368484949E+02  0.47000000000E+01 0.  1.
         13    1    4    4    0    0 -0.39718184610E+02 -0.10766594144E+03 -0.95275512721E+02  0.14915398908E+03  0.00000000000E+00 0. -1.
        -14    1    4    4    0    0  0.39903656266E+02 -0.89273603194E+02 -0.86841649860E+02  0.13078054198E+03  0.00000000000E+00 0.  1.
</event>
<event>
12    1  0.1039610E+000  0.2560967E+03  0.7818608E-02  0.1109728E+00
         21   -1    0    0  503  502  0.00000000000E+00  0.00000000000E+00  0.45410063494E+03  0.45410063494E+03  0.00000000000E+00 0. -1.
         21   -1    0    0  501  503 -0.00000000000E+00 -0.00000000000E+00 -0.23121257244E+03  0.23121257244E+03  0.00000000000E+00 0. -1.
          6    2    1    2  501    0 -0.13704381450E+03 -0.13169680589E+03  0.32213989730E+03  0.41065624482E+03  0.16952693649E+03 0.  0.
         24    2    3    3    0    0 -0.42324358549E+02  0.24943391893E+01  0.11396924768E+03  0.14544661430E+03  0.79800721424E+02 0.  0.
         -6    2    1    2    0  502  0.13704381450E+03  0.13169680589E+03 -0.99251834802E+02  0.27465696256E+03  0.17164050977E+03 0.  0.
        -24    2    5    5    0    0  0.75736281035E+02  0.30165199469E+02 -0.10280138683E+03  0.15590524644E+03  0.84216371375E+02 0.  0.
          5    1    3    3  501    0 -0.94719455955E+02 -0.13419114508E+03  0.20817064962E+03  0.26520963052E+03  0.47000000000E+01 0. -1.
        -13    1    4    4    0    0  0.72967799516E+01 -0.27640023531E+02  0.58697284787E+02  0.65288476318E+02  0.00000000000E+00 0.  1.
         14    1    4    4    0    0 -0.49621138501E+02  0.30134362720E+02  0.55271962894E+02  0.80158137983E+02  0.00000000000E+00 0. -1.
         -5    1    5    5    0  502  0.61307533470E+02  0.10153160642E+03  0.35495520298E+01  0.11875171612E+03  0.47000000000E+01 0.  1.
         13    1    6    6    0    0  0.54827687059E+02  0.28864760303E+02 -0.12505458824E+02  0.63211044573E+02  0.00000000000E+00 0. -1.
        -14    1    6    6    0    0  0.20908593976E+02  0.13004391653E+01 -0.90295928008E+02  0.92694201862E+02  0.00000000000E+00 0.  1.
</event>
<event>
12    1  0.1039610E+000  0.2172872E+03  0.7818608E-02  0.1136349E+00
         21   -1    0    0  503  502  0.00000000000E+00  0.00000000000E+00  0.28393717718E+03  0.28393717718E+03  0.00000000000E+00 0.  1.
         21   -1    0    0  501  503 -0.00000000000E+00 -0.00000000000E+00 -0.20150375390E+03  0.20150375390E+03  0.00000000000E+00 0. -1.
          6    2    1    2  501    0 -0.94819981639E+02 -0.93898119567E+02 -0.62522657366E+02  0.22610352689E+03  0.17148188362E+03 0.  0.
         24    2    3    3    0    0 -0.12510283497E+02  0.11488281974E+02 -0.11127146279E+02  0.82769062792E+02  0.80239744238E+02 0.  0.
         -6    2    1    2    0  502  0.94819981639E+02  0.93898119567E+02  0.14495608065E+03  0.25933740419E+03  0.16862958850E+03 0.  0.
        -24    2    5    5    0    0  0.13064075530E+03  0.92646268812E+02  0.10110225297E+03  0.20250481531E+03  0.71667263091E+02 0.  0.
          5    1    3    3  501    0 -0.82309698141E+02 -0.10538640154E+03 -0.51395511087E+02  0.14333446410E+03  0.47000000000E+01 0. -1.
        -13    1    4    4    0    0  0.27791310556E+02 -0.64262175449E+01  0.14249384772E+02  0.31885704959E+02  0.00000000000E+00 0.  1.
         14    1    4    4    0    0 -0.40301594053E+02  0.17914499519E+02 -0.25376531051E+02  0.50883357834E+02  0.00000000000E+00 0. -1.
         -5    1    5    5    0  502 -0.35820773660E+02  0.12518507546E+01  0.43853827686E+02  0.56832588879E+02  0.47000000000E+01 0.  1.
         11    1    6    6    0    0  0.45295065646E+02  0.22524620102E+01  0.55113386492E+01  0.45684695585E+02  0.00000000000E+00 0. -1.
        -12    1    6    6    0    0  0.85345689653E+02  0.90393806802E+02  0.95590914318E+02  0.15682011973E+03  0.00000000000E+00 0.  1.
</event>
<event>
12    1  0.1039610E+000  0.3897548E+03  0.7818608E-02  0.1047440E+00
         21   -1    0    0  501  502  0.00000000000E+00  0.00000000000E+00  0.12044811033E+04  0.12044811033E+04  0.00000000000E+00 0.  1.
         21   -1    0    0  502  503 -0.00000000000E+00 -0.00000000000E+00 -0.12597627258E+03  0.12597627258E+03  0.00000000000E+00 0.  1.
         -6    2    1    2    0  503 -0.25057840203E+03  0.24376012494E+03  0.52617112731E+03  0.65480136631E+03  0.17233757581E+03 0.  0.
        -24    2    3    3    0    0 -0.19717581676E+03  0.14178739316E+03  0.44522709575E+03  0.51400257233E+03  0.83603289413E+02 0.  0.
          6    2    1    2  501    0  0.25057840203E+03 -0.24376012494E+03  0.55233370338E+03  0.67565600955E+03  0.17096780185E+03 0.  0.
         24    2    5    5    0    0  0.13209616339E+03 -0.69677074142E+02  0.31878396985E+03  0.36115558430E+03  0.80658822162E+02 0.  0.
          5    1    5    5  501    0  0.11848223864E+03 -0.17408305080E+03  0.23354973353E+03  0.31450042525E+03  0.47000000000E+01 0. -1.
        -13    1    6    6    0    0  0.11805279053E+03 -0.23425722666E+02  0.20849244439E+03  0.24073704576E+03  0.00000000000E+00 0.  1.
         14    1    6    6    0    0  0.14043372860E+02 -0.46251351476E+02  0.11029152547E+03  0.12041853854E+03  0.00000000000E+00 0. -1.
         -5    1    3    3    0  503 -0.53402585273E+02  0.10197273179E+03  0.80944031562E+02  0.14079879398E+03  0.47000000000E+01 0.  1.
         11    1    4    4    0    0 -0.61007961508E+02  0.91789455331E+02  0.22077932270E+03  0.24676058196E+03  0.00000000000E+00 0. -1.
        -12    1    4    4    0    0 -0.13616785525E+03  0.49997937825E+02  0.22444777304E+03  0.26724199037E+03  0.00000000000E+00 0.  1.
</event>
<event>
12    1  0.1039610E+000  0.3551144E+03  0.7818608E-02  0.1060934E+00
         21   -1    0    0  501  502  0.00000000000E+00  0.00000000000E+00  0.36605055136E+03  0.36605055136E+03  0.00000000000E+00 0.  1.
         21   -1    0    0  502  503 -0.00000000000E+00 -0.00000000000E+00 -0.57970978223E+03  0.57970978223E+03  0.00000000000E+00 0.  1.
         -6    2    1    2    0  503 -0.27703652470E+03 -0.13009537670E+03  0.19715632588E+03  0.40273576976E+03  0.17219593592E+03 0.  0.
        -24    2    3    3    0    0 -0.76036549677E+02 -0.93231342977E+02  0.10744254661E+03  0.17950808524E+03  0.78775704666E+02 0.  0.
          6    2    1    2  501    0  0.27703652470E+03  0.13009537670E+03 -0.41081555676E+03  0.54302456383E+03  0.18008945609E+03 0.  0.
         24    2    5    5    0    0  0.24850308299E+03  0.57642872129E+02 -0.36580557433E+03  0.45296063524E+03  0.79266234334E+02 0.  0.
          5    1    5    5  501    0  0.28533441716E+02  0.72452504574E+02 -0.45009982423E+02  0.90063928589E+02  0.47000000000E+01 0. -1.
        -11    1    6    6    0    0  0.75029141190E+02 -0.89273249164E+01 -0.15167227216E+03  0.16945072234E+03  0.00000000000E+00 0.  1.
         12    1    6    6    0    0  0.17347394180E+03  0.66570197046E+02 -0.21413330217E+03  0.28350991291E+03  0.00000000000E+00 0. -1.
         -5    1    3    3    0  503 -0.20099997503E+03 -0.36864033726E+02  0.89713779275E+02  0.22322768452E+03  0.47000000000E+01 0.  1.
         11    1    4    4    0    0  0.16215221537E+02 -0.15892098824E+02  0.10844954259E+02  0.25161582768E+02  0.00000000000E+00 0. -1.
        -12    1    4    4    0    0 -0.92251771214E+02 -0.77339244153E+02  0.96597592348E+02  0.15434650247E+03  0.00000000000E+00 0.  1.
</event>
<event>
12    1  0.1039610E+000  0.3360310E+03  0.7818608E-02  0.1068591E+00
         21   -1    0    0  501  502  0.00000000000E+00  0.00000000000E+00  0.38236319145E+03  0.38236319145E+03  0.00000000000E+00 0.  1.
         21   -1    0    0  502  503 -0.00000000000E+00 -0.00000000000E+00 -0.60806214893E+03  0.60806214893E+03  0.00000000000E+00 0.  1.
         -6    2    1    2    0  503  0.28257324109E+03 -0.55216761089E+02  0.24279530291E+03  0.41388069132E+03  0.17161334519E+03 0.  0.
        -24    2    3    3    0    0  0.11165995357E+03 -0.54805952741E+02  0.17685698530E+03  0.23062820882E+03  0.80245496861E+02 0.  0.
          6    2    1    2  501    0 -0.28257324109E+03  0.55216761089E+02 -0.46849426038E+03  0.57654464907E+03  0.17326376732E+03 0.  0.
         24    2    5    5    0    0 -0.11864128745E+03  0.23030664883E+02 -0.32888020995E+03  0.35877457929E+03  0.77141685430E+02 0.  0.
          5    1    5    5  501    0 -0.16393195364E+03  0.32186096207E+02 -0.13961405043E+03  0.21777006978E+03  0.47000000000E+01 0. -1.
        -13    1    6    6    0    0 -0.52882399626E+02 -0.19099259104E+02 -0.78936448930E+02  0.96913842449E+02  0.00000000000E+00 0.  1.
         14    1    6    6    0    0 -0.65758887827E+02  0.42129923987E+02 -0.24994376102E+03  0.26186073684E+03  0.00000000000E+00 0. -1.
         -5    1    3    3    0  503  0.17091328752E+03 -0.41080834892E+00  0.65938317612E+02  0.18325248250E+03  0.47000000000E+01 0.  1.
         11    1    4    4    0    0  0.58269415606E+02 -0.42075486081E+02  0.37963303181E+02  0.81282739327E+02  0.00000000000E+00 0. -1.
        -12    1    4    4    0    0  0.53390537969E+02 -0.12730466659E+02  0.13889368212E+03  0.14934546949E+03  0.00000000000E+00 0.  1.
</event>
<event>
12    1  0.1039610E+000  0.1976301E+03  0.7818608E-02  0.1152249E+00
         21   -1    0    0  501  502  0.00000000000E+00  0.00000000000E+00  0.15678787586E+03  0.15678787586E+03  0.00000000000E+00 0.  1.
         21   -1    0    0  502  503 -0.00000000000E+00 -0.00000000000E+00 -0.42410776884E+03  0.42410776884E+03  0.00000000000E+00 0.  1.
         -6    2    1    2    0  503  0.27006617686E+01 -0.92439991794E+02 -0.32130833231E+03  0.37602397474E+03  0.17205388548E+03 0.  0.
        -24    2    3    3    0    0  0.54043228768E+01 -0.94160019827E+00 -0.63021942176E+02  0.10195607298E+03  0.79957378049E+02 0.  0.
          6    2    1    2  501    0 -0.27006617686E+01  0.92439991794E+02  0.53988439335E+02  0.20487166996E+03  0.17465739009E+03 0.  0.
         24    2    5    5    0    0 -0.19690892522E+02 -0.21723986565E+02  0.33998341970E+02  0.87637818671E+02  0.75265112530E+02 0.  0.
          5    1    5    5  501    0  0.16990230753E+02  0.11416397836E+03  0.19990097366E+02  0.11723385129E+03  0.47000000000E+01 0. -1.
        -11    1    6    6    0    0  0.25894149327E+02 -0.23435014540E+02  0.11459206912E+02  0.36756228029E+02  0.00000000000E+00 0.  1.
         12    1    6    6    0    0 -0.45585041849E+02  0.17110279752E+01  0.22539135057E+02  0.50881590642E+02  0.00000000000E+00 0. -1.
         -5    1    3    3    0  503 -0.27036611082E+01 -0.91498391596E+02 -0.25828639014E+03  0.27406790176E+03  0.47000000000E+01 0.  1.
         11    1    4    4    0    0 -0.12722900373E+02  0.36494366383E+01  0.15992329790E+02  0.20759219489E+02  0.00000000000E+00 0. -1.
        -12    1    4    4    0    0  0.18127223250E+02 -0.45910368366E+01 -0.79014271966E+02  0.81196853487E+02  0.00000000000E+00 0.  1.
</event>
<event>
12    1  0.1039610E+000  0.1760164E+03  0.7818608E-02  0.1171866E+00
         21   -1    0    0  503  502  0.00000000000E+00  0.00000000000E+00  0.19382329464E+03  0.19382329464E+03  0.00000000000E+00 0. -1.
         21   -1    0    0  501  503 -0.00000000000E+00 -0.00000000000E+00 -0.18233436745E+03  0.18233436745E+03  0.00000000000E+00 0. -1.
          6    2    1    2  501    0 -0.30881443468E+02  0.16827762057E+02  0.72587444471E+02  0.18983857901E+03  0.17185142379E+03 0.  0.
         24    2    3    3    0    0 -0.32700742218E+02  0.68653616754E+02  0.75442476146E+02  0.13769003858E+03  0.86511975364E+02 0.  0.
         -6    2    1    2    0  502  0.30881443468E+02 -0.16827762057E+02 -0.61098517290E+02  0.18631908308E+03  0.17246719914E+03 0.  0.
        -24    2    5    5    0    0 -0.43415378164E+02 -0.27775342645E+02 -0.87515973771E+01  0.94655801179E+02  0.78909856925E+02 0.  0.
          5    1    3    3  501    0  0.18192987497E+01 -0.51825854697E+02 -0.28550316749E+01  0.52148540429E+02  0.47000000000E+01 0. -1.
        -11    1    4    4    0    0  0.28746687370E+02  0.11451744160E+02  0.24718718774E+02  0.39604665595E+02  0.00000000000E+00 0.  1.
         12    1    4    4    0    0 -0.61447429588E+02  0.57201872594E+02  0.50723757371E+02  0.98085372982E+02  0.00000000000E+00 0. -1.
         -5    1    5    5    0  502  0.74296821632E+02  0.10947580588E+02 -0.52346919913E+02  0.91663281906E+02  0.47000000000E+01 0.  1.
         11    1    6    6    0    0 -0.29211378289E+02 -0.44507986791E+02  0.21386227033E+02  0.57372782890E+02  0.00000000000E+00 0. -1.
        -12    1    6    6    0    0 -0.14203999874E+02  0.16732644146E+02 -0.30137824411E+02  0.37283018289E+02  0.00000000000E+00 0.  1.
</event>
<event>
12    1  0.1039610E+000  0.5096614E+03  0.7818608E-02  0.1011329E+00
         21   -1    0    0  503  502  0.00000000000E+00  0.00000000000E+00  0.52477948758E+03  0.52477948758E+03  0.00000000000E+00 0.  1.
         21   -1    0    0  501  503 -0.00000000000E+00 -0.00000000000E+00 -0.64492657069E+03  0.64492657069E+03  0.00000000000E+00 0. -1.
          6    2    1    2  501    0  0.44366790102E+03 -0.18156752762E+03  0.22249761643E+03  0.55611139844E+03  0.17305121983E+03 0.  0.
         24    2    3    3    0    0  0.38434319115E+03 -0.19110041103E+03  0.14959207768E+03  0.46151961948E+03  0.79896894698E+02 0.  0.
         -6    2    1    2    0  502 -0.44366790102E+03  0.18156752762E+03 -0.34264469954E+03  0.61359465983E+03  0.17112873216E+03 0.  0.
        -24    2    5    5    0    0 -0.41614113534E+03  0.16205357293E+03 -0.35619639967E+03  0.57693056523E+03  0.80859117839E+02 0.  0.
          5    1    3    3  501    0  0.59324709869E+02  0.95328834137E+01  0.72905538751E+02  0.94591778965E+02  0.47000000000E+01 0. -1.
        -11    1    4    4    0    0  0.10842627879E+03 -0.27020730328E+02  0.66073100554E+02  0.12981537819E+03  0.00000000000E+00 0.  1.
         12    1    4    4    0    0  0.27591691236E+03 -0.16407968070E+03  0.83518977122E+02  0.33170424129E+03  0.00000000000E+00 0. -1.
         -5    1    5    5    0  502 -0.27526765681E+02  0.19513954689E+02  0.13551700131E+02  0.36664094601E+02  0.47000000000E+01 0.  1.
         11    1    6    6    0    0 -0.10911385393E+03  0.10436789018E+02 -0.10918115968E+03  0.15471032711E+03  0.00000000000E+00 0. -1.
        -12    1    6    6    0    0 -0.30702728141E+03  0.15161678391E+03 -0.24701523999E+03  0.42222023812E+03  0.00000000000E+00 0.  1.
</event>
<event>
12    1  0.1039610E+000  0.1861449E+03  0.7818608E-02  0.1162092E+00
         21   -1    0    0  501  502  0.00000000000E+00  0.00000000000E+00  0.53028912352E+03  0.53028912352E+03  0.00000000000E+00 0. -1.
         21   -1    0    0  502  503 -0.00000000000E+00 -0.00000000000E+00 -0.13947699437E+03  0.13947699437E+03  0.00000000000E+00 0. -1.
         -6    2    1    2    0  503  0.14039810293E+02  0.69654055839E+02 -0.48896436496E+02  0.19245983333E+03  0.17204976657E+03 0.  0.
        -24    2    3    3    0    0  0.73993077994E+02  0.12171638825E+02 -0.42625701379E+02  0.10903301095E+03  0.66694247694E+02 0.  0.
          6    2    1    2  501    0 -0.14039810293E+02 -0.69654055839E+02  0.43970856564E+03  0.47730628457E+03  0.17154842703E+03 0.  0.
         24    2    5    5    0    0  0.18737864405E+02 -0.10656681432E+03  0.34722973441E+03  0.37237129553E+03  0.79901813505E+02 0.  0.
          5    1    5    5  501    0 -0.32777674698E+02  0.36912758477E+02  0.92478831237E+02  0.10493498904E+03  0.47000000000E+01 0. -1.
        -11    1    6    6    0    0  0.45135756761E+02 -0.43586180031E+02  0.12465267701E+03  0.13955386600E+03  0.00000000000E+00 0.  1.
         12    1    6    6    0    0 -0.26397892356E+02 -0.62980634284E+02  0.22257705739E+03  0.23281742953E+03  0.00000000000E+00 0. -1.
         -5    1    3    3    0  503 -0.59953267701E+02  0.57482417014E+02 -0.62707351170E+01  0.83426822382E+02  0.47000000000E+01 0.  1.
         13    1    4    4    0    0  0.26179224688E+02 -0.71432966222E+01 -0.50050435503E+02  0.56933510219E+02  0.00000000000E+00 0. -1.
        -14    1    4    4    0    0  0.47813853307E+02  0.19314935447E+02  0.74247341236E+01  0.52099500729E+02  0.00000000000E+00 0.  1.
</event>
<event>
12    1  0.1039610E+000  0.2034840E+03  0.7818608E-02  0.1146866E+00
         21   -1    0    0  501  502  0.00000000000E+00  0.00000000000E+00  0.22514358025E+03  0.22514358025E+03  0.00000000000E+00 0.  1.
         21   -1    0    0  502  503 -0.00000000000E+00 -0.00000000000E+00 -0.19466505689E+03  0.19466505689E+03  0.00000000000E+00 0.  1.
         -6    2    1    2    0  503  0.29543669891E+02 -0.10479219247E+03  0.64908795952E+02  0.21343230689E+03  0.17171478038E+03 0.  0.
        -24    2    3    3    0    0  0.32118834997E+02 -0.55467216733E+02  0.10690432479E+03  0.14843000579E+03  0.80589703231E+02 0.  0.
          6    2    1    2  501    0 -0.29543669891E+02  0.10479219247E+03 -0.34430272589E+02  0.20637633025E+03  0.17190553796E+03 0.  0.
         24    2    5    5    0    0  0.47212420598E+02  0.65820332817E+02 -0.34725241819E+02  0.12016449649E+03  0.81684361584E+02 0.  0.
          5    1    5    5  501    0 -0.76756090490E+02  0.38971859656E+02  0.29496923012E+00  0.86211833754E+02  0.47000000000E+01 0. -1.
        -11    1    6    6    0    0  0.38754558367E+02 -0.59160713994E+01  0.17533684666E+01  0.39242706278E+02  0.00000000000E+00 0.  1.
         12    1    6    6    0    0  0.84578622314E+01  0.71736404216E+02 -0.36478610286E+02  0.80921790216E+02  0.00000000000E+00 0. -1.
         -5    1    3    3    0  503 -0.25751651060E+01 -0.49324975740E+02 -0.41995528833E+02  0.65002301106E+02  0.47000000000E+01 0.  1.
         11    1    4    4    0    0  0.50049462456E+02 -0.12791862547E+02  0.33237906504E+02  0.61427509052E+02  0.00000000000E+00 0. -1.
        -12    1    4    4    0    0 -0.17930627459E+02 -0.42675354186E+02  0.73666418281E+02  0.87002496736E+02  0.00000000000E+00 0.  1.
</event>
<event>
12    1  0.1039610E+000  0.2095760E+03  0.7818608E-02  0.1142031E+00
         21   -1    0    0  503  502  0.00000000000E+00  0.00000000000E+00  0.35212564190E+03  0.35212564190E+03  0.00000000000E+00 0. -1.
         21   -1    0    0  501  503 -0.00000000000E+00 -0.00000000000E+00 -0.16267864236E+03  0.16267864236E+03  0.00000000000E+00 0. -1.
          6    2    1    2  501    0  0.11360085514E+03  0.29532609505E+02  0.21955375931E+03  0.30307680707E+03  0.17284203321E+03 0.  0.
         24    2    3    3    0    0  0.14892622094E+03  0.35667763631E+02  0.18090656733E+03  0.25015028222E+03  0.79979803358E+02 0.  0.
         -6    2    1    2    0  502 -0.11360085514E+03 -0.29532609505E+02 -0.30106759771E+02  0.21172747719E+03  0.17362251669E+03 0.  0.
        -24    2    5    5    0    0 -0.61164190517E+02 -0.75382788140E+02 -0.56107676589E+02  0.13722928692E+03  0.79121317404E+02 0.  0.
          5    1    3    3  501    0 -0.35325365799E+02 -0.61351541253E+01  0.38647191983E+02  0.52926524854E+02  0.47000000000E+01 0. -1.
        -11    1    4    4    0    0  0.24025454458E+02  0.31195292818E+02  0.81298610182E+02  0.90331792705E+02  0.00000000000E+00 0.  1.
         12    1    4    4    0    0  0.12490076648E+03  0.44724708130E+01  0.99607957148E+02  0.15981848951E+03  0.00000000000E+00 0. -1.
         -5    1    5    5    0  502 -0.52436664626E+02  0.45850178635E+02  0.26000916818E+02  0.74498190269E+02  0.47000000000E+01 0.  1.
         13    1    6    6    0    0  0.12578802185E+00 -0.36204236490E+02  0.11432398425E+02  0.37966594477E+02  0.00000000000E+00 0. -1.
        -14    1    6    6    0    0 -0.61289978539E+02 -0.39178551650E+02 -0.67540075014E+02  0.99262692446E+02  0.00000000000E+00 0.  1.
</event>
<event>
12    1  0.1039610E+000  0.1735653E+03  0.7818608E-02  0.1174395E+00
         21   -1    0    0  503  502  0.00000000000E+00  0.00000000000E+00  0.18889769279E+02  0.18889769279E+02  0.00000000000E+00 0.  1.
         21   -1    0    0  501  503 -0.00000000000E+00 -0.00000000000E+00 -0.21414385755E+04  0.21414385755E+04  0.00000000000E+00 0.  1.
          6    2    1    2  501    0  0.22683555371E+02  0.12925108039E+02 -0.51358427662E+03  0.54211965610E+03  0.17159053072E+03 0.  0.
         24    2    3    3    0    0 -0.83304189516E+01  0.71293142909E+02 -0.33017339836E+03  0.34710597872E+03  0.79473136199E+02 0.  0.
         -6    2    1    2    0  502 -0.22683555371E+02 -0.12925108039E+02 -0.16089645296E+04  0.16182086887E+04  0.17073634794E+03 0.  0.
        -24    2    5    5    0    0  0.45687625408E+02 -0.36549913938E+02 -0.84356363219E+03  0.84938271775E+03  0.80175709168E+02 0.  0.
          5    1    3    3  501    0  0.31013974323E+02 -0.58368034870E+02 -0.18341087827E+03  0.19501367738E+03  0.47000000000E+01 0. -1.
        -11    1    4    4    0    0 -0.35450870337E+02  0.21799847788E+02 -0.75067820501E+02  0.85832250618E+02  0.00000000000E+00 0.  1.
         12    1    4    4    0    0  0.27120451386E+02  0.49493295121E+02 -0.25510557786E+03  0.26127372811E+03  0.00000000000E+00 0. -1.
         -5    1    5    5    0  502 -0.68371180780E+02  0.23624805899E+02 -0.76540089746E+03  0.76882597097E+03  0.47000000000E+01 0.  1.
         11    1    6    6    0    0  0.35976000978E+02  0.20118288839E+01 -0.13567866276E+03  0.14038169265E+03  0.00000000000E+00 0. -1.
        -12    1    6    6    0    0  0.97116244296E+01 -0.38561742822E+02 -0.70788496943E+03  0.70900102510E+03  0.00000000000E+00 0.  1.
</event>
<event>
12    1  0.1039610E+000  0.1739159E+03  0.7818608E-02  0.1173885E+00
         21   -1    0    0  503  502  0.00000000000E+00  0.00000000000E+00  0.21518688175E+02  0.21518688175E+02  0.00000000000E+00 0. -1.
         21   -1    0    0  501  503 -0.00000000000E+00 -0.00000000000E+00 -0.14284488897E+04  0.14284488897E+04  0.00000000000E+00 0. -1.
          6    2    1    2  501    0  0.25025463488E+02 -0.97286060168E+01 -0.79939267607E+03  0.81809253302E+03  0.17183079594E+03 0.  0.
         24    2    3    3    0    0  0.68285981350E+02 -0.43389956948E+02 -0.61976389250E+03  0.63022782415E+03  0.80834177639E+02 0.  0.
         -6    2    1    2    0  502 -0.25025463488E+02  0.97286060168E+01 -0.60753752547E+03  0.63187504487E+03  0.17159052385E+03 0.  0.
        -24    2    5    5    0    0 -0.45004982586E+02  0.25561753712E+02 -0.59615285660E+03  0.60356302561E+03  0.78811456912E+02 0.  0.
          5    1    3    3  501    0 -0.43260517862E+02  0.33661350932E+02 -0.17962878357E+03  0.18786470887E+03  0.47000000000E+01 0. -1.
        -11    1    4    4    0    0  0.47386619426E+01 -0.49025782256E+02 -0.31821215497E+03  0.32200148728E+03  0.00000000000E+00 0.  1.
         12    1    4    4    0    0  0.63547319407E+02  0.56358253081E+01 -0.30155173753E+03  0.30822633686E+03  0.00000000000E+00 0. -1.
         -5    1    5    5    0  502  0.19979519098E+02 -0.15833147695E+02 -0.11384668872E+02  0.28312019262E+02  0.47000000000E+01 0.  1.
         13    1    6    6    0    0 -0.42042256902E+01 -0.99863493629E+01 -0.94719097229E+01  0.14391655952E+02  0.00000000000E+00 0. -1.
        -14    1    6    6    0    0 -0.40800756896E+02  0.35548103075E+02 -0.58668094688E+03  0.58917136966E+03  0.00000000000E+00 0.  1.
</event>
<event>
12    1  0.1039610E+000  0.3128256E+03  0.7818608E-02  0.1079086E+00
         21   -1    0    0  501  502  0.00000000000E+00  0.00000000000E+00  0.98244863050E+02  0.98244863050E+02  0.00000000000E+00 0.  1.
         21   -1    0    0  502  503 -0.00000000000E+00 -0.00000000000E+00 -0.17365980532E+04  0.17365980532E+04  0.00000000000E+00 0. -1.
         -6    2    1    2    0  503  0.16486291796E+03 -0.20189339508E+03 -0.21970328892E+03  0.38226872573E+03  0.17297143930E+03 0.  0.
        -24    2    3    3    0    0  0.19375672471E+02 -0.10614770104E+03 -0.65210993543E+02  0.14940881965E+03  0.80173378322E+02 0.  0.
          6    2    1    2  501    0 -0.16486291796E+03  0.20189339508E+03 -0.14186499013E+04  0.14525741905E+04  0.17164938682E+03 0.  0.
         24    2    5    5    0    0 -0.29549647967E+02  0.21474190203E+02 -0.39135936643E+03  0.40080962398E+03  0.78433911317E+02 0.  0.
          5    1    5    5  501    0 -0.13531327000E+03  0.18041920488E+03 -0.10272905348E+04  0.10517645666E+04  0.47000000000E+01 0. -1.
        -11    1    6    6    0    0 -0.28508760156E+02  0.14410937130E+02 -0.49730962545E+02  0.59106625265E+02  0.00000000000E+00 0.  1.
         12    1    6    6    0    0 -0.10408878109E+01  0.70632530732E+01 -0.34162840389E+03  0.34170299872E+03  0.00000000000E+00 0. -1.
         -5    1    3    3    0  503  0.14548724549E+03 -0.95745694042E+02 -0.15449229538E+03  0.23285990608E+03  0.47000000000E+01 0.  1.
         11    1    4    4    0    0  0.50337194153E+02 -0.76118575397E+02 -0.42626907607E+02  0.10072201293E+03  0.00000000000E+00 0. -1.
        -12    1    4    4    0    0 -0.30961521683E+02 -0.30029125643E+02 -0.22584085936E+02  0.48686806728E+02  0.00000000000E+00 0.  1.
</event>
<event>
12    1  0.1039610E+000  0.3510513E+03  0.7818608E-02  0.1062694E+00
         21   -1    0    0  503  502  0.00000000000E+00  0.00000000000E+00  0.15568672259E+04  0.15568672259E+04  0.00000000000E+00 0.  1.
         21   -1    0    0  501  503 -0.00000000000E+00 -0.00000000000E+00 -0.17210567046E+03  0.17210567046E+03  0.00000000000E+00 0. -1.
          6    2    1    2  501    0 -0.29985155802E+03  0.52682012871E+01  0.55523417675E+02  0.35541508386E+03  0.18247827578E+03 0.  0.
         24    2    3    3    0    0 -0.79231973637E+02  0.16307610723E+01  0.63329552903E+02  0.13457745633E+03  0.88431297931E+02 0.  0.
         -6    2    1    2    0  502  0.29985155802E+03 -0.52682012871E+01  0.13292381377E+04  0.13735578125E+04  0.17276668249E+03 0.  0.
        -24    2    5    5    0    0  0.21955347090E+03 -0.68953443313E+02  0.93025342819E+03  0.96159363768E+03  0.79577505971E+02 0.  0.
          5    1    3    3  501    0 -0.22061958439E+03  0.36374402148E+01 -0.78061352285E+01  0.22083762753E+03  0.47000000000E+01 0. -1.
        -13    1    4    4    0    0 -0.46906815359E+02 -0.80775646510E+01 -0.14489879873E+02  0.49753924434E+02  0.00000000000E+00 0.  1.
         14    1    4    4    0    0 -0.32325158278E+02  0.97083257233E+01  0.77819432776E+02  0.84823531898E+02  0.00000000000E+00 0. -1.
         -5    1    5    5    0  502  0.80298087125E+02  0.63685242026E+02  0.39898470955E+03  0.41196417478E+03  0.47000000000E+01 0.  1.
         11    1    6    6    0    0  0.74683546030E+02 -0.31502077576E+02  0.48867968401E+03  0.49535628239E+03  0.00000000000E+00 0. -1.
        -12    1    6    6    0    0  0.14486992487E+03 -0.37451365737E+02  0.44157374418E+03  0.46623735530E+03  0.00000000000E+00 0.  1.
</event>
<event>
12    1  0.1039610E+000  0.1831266E+03  0.7818608E-02  0.1165037E+00
         21   -1    0    0  501  502  0.00000000000E+00  0.00000000000E+00  0.19565833028E+03  0.19565833028E+03  0.00000000000E+00 0. -1.
         21   -1    0    0  502  503 -0.00000000000E+00 -0.00000000000E+00 -0.41886118183E+03  0.41886118183E+03  0.00000000000E+00 0. -1.
         -6    2    1    2    0  503 -0.60865472481E+02  0.83993595599E+01  0.12487585758E+03  0.22165137851E+03  0.17251144543E+03 0.  0.
        -24    2    3    3    0    0 -0.33473298304E+02  0.14764232792E+02 -0.50857490885E+01  0.88598937620E+02  0.80532370103E+02 0.  0.
          6    2    1    2  501    0  0.60865472481E+02 -0.83993595599E+01 -0.34807870913E+03  0.39286813360E+03  0.17149760250E+03 0.  0.
         24    2    5    5    0    0  0.42975773984E+02 -0.50816989800E+02 -0.11398577797E+03  0.15424523636E+03  0.79809471600E+02 0.  0.
          5    1    5    5  501    0  0.17889698497E+02  0.42417630240E+02 -0.23409293116E+03  0.23862289724E+03  0.47000000000E+01 0. -1.
        -11    1    6    6    0    0  0.12814709652E+02 -0.24223426450E+02  0.56952077830E+01  0.27989758201E+02  0.00000000000E+00 0.  1.
         12    1    6    6    0    0  0.30161064332E+02 -0.26593563350E+02 -0.11968098575E+03  0.12625547815E+03  0.00000000000E+00 0. -1.
         -5    1    3    3    0  503 -0.27392174177E+02 -0.63648732319E+01  0.12996160667E+03  0.13305244088E+03  0.47000000000E+01 0.  1.
         13    1    4    4    0    0  0.21668343212E+02 -0.94638032395E+01  0.11262403799E+02  0.26190120440E+02  0.00000000000E+00 0. -1.
        -14    1    4    4    0    0 -0.55141641517E+02  0.24228036031E+02 -0.16348152887E+02  0.62408817181E+02  0.00000000000E+00 0.  1.
</event>
<event>
12    1  0.1039610E+000  0.2706193E+03  0.7818608E-02  0.1100974E+00
         21   -1    0    0  503  502  0.00000000000E+00  0.00000000000E+00  0.69522280654E+02  0.69522280654E+02  0.00000000000E+00 0. -1.
         21   -1    0    0  501  503 -0.00000000000E+00 -0.00000000000E+00 -0.18451323749E+04  0.18451323749E+04  0.00000000000E+00 0. -1.
          6    2    1    2  501    0  0.10685467211E+03  0.17802908530E+03 -0.15157423567E+04  0.15397109095E+04  0.17355839594E+03 0.  0.
         24    2    3    3    0    0  0.79432416491E+02  0.20046944263E+03 -0.13950892782E+04  0.14138744876E+04  0.79179960690E+02 0.  0.
         -6    2    1    2    0  502 -0.10685467211E+03 -0.17802908530E+03 -0.25986773757E+03  0.37494374607E+03  0.17302975328E+03 0.  0.
        -24    2    5    5    0    0 -0.61014284397E+02 -0.13479121170E+03 -0.26211971388E+03  0.31171387768E+03  0.81039394622E+02 0.  0.
          5    1    3    3  501    0  0.27422255623E+02 -0.22440357326E+02 -0.12065307849E+03  0.12583642195E+03  0.47000000000E+01 0. -1.
        -11    1    4    4    0    0 -0.10410682306E+02  0.71968499446E+02 -0.46985807566E+03  0.47545184665E+03  0.00000000000E+00 0.  1.
         12    1    4    4    0    0  0.89843098797E+02  0.12850094318E+03 -0.92523120255E+03  0.93842264091E+03  0.00000000000E+00 0. -1.
         -5    1    5    5    0  502 -0.45840387717E+02 -0.43237873602E+02  0.22519763070E+01  0.63229868393E+02  0.47000000000E+01 0.  1.
         13    1    6    6    0    0 -0.49449782260E+02 -0.20056730776E+02 -0.80755070385E+02  0.96793258071E+02  0.00000000000E+00 0. -1.
        -14    1    6    6    0    0 -0.11564502137E+02 -0.11473448092E+03 -0.18136464349E+03  0.21492061961E+03  0.00000000000E+00 0.  1.
</event>
<event>
12    1  0.1039610E+000  0.2982675E+03  0.7818608E-02  0.1086190E+00
         21   -1    0    0  501  502  0.00000000000E+00  0.00000000000E+00  0.95351446298E+03  0.95351446298E+03  0.00000000000E+00 0. -1.
         21   -1    0    0  502  503 -0.00000000000E+00 -0.00000000000E+00 -0.12535822361E+03  0.12535822361E+03  0.00000000000E+00 0. -1.
         -6    2    1    2    0  503  0.20128272556E+03  0.13724251145E+03  0.14012268060E+03  0.32897022674E+03  0.17098772443E+03 0.  0.
        -24    2    3    3    0    0  0.24472262735E+02  0.61175132746E+02  0.30826737722E+02  0.10757492643E+03  0.79251426037E+02 0.  0.
          6    2    1    2  501    0 -0.20128272556E+03 -0.13724251145E+03  0.68803355876E+03  0.74990245985E+03  0.17208509156E+03 0.  0.
         24    2    5    5    0    0 -0.21949867658E+03 -0.10617400288E+03  0.64176712933E+03  0.69108285777E+03  0.79233074545E+02 0.  0.
          5    1    5    5  501    0  0.18215951014E+02 -0.31068508576E+02  0.46266429433E+02  0.58819602081E+02  0.47000000000E+01 0. -1.
        -11    1    6    6    0    0 -0.19995283187E+02 -0.33623078331E+02  0.15830567194E+03  0.16306749681E+03  0.00000000000E+00 0.  1.
         12    1    6    6    0    0 -0.19950339339E+03 -0.72550924548E+02  0.48346145739E+03  0.52801536096E+03  0.00000000000E+00 0. -1.
         -5    1    3    3    0  503  0.17681046283E+03  0.76067378708E+02  0.10929594288E+03  0.22139530031E+03  0.47000000000E+01 0.  1.
         13    1    4    4    0    0  0.37289376646E+02 -0.12138670805E+01  0.21896386055E+02  0.43259944593E+02  0.00000000000E+00 0. -1.
        -14    1    4    4    0    0 -0.12817113911E+02  0.62388999827E+02  0.89303516672E+01  0.64314981842E+02  0.00000000000E+00 0.  1.
</event>
<event>
12    1  0.1039610E+000  0.5738326E+03  0.7818608E-02  0.9961387E-01
         21   -1    0    0  503  502  0.00000000000E+00  0.00000000000E+00  0.86982867212E+03  0.86982867212E+03  0.00000000000E+00 0.  1.
         21   -1    0    0  501  503 -0.00000000000E+00 -0.00000000000E+00 -0.76900885774E+03  0.76900885774E+03  0.00000000000E+00 0. -1.
          6    2    1    2  501    0  0.52038834092E+03 -0.17003540220E+03  0.63443103103E+03  0.85544522898E+03  0.17195273562E+03 0.  0.
         24    2    3    3    0    0  0.37047149667E+03 -0.13675706728E+03  0.54415175523E+03  0.67724605558E+03  0.81298596392E+02 0.  0.
         -6    2    1    2    0  502 -0.52038834092E+03  0.17003540220E+03 -0.53361121665E+03  0.78339230088E+03  0.17101609042E+03 0.  0.
        -24    2    5    5    0    0 -0.35553428335E+03  0.47860206656E+02 -0.35042796332E+03  0.50828898755E+03  0.82841483415E+02 0.  0.
          5    1    3    3  501    0  0.14991684424E+03 -0.33278334921E+02  0.90279275802E+02  0.17819917341E+03  0.47000000000E+01 0. -1.
        -13    1    4    4    0    0  0.20362197809E+03 -0.87316975571E+02  0.23850437415E+03  0.32553110554E+03  0.00000000000E+00 0.  1.
         14    1    4    4    0    0  0.16684951859E+03 -0.49440091712E+02  0.30564738108E+03  0.35171495004E+03  0.00000000000E+00 0. -1.
         -5    1    5    5    0  502 -0.16485405756E+03  0.12217519555E+03 -0.18318325333E+03  0.27510331333E+03  0.47000000000E+01 0.  1.
         11    1    6    6    0    0 -0.44712632485E+02  0.27890821770E+02 -0.80062466078E+02  0.95849444011E+02  0.00000000000E+00 0. -1.
        -12    1    6    6    0    0 -0.31082165087E+03  0.19969384887E+02 -0.27036549724E+03  0.41243954354E+03  0.00000000000E+00 0.  1.
</event>
<event>
12    1  0.1039610E+000  0.2255078E+03  0.7818608E-02  0.1129846E+00
         21   -1    0    0  501  502  0.00000000000E+00  0.00000000000E+00  0.17588686935E+04  0.17588686935E+04  0.00000000000E+00 0. -1.
         21   -1    0    0  502  503 -0.00000000000E+00 -0.00000000000E+00 -0.35244563809E+02  0.35244563809E+02  0.00000000000E+00 0. -1.
         -6    2    1    2    0  503 -0.27725314196E+02  0.14316558869E+03  0.12420859161E+04  0.12623869991E+04  0.17198381825E+03 0.  0.
        -24    2    3    3    0    0  0.26221279039E+02  0.61593928630E+02  0.91398018748E+03  0.91998426870E+03  0.80807821575E+02 0.  0.
          6    2    1    2  501    0  0.27725314196E+02 -0.14316558869E+03  0.48153821362E+03  0.53172625822E+03  0.17201361478E+03 0.  0.
         24    2    5    5    0    0 -0.39090047538E+02 -0.12906659978E+03  0.33413317679E+03  0.36920423221E+03  0.80501964335E+02 0.  0.
          5    1    5    5  501    0  0.66815361733E+02 -0.14098988915E+02  0.14740503683E+03  0.16252202600E+03  0.47000000000E+01 0. -1.
        -13    1    6    6    0    0 -0.28435119682E+02 -0.36660282148E+01  0.91302233068E+02  0.95697928700E+02  0.00000000000E+00 0.  1.
         14    1    6    6    0    0 -0.10654927856E+02 -0.12540057156E+03  0.24283094372E+03  0.27350630351E+03  0.00000000000E+00 0. -1.
         -5    1    3    3    0  503 -0.53946593234E+02  0.81571660061E+02  0.32810572861E+03  0.34240273041E+03  0.47000000000E+01 0.  1.
         13    1    4    4    0    0 -0.14625060664E+02  0.20709589471E+02  0.78174448316E+02  0.82182868440E+02  0.00000000000E+00 0. -1.
        -14    1    4    4    0    0  0.40846339702E+02  0.40884339159E+02  0.83580573916E+03  0.83780140026E+03  0.00000000000E+00 0.  1.
</event>
<event>
12    1  0.1039610E+000  0.2450724E+03  0.7818608E-02  0.1116823E+00
         21   -1    0    0  501  502  0.00000000000E+00  0.00000000000E+00  0.31797012072E+03  0.31797012072E+03  0.00000000000E+00 0.  1.
         21   -1    0    0  502  503 -0.00000000000E+00 -0.00000000000E+00 -0.22627127331E+03  0.22627127331E+03  0.00000000000E+00 0.  1.
         -6    2    1    2    0  503 -0.16757318187E+03  0.39582730877E+02  0.15914428592E+03  0.29221120469E+03  0.17439300599E+03 0.  0.
        -24    2    3    3    0    0 -0.26452682204E+02  0.63775816092E+02  0.31852805639E+02  0.10057219052E+03  0.65826021951E+02 0.  0.
          6    2    1    2  501    0  0.16757318187E+03 -0.39582730877E+02 -0.67445438503E+02  0.25203018934E+03  0.17123891293E+03 0.  0.
         24    2    5    5    0    0  0.47938756943E+02 -0.35465977866E+02 -0.85561223506E+02  0.13087072851E+03  0.79059879902E+02 0.  0.
          5    1    5    5  501    0  0.11963442492E+03 -0.41167530110E+01  0.18115785004E+02  0.12115946083E+03  0.47000000000E+01 0. -1.
        -11    1    6    6    0    0 -0.18138701464E+02 -0.88501311278E+01 -0.86702255552E+00  0.20201213822E+02  0.00000000000E+00 0.  1.
         12    1    6    6    0    0  0.66077458407E+02 -0.26615846738E+02 -0.84694200951E+02  0.11066951469E+03  0.00000000000E+00 0. -1.
         -5    1    3    3    0  503 -0.14112049966E+03 -0.24193085215E+02  0.12729148028E+03  0.19163901416E+03  0.47000000000E+01 0.  1.
         13    1    4    4    0    0 -0.42968759693E+02  0.30568400872E+02  0.16775074065E+01  0.52759411223E+02  0.00000000000E+00 0. -1.
        -14    1    4    4    0    0  0.16516077489E+02  0.33207415220E+02  0.30175298233E+02  0.47812779302E+02  0.00000000000E+00 0.  1.
</event>
<event>
12    1  0.1039610E+000  0.2093347E+03  0.7818608E-02  0.1142130E+00
         21   -1    0    0  503  502  0.00000000000E+00  0.00000000000E+00  0.92780955528E+02  0.92780955528E+02  0.00000000000E+00 0. -1.
         21   -1    0    0  501  503 -0.00000000000E+00 -0.00000000000E+00 -0.47659152167E+03  0.47659152167E+03  0.00000000000E+00 0. -1.
          6    2    1    2  501    0 -0.34737393051E+02  0.11501620438E+03 -0.22025397121E+03  0.30386316364E+03  0.17142227580E+03 0.  0.
         24    2    3    3    0    0 -0.61759767542E+02  0.13757196471E+03 -0.19919815923E+03  0.26257868393E+03  0.80791981359E+02 0.  0.
         -6    2    1    2    0  502  0.34737393051E+02 -0.11501620438E+03 -0.16355659493E+03  0.26550931355E+03  0.17119877947E+03 0.  0.
        -24    2    5    5    0    0  0.92993316095E+01 -0.75551214908E+02 -0.17308661814E+03  0.21736898008E+03  0.10721862003E+03 0.  0.
          5    1    3    3  501    0  0.27022374491E+02 -0.22555760330E+02 -0.21055811974E+02  0.41284479711E+02  0.47000000000E+01 0. -1.
        -11    1    4    4    0    0 -0.16623129343E+02 -0.19086784749E+01 -0.52833879850E+02  0.55420125791E+02  0.00000000000E+00 0.  1.
         12    1    4    4    0    0 -0.45136638199E+02  0.13948064319E+03 -0.14636427938E+03  0.20715855814E+03  0.00000000000E+00 0. -1.
         -5    1    5    5    0  502  0.25438061441E+02 -0.39464989473E+02  0.95300232104E+01  0.48140333468E+02  0.47000000000E+01 0.  1.
         11    1    6    6    0    0 -0.32155856405E+02 -0.15144597047E+02 -0.75390616152E+01  0.36334492853E+02  0.00000000000E+00 0. -1.
        -12    1    6    6    0    0  0.41455188015E+02 -0.60406617861E+02 -0.16554755653E+03  0.18103448723E+03  0.00000000000E+00 0.  1.
</event>
<event>
12    1  0.1039610E+000  0.2021055E+03  0.7818608E-02  0.1148185E+00
         21   -1    0    0  503  502  0.00000000000E+00  0.00000000000E+00  0.59749652374E+03  0.59749652374E+03  0.00000000000E+00 0.  1.
         21   -1    0    0  501  503 -0.00000000000E+00 -0.00000000000E+00 -0.53791282619E+03  0.53791282619E+03  0.00000000000E+00 0.  1.
          6    2    1    2  501    0  0.99051444564E+02  0.31866104467E+02  0.56039804003E+03  0.59572863914E+03  0.17326283771E+03 0.  0.
         24    2    3    3    0    0  0.33750304093E+01  0.63007312710E+02  0.27579988941E+03  0.29383139103E+03  0.79309489167E+02 0.  0.
         -6    2    1    2    0  502 -0.99051444564E+02 -0.31866104467E+02 -0.50081434248E+03  0.53968071079E+03  0.17208610254E+03 0.  0.
        -24    2    5    5    0    0 -0.48711585746E+02 -0.72067368909E+02 -0.24582045151E+03  0.27663277319E+03  0.92365970859E+02 0.  0.
          5    1    3    3  501    0  0.95676414154E+02 -0.31141208243E+02  0.28459815062E+03  0.30189724810E+03  0.47000000000E+01 0. -1.
        -13    1    4    4    0    0 -0.29241940280E+02  0.30419945415E+01  0.50685440530E+02  0.58594869091E+02  0.00000000000E+00 0.  1.
         14    1    4    4    0    0  0.32616970689E+02  0.59965318169E+02  0.22511444888E+03  0.23523652194E+03  0.00000000000E+00 0. -1.
         -5    1    5    5    0  502 -0.50339858818E+02  0.40201264442E+02 -0.25499389096E+03  0.26304793760E+03  0.47000000000E+01 0.  1.
         13    1    6    6    0    0 -0.11016347162E+02  0.18654131073E+02 -0.88860645045E+02  0.91463384743E+02  0.00000000000E+00 0. -1.
        -14    1    6    6    0    0 -0.37695238584E+02 -0.90721499982E+02 -0.15695980647E+03  0.18516938845E+03  0.00000000000E+00 0.  1.
</event>
<event>
12    1  0.1039610E+000  0.8451172E+03  0.7818608E-02  0.9496977E-01
         21   -1    0    0  503  502  0.00000000000E+00  0.00000000000E+00  0.13903639352E+04  0.13903639352E+04  0.00000000000E+00 0.  1.
         21   -1    0    0  501  503 -0.00000000000E+00 -0.00000000000E+00 -0.52062987745E+03  0.52062987745E+03  0.00000000000E+00 0.  1.
          6    2    1    2  501    0  0.59859282275E+03 -0.57083653857E+03  0.32374135938E+03  0.90500363548E+03  0.17336490775E+03 0.  0.
         24    2    3    3    0    0  0.31051956339E+03 -0.22512326625E+03  0.10641040793E+03  0.40524499186E+03  0.76140949909E+02 0.  0.
         -6    2    1    2    0  502 -0.59859282275E+03  0.57083653857E+03  0.54599269841E+03  0.10059901772E+04  0.17245430912E+03 0.  0.
        -24    2    5    5    0    0 -0.27242252943E+03  0.31368927795E+03  0.21493660316E+03  0.47482918271E+03  0.81547604087E+02 0.  0.
          5    1    3    3  501    0  0.28807325936E+03 -0.34571327232E+03  0.21733095145E+03  0.49975864362E+03  0.47000000000E+01 0. -1.
        -13    1    4    4    0    0  0.93752114988E+02 -0.87266945877E+02  0.69481172240E+02  0.14571414552E+03  0.00000000000E+00 0.  1.
         14    1    4    4    0    0  0.21676744840E+03 -0.13785632037E+03  0.36929235694E+02  0.25953084634E+03  0.00000000000E+00 0. -1.
         -5    1    5    5    0  502 -0.32617029332E+03  0.25714726062E+03  0.33105609525E+03  0.53116099451E+03  0.47000000000E+01 0.  1.
         11    1    6    6    0    0 -0.10861375108E+03  0.17531515498E+03  0.78478535854E+02  0.22066089613E+03  0.00000000000E+00 0. -1.
        -12    1    6    6    0    0 -0.16380877835E+03  0.13837412297E+03  0.13645806731E+03  0.25416828658E+03  0.00000000000E+00 0.  1.
</event>
<event>
12    1  0.1039610E+000  0.3735490E+03  0.7818608E-02  0.1053369E+00
         21   -1    0    0  503  502  0.00000000000E+00  0.00000000000E+00  0.28719891499E+04  0.28719891499E+04  0.00000000000E+00 0. -1.
         21   -1    0    0  501  503 -0.00000000000E+00 -0.00000000000E+00 -0.50131501567E+02  0.50131501567E+02  0.00000000000E+00 0. -1.
          6    2    1    2  501    0 -0.74122889429E+02  0.32452646637E+03  0.16708096136E+04  0.17120583021E+04  0.16949110501E+03 0.  0.
         24    2    3    3    0    0 -0.10397408749E+03  0.16208971170E+03  0.91099818527E+03  0.93449011219E+03  0.79185798646E+02 0.  0.
         -6    2    1    2    0  502  0.74122889429E+02 -0.32452646637E+03  0.11510480348E+04  0.12100623494E+04  0.16890139449E+03 0.  0.
        -24    2    5    5    0    0  0.76690964161E+02 -0.14532283284E+03  0.70973907064E+03  0.73372609310E+03  0.87316674092E+02 0.  0.
          5    1    3    3  501    0  0.29851198059E+02  0.16243675467E+03  0.75981142831E+03  0.77756818986E+03  0.47000000000E+01 0. -1.
        -13    1    4    4    0    0 -0.75516357965E+02  0.14041894917E+03  0.83992375085E+03  0.85492228235E+03  0.00000000000E+00 0.  1.
         14    1    4    4    0    0 -0.28457729523E+02  0.21670762529E+02  0.71074434420E+02  0.79567829845E+02  0.00000000000E+00 0. -1.
         -5    1    5    5    0  502 -0.25680747321E+01 -0.17920363352E+03  0.44130896413E+03  0.47633625633E+03  0.47000000000E+01 0.  1.
         11    1    6    6    0    0  0.15117555172E+02 -0.11560715125E+03  0.48503452320E+03  0.49885072175E+03  0.00000000000E+00 0. -1.
        -12    1    6    6    0    0  0.61573408988E+02 -0.29715681594E+02  0.22470454744E+03  0.23487537135E+03  0.00000000000E+00 0.  1.
</event>
<event>
12    1  0.1039610E+000  0.1829134E+03  0.7818608E-02  0.1165603E+00
         21   -1    0    0  501  502  0.00000000000E+00  0.00000000000E+00  0.10966675491E+04  0.10966675491E+04  0.00000000000E+00 0. -1.
         21   -1    0    0  502  503 -0.00000000000E+00 -0.00000000000E+00 -0.72812475600E+02  0.72812475600E+02  0.00000000000E+00 0. -1.
         -6    2    1    2    0  503  0.35452757098E+02  0.49692823660E+02  0.95835272169E+03  0.97519189958E+03  0.16980290671E+03 0.  0.
        -24    2    3    3    0    0  0.84121439245E+02  0.63110053551E+02  0.68667567379E+03  0.69882408120E+03  0.75975786214E+02 0.  0.
          6    2    1    2  501    0 -0.35452757098E+02 -0.49692823660E+02  0.65502351779E+02  0.19428812509E+03  0.17242692004E+03 0.  0.
         24    2    5    5    0    0  0.22610995582E+02 -0.66428264776E+02  0.77720756129E+02  0.13245889439E+03  0.81122569525E+02 0.  0.
          5    1    5    5  501    0 -0.58063752680E+02  0.16735441116E+02 -0.12218404350E+02  0.61829230704E+02  0.47000000000E+01 0. -1.
        -13    1    6    6    0    0 -0.17139315154E+02 -0.61918895904E+02  0.62568891584E+02  0.89680387979E+02  0.00000000000E+00 0.  1.
         14    1    6    6    0    0  0.39750310736E+02 -0.45093688714E+01  0.15151864545E+02  0.42778506407E+02  0.00000000000E+00 0. -1.
         -5    1    3    3    0  503 -0.48668682147E+02 -0.13417229891E+02  0.27167704790E+03  0.27636781838E+03  0.47000000000E+01 0.  1.
         11    1    4    4    0    0  0.75220759908E+02  0.10980537753E+02  0.44310662348E+03  0.44958004260E+03  0.00000000000E+00 0. -1.
        -12    1    4    4    0    0  0.89006793370E+01  0.52129515798E+02  0.24356905031E+03  0.24924403860E+03  0.00000000000E+00 0.  1.
</event>
<event>
12    1  0.1039610E+000  0.1956367E+03  0.7818608E-02  0.1154123E+00
         21   -1    0    0  503  502  0.00000000000E+00  0.00000000000E+00  0.19654527271E+03  0.19654527271E+03  0.00000000000E+00 0. -1.
         21   -1    0    0  501  503 -0.00000000000E+00 -0.00000000000E+00 -0.40114424564E+03  0.40114424564E+03  0.00000000000E+00 0. -1.
          6    2    1    2  501    0  0.92596515174E+02  0.89834131977E+01  0.11396268442E+03  0.22385096931E+03  0.16872150629E+03 0.  0.
         24    2    3    3    0    0  0.24309984793E+02  0.34454492242E+02  0.74541995604E-01  0.88557122131E+02  0.77873428891E+02 0.  0.
         -6    2    1    2    0  502 -0.92596515174E+02 -0.89834131977E+01 -0.31856165734E+03  0.37383854904E+03  0.17210146683E+03 0.  0.
        -24    2    5    5    0    0 -0.11223029946E+03  0.38834885444E+02 -0.24206065546E+03  0.28139089650E+03  0.80521346687E+02 0.  0.
          5    1    3    3  501    0  0.68286530382E+02 -0.25471079045E+02  0.11388814242E+03  0.13529384718E+03  0.47000000000E+01 0. -1.
        -11    1    4    4    0    0  0.40921292230E+02 -0.53377392425E+01 -0.13386146664E+02  0.43384703992E+02  0.00000000000E+00 0.  1.
         12    1    4    4    0    0 -0.16611307437E+02  0.39792231485E+02  0.13460688659E+02  0.45172418139E+02  0.00000000000E+00 0. -1.
         -5    1    5    5    0  502  0.19633784282E+02 -0.47818298642E+02 -0.76501001888E+02  0.92447652540E+02  0.47000000000E+01 0.  1.
         13    1    6    6    0    0 -0.10936556404E+01  0.30110187845E+02 -0.71982168763E+02  0.78033660138E+02  0.00000000000E+00 0. -1.
        -14    1    6    6    0    0 -0.11113664382E+03  0.87246975994E+01 -0.17007848669E+03  0.20335723637E+03  0.00000000000E+00 0.  1.
</event>
<event>
12    1  0.1039610E+000  0.1845850E+03  0.7818608E-02  0.1164024E+00
         21   -1    0    0  501  502  0.00000000000E+00  0.00000000000E+00  0.49477629984E+02  0.49477629984E+02  0.00000000000E+00 0. -1.
         21   -1    0    0  502  503 -0.00000000000E+00 -0.00000000000E+00 -0.67938606202E+03  0.67938606202E+03  0.00000000000E+00 0. -1.
         -6    2    1    2    0  503 -0.24087922687E+02 -0.56278671842E+02 -0.31624321731E+03  0.36617124065E+03  0.17413812924E+03 0.  0.
        -24    2    3    3    0    0 -0.70191151362E+02 -0.64567511315E+02 -0.28048646812E+03  0.30705400402E+03  0.80707752633E+02 0.  0.
          6    2    1    2  501    0  0.24087922687E+02  0.56278671842E+02 -0.31366521472E+03  0.36269245136E+03  0.17150052601E+03 0.  0.
         24    2    5    5    0    0  0.95292582523E+01  0.20366246419E+02 -0.31022816229E+03  0.32350622496E+03  0.88933537845E+02 0.  0.
          5    1    5    5  501    0  0.14558664435E+02  0.35912425423E+02 -0.34370524314E+01  0.39186226398E+02  0.47000000000E+01 0. -1.
        -11    1    6    6    0    0 -0.32540750397E+02  0.23766359581E+02 -0.81512353341E+02  0.90928565541E+02  0.00000000000E+00 0.  1.
         12    1    6    6    0    0  0.42070008650E+02 -0.34001131628E+01 -0.22871580895E+03  0.23257765942E+03  0.00000000000E+00 0. -1.
         -5    1    3    3    0  503  0.46103228675E+02  0.82888394737E+01 -0.35756749188E+02  0.59117236629E+02  0.47000000000E+01 0.  1.
         13    1    4    4    0    0 -0.25770187434E+02 -0.70804335772E+02 -0.21376521706E+03  0.22665596076E+03  0.00000000000E+00 0. -1.
        -14    1    4    4    0    0 -0.44420963928E+02  0.62368244566E+01 -0.66721251064E+02  0.80398043255E+02  0.00000000000E+00 0.  1.
</event>
<event>
12    1  0.1039610E+000  0.3777846E+03  0.7818608E-02  0.1052602E+00
         21   -1    0    0  501  502  0.00000000000E+00  0.00000000000E+00  0.67195023603E+03  0.67195023603E+03  0.00000000000E+00 0.  1.
         21   -1    0    0  502  503 -0.00000000000E+00 -0.00000000000E+00 -0.20792876661E+03  0.20792876661E+03  0.00000000000E+00 0.  1.
         -6    2    1    2    0  503  0.12768877974E+03 -0.30354323877E+03  0.20670171853E+03  0.42278531634E+03  0.16606896459E+03 0.  0.
        -24    2    3    3    0    0  0.12909373937E+02 -0.14367103719E+03  0.54788382049E+02  0.17412252332E+03  0.80677552373E+02 0.  0.
          6    2    1    2  501    0 -0.12768877974E+03  0.30354323877E+03  0.25731975088E+03  0.45709368630E+03  0.18514389427E+03 0.  0.
         24    2    5    5    0    0 -0.10893320719E+03  0.16907027691E+03  0.79683510128E+02  0.23346123561E+03  0.87769496872E+02 0.  0.
          5    1    5    5  501    0 -0.18755572549E+02  0.13447296185E+03  0.17763624075E+03  0.22363245069E+03  0.47000000000E+01 0. -1.
        -11    1    6    6    0    0 -0.12303336094E+03  0.14653244583E+03  0.60480413865E+02  0.20066600620E+03  0.00000000000E+00 0.  1.
         12    1    6    6    0    0  0.14100153747E+02  0.22537831083E+02  0.19203096263E+02  0.32795229405E+02  0.00000000000E+00 0. -1.
         -5    1    3    3    0  503  0.11477940580E+03 -0.15987220158E+03  0.15191333648E+03  0.24866279303E+03  0.47000000000E+01 0.  1.
         11    1    4    4    0    0  0.30996792589E+02 -0.11632426167E+03  0.13112416579E+02  0.12109529500E+03  0.00000000000E+00 0. -1.
        -12    1    4    4    0    0 -0.18087418652E+02 -0.27346775518E+02  0.41675965470E+02  0.53027228313E+02  0.00000000000E+00 0.  1.
</event>
<event>
12    1  0.1039610E+000  0.2147143E+03  0.7818608E-02  0.1138477E+00
         21   -1    0    0  503  502  0.00000000000E+00  0.00000000000E+00  0.23483710660E+03  0.23483710660E+03  0.00000000000E+00 0.  1.
         21   -1    0    0  501  503 -0.00000000000E+00 -0.00000000000E+00 -0.20471290237E+03  0.20471290237E+03  0.00000000000E+00 0.  1.
          6    2    1    2  501    0  0.78141615317E+02 -0.95762571077E+02 -0.36381043241E+02  0.21477197184E+03  0.17183374965E+03 0.  0.
         24    2    3    3    0    0  0.10432771595E+03 -0.70388129200E+02  0.17719719176E+02  0.14936129488E+03  0.78460479945E+02 0.  0.
         -6    2    1    2    0  502 -0.78141615317E+02  0.95762571077E+02  0.66505247473E+02  0.22477803712E+03  0.17557230980E+03 0.  0.
        -24    2    5    5    0    0 -0.99652343062E+02  0.56301094191E+02  0.96829413807E+02  0.17035777775E+03  0.80903858856E+02 0.  0.
          5    1    3    3  501    0 -0.26186100630E+02 -0.25374441877E+02 -0.54100762416E+02  0.65410676963E+02  0.47000000000E+01 0. -1.
        -11    1    4    4    0    0  0.29847230447E+02  0.14886489536E+02 -0.54428968766E+01  0.33794820054E+02  0.00000000000E+00 0.  1.
         12    1    4    4    0    0  0.74480485500E+02 -0.85274618736E+02  0.23162616052E+02  0.11556647482E+03  0.00000000000E+00 0. -1.
         -5    1    5    5    0  502  0.21510727745E+02  0.39461476886E+02 -0.30324166334E+02  0.54420259371E+02  0.47000000000E+01 0.  1.
         11    1    6    6    0    0 -0.46418187555E+02  0.30245286635E+02 -0.16407607498E+01  0.55426686672E+02  0.00000000000E+00 0. -1.
        -12    1    6    6    0    0 -0.53234155507E+02  0.26055807556E+02  0.98470174557E+02  0.11493109108E+03  0.00000000000E+00 0.  1.
</event>
<event>
12    1  0.1039610E+000  0.2014093E+03  0.7818608E-02  0.1148885E+00
         21   -1    0    0  501  502  0.00000000000E+00  0.00000000000E+00  0.30459509164E+02  0.30459509164E+02  0.00000000000E+00 0. -1.
         21   -1    0    0  502  503 -0.00000000000E+00 -0.00000000000E+00 -0.13485057563E+04  0.13485057563E+04  0.00000000000E+00 0. -1.
         -6    2    1    2    0  503 -0.10285850176E+03  0.18392556132E+02 -0.75421978600E+03  0.78024498821E+03  0.17034259162E+03 0.  0.
        -24    2    3    3    0    0 -0.38813764925E+02 -0.23672676478E+02 -0.61071156737E+03  0.61749391778E+03  0.79140482785E+02 0.  0.
          6    2    1    2  501    0  0.10285850176E+03 -0.18392556132E+02 -0.56382646113E+03  0.59872027725E+03  0.17218459461E+03 0.  0.
         24    2    5    5    0    0  0.93569677556E+02 -0.29598005351E+01 -0.56662715598E+03  0.57989513205E+03  0.80299348100E+02 0.  0.
          5    1    5    5  501    0  0.92888242004E+01 -0.15432755597E+02  0.28006948486E+01  0.18825145205E+02  0.47000000000E+01 0. -1.
        -13    1    6    6    0    0  0.87056175882E+02  0.23558761304E+02 -0.34504971064E+03  0.35664141067E+03  0.00000000000E+00 0.  1.
         14    1    6    6    0    0  0.65135016736E+01 -0.26518561839E+02 -0.22157744534E+03  0.22325372138E+03  0.00000000000E+00 0. -1.
         -5    1    3    3    0  503 -0.64044736831E+02  0.42065232610E+02 -0.14350821863E+03  0.16275107043E+03  0.47000000000E+01 0.  1.
         13    1    4    4    0    0 -0.30738970978E+02 -0.88609340858E+01 -0.75263439819E+02  0.81780106768E+02  0.00000000000E+00 0. -1.
        -14    1    4    4    0    0 -0.80747939477E+01 -0.14811742392E+02 -0.53544812755E+03  0.53571381101E+03  0.00000000000E+00 0.  1.
</event>
<event>
12    1  0.1039610E+000  0.2269010E+03  0.7818608E-02  0.1129605E+00
         21   -1    0    0  503  502  0.00000000000E+00  0.00000000000E+00  0.59291600452E+02  0.59291600452E+02  0.00000000000E+00 0. -1.
         21   -1    0    0  501  503 -0.00000000000E+00 -0.00000000000E+00 -0.11585059946E+04  0.11585059946E+04  0.00000000000E+00 0. -1.
          6    2    1    2  501    0  0.61175939274E+01 -0.14322921979E+03 -0.86648357236E+03  0.89569963470E+03  0.17587501270E+03 0.  0.
         24    2    3    3    0    0  0.68180811483E+02 -0.68538743183E+02 -0.45909788484E+03  0.47687306121E+03  0.85386569650E+02 0.  0.
         -6    2    1    2    0  502 -0.61175939274E+01  0.14322921979E+03 -0.23273082175E+03  0.32209796031E+03  0.17038610942E+03 0.  0.
        -24    2    5    5    0    0 -0.46936096191E+02  0.28107301059E+02 -0.68340201050E+02  0.11724295677E+03  0.77990450278E+02 0.  0.
          5    1    3    3  501    0 -0.62063217556E+02 -0.74690476603E+02 -0.40738568752E+03  0.41882657349E+03  0.47000000000E+01 0. -1.
        -11    1    4    4    0    0 -0.18536036927E+02 -0.24881431799E+02 -0.89015767943E+02  0.94268113674E+02  0.00000000000E+00 0.  1.
         12    1    4    4    0    0  0.86716848410E+02 -0.43657311385E+02 -0.37008211689E+03  0.38260494754E+03  0.00000000000E+00 0. -1.
         -5    1    5    5    0  502  0.40818502264E+02  0.11512191873E+03 -0.16439062070E+03  0.20485500354E+03  0.47000000000E+01 0.  1.
         11    1    6    6    0    0  0.10151259195E+02 -0.15822374767E+02 -0.30622638388E+02  0.35932458702E+02  0.00000000000E+00 0. -1.
        -12    1    6    6    0    0 -0.57087355386E+02  0.43929675827E+02 -0.37717562662E+02  0.81310498070E+02  0.00000000000E+00 0.  1.
</event>
<event>
12    1  0.1039610E+000  0.1926248E+03  0.7818608E-02  0.1156342E+00
         21   -1    0    0  501  502  0.00000000000E+00  0.00000000000E+00  0.43105298583E+02  0.43105298583E+02  0.00000000000E+00 0. -1.
         21   -1    0    0  502  503 -0.00000000000E+00 -0.00000000000E+00 -0.90778300500E+03  0.90778300500E+03  0.00000000000E+00 0. -1.
         -6    2    1    2    0  503 -0.82668581038E+02 -0.11159810285E+02 -0.54456082252E+03  0.57728537443E+03  0.17249138658E+03 0.  0.
        -24    2    3    3    0    0 -0.89059663150E+02 -0.23434299623E+01 -0.20098230861E+03  0.23350221644E+03  0.78691050599E+02 0.  0.
          6    2    1    2  501    0  0.82668581038E+02  0.11159810285E+02 -0.32011688389E+03  0.37360292915E+03  0.17362515273E+03 0.  0.
         24    2    5    5    0    0  0.83462583252E+02  0.56317326515E+02 -0.15101326962E+03  0.19850879998E+03  0.80393357922E+02 0.  0.
          5    1    5    5  501    0 -0.79400221320E+00 -0.45157516231E+02 -0.16910361427E+03  0.17509412917E+03  0.47000000000E+01 0. -1.
        -11    1    6    6    0    0  0.16004546204E+02 -0.18222691384E+01  0.66549243373E+01  0.17428545032E+02  0.00000000000E+00 0.  1.
         12    1    6    6    0    0  0.67458037048E+02  0.58139595654E+02 -0.15766819396E+03  0.18108025494E+03  0.00000000000E+00 0. -1.
         -5    1    3    3    0  503  0.63910821121E+01 -0.88163803223E+01 -0.34357851392E+03  0.34378315799E+03  0.47000000000E+01 0.  1.
         13    1    4    4    0    0 -0.77285254894E+01  0.15086463173E+02 -0.10796793967E+01  0.16985204883E+02  0.00000000000E+00 0. -1.
        -14    1    4    4    0    0 -0.81331137661E+02 -0.17429893136E+02 -0.19990262921E+03  0.21651701155E+03  0.00000000000E+00 0.  1.
</event>
<event>
12    1  0.1039610E+000  0.2017164E+03  0.7818608E-02  0.1148503E+00
         21   -1    0    0  503  502  0.00000000000E+00  0.00000000000E+00  0.40945082672E+03  0.40945082672E+03  0.00000000000E+00 0.  1.
         21   -1    0    0  501  503 -0.00000000000E+00 -0.00000000000E+00 -0.98901630722E+02  0.98901630722E+02  0.00000000000E+00 0.  1.
          6    2    1    2  501    0  0.98663876894E+02  0.29173646100E+02  0.15352693784E+03  0.25349559675E+03  0.17350456680E+03 0.  0.
         24    2    3    3    0    0  0.12266541701E+03  0.44218463776E+02  0.70967273893E+02  0.16608502200E+03  0.74470151734E+02 0.  0.
         -6    2    1    2    0  502 -0.98663876894E+02 -0.29173646100E+02  0.15702225816E+03  0.25485686069E+03  0.17236695638E+03 0.  0.
        -24    2    5    5    0    0 -0.12437911376E+03 -0.54491131477E+02  0.14872646984E+03  0.21753182115E+03  0.82225805129E+02 0.  0.
          5    1    3    3  501    0 -0.24001540121E+02 -0.15044817676E+02  0.82559663945E+02  0.87410574748E+02  0.47000000000E+01 0. -1.
        -11    1    4    4    0    0  0.45173403018E+02 -0.19242002301E+02  0.14963813766E+02  0.51330368352E+02  0.00000000000E+00 0.  1.
         12    1    4    4    0    0  0.77492013997E+02  0.63460466077E+02  0.56003460127E+02  0.11475465365E+03  0.00000000000E+00 0. -1.
         -5    1    5    5    0  502  0.25715236870E+02  0.25317485377E+02  0.82957883122E+01  0.37325039542E+02  0.47000000000E+01 0.  1.
         13    1    6    6    0    0 -0.90354471158E+02  0.34912179325E+01  0.72527312129E+02  0.11591518479E+03  0.00000000000E+00 0. -1.
        -14    1    6    6    0    0 -0.34024642606E+02 -0.57982349410E+02  0.76199157715E+02  0.10161663635E+03  0.00000000000E+00 0.  1.
</event>
<event>
12    1  0.1039610E+000  0.3330288E+03  0.7818608E-02  0.1070244E+00
         21   -1    0    0  501  502  0.00000000000E+00  0.00000000000E+00  0.18646999011E+03  0.18646999011E+03  0.00000000000E+00 0.  1.
         21   -1    0    0  502  503 -0.00000000000E+00 -0.00000000000E+00 -0.73483492880E+03  0.73483492880E+03  0.00000000000E+00 0.  1.
         -6    2    1    2    0  503 -0.16651684511E+03  0.22522152776E+03 -0.66708213474E+02  0.33572709522E+03  0.17265601771E+03 0.  0.
        -24    2    3    3    0    0 -0.18244286342E+02  0.13591112812E+03 -0.34677149685E+02  0.15963286416E+03  0.73996336924E+02 0.  0.
          6    2    1    2  501    0  0.16651684511E+03 -0.22522152776E+03 -0.48165672522E+03  0.58557782369E+03  0.18015435155E+03 0.  0.
         24    2    5    5    0    0  0.18840709872E+03 -0.15051185517E+03 -0.38702015858E+03  0.46294467921E+03  0.79888168471E+02 0.  0.
          5    1    5    5  501    0 -0.21890253616E+02 -0.74709672586E+02 -0.94636566636E+02  0.12263314448E+03  0.47000000000E+01 0. -1.
        -13    1    6    6    0    0  0.30556164128E+02 -0.62323698983E+02 -0.74038217351E+02  0.10148684767E+03  0.00000000000E+00 0.  1.
         14    1    6    6    0    0  0.15785093459E+03 -0.88188156188E+02 -0.31298194123E+03  0.36145783154E+03  0.00000000000E+00 0. -1.
         -5    1    3    3    0  503 -0.14827255876E+03  0.89310399633E+02 -0.32031063790E+02  0.17609423106E+03  0.47000000000E+01 0.  1.
         11    1    4    4    0    0 -0.36229231427E+02  0.54226214990E+02 -0.38809400827E+02  0.75889453776E+02  0.00000000000E+00 0. -1.
        -12    1    4    4    0    0  0.17984945086E+02  0.81684913135E+02  0.41322511418E+01  0.83743410386E+02  0.00000000000E+00 0.  1.
</event>
<event>
12    1  0.1039610E+000  0.2004857E+03  0.7818608E-02  0.1153555E+00
         21   -1    0    0  503  502  0.00000000000E+00  0.00000000000E+00  0.21173143961E+03  0.21173143961E+03  0.00000000000E+00 0. -1.
         21   -1    0    0  501  503 -0.00000000000E+00 -0.00000000000E+00 -0.36074669504E+03  0.36074669504E+03  0.00000000000E+00 0. -1.
          6    2    1    2  501    0 -0.30200704928E+02  0.52295669091E+02 -0.28308202113E+03  0.34688604913E+03  0.19117421587E+03 0.  0.
         24    2    3    3    0    0 -0.92951636070E+01  0.70600605050E+02 -0.29679129691E+03  0.31554683119E+03  0.80086723313E+02 0.  0.
         -6    2    1    2    0  502  0.30200704928E+02 -0.52295669091E+02  0.13406676569E+03  0.22559208552E+03  0.17108761440E+03 0.  0.
        -24    2    5    5    0    0 -0.17606704343E+02  0.23846590646E+02  0.94971672956E+02  0.12744062921E+03  0.79641944897E+02 0.  0.
          5    1    3    3  501    0 -0.20905541321E+02 -0.18304935959E+02  0.13709275788E+02  0.31339217939E+02  0.47000000000E+01 0. -1.
        -11    1    4    4    0    0 -0.30844804407E+02  0.78266129467E+02 -0.24035871413E+03  0.25465525802E+03  0.00000000000E+00 0.  1.
         12    1    4    4    0    0  0.21549640800E+02 -0.76655244169E+01 -0.56432582787E+02  0.60891573171E+02  0.00000000000E+00 0. -1.
         -5    1    5    5    0  502  0.47807409271E+02 -0.76142259737E+02  0.39095092739E+02  0.98151456308E+02  0.47000000000E+01 0.  1.
         11    1    6    6    0    0 -0.36131485571E+02  0.33053804389E+02  0.26021579673E+02  0.55454132784E+02  0.00000000000E+00 0. -1.
        -12    1    6    6    0    0  0.18524781229E+02 -0.92072137430E+01  0.68950093283E+02  0.71986496429E+02  0.00000000000E+00 0.  1.
</event>
<event>
12    1  0.1039610E+000  0.1898954E+03  0.7818608E-02  0.1158813E+00
         21   -1    0    0  501  502  0.00000000000E+00  0.00000000000E+00  0.47494698215E+03  0.47494698215E+03  0.00000000000E+00 0. -1.
         21   -1    0    0  502  503 -0.00000000000E+00 -0.00000000000E+00 -0.75884408525E+02  0.75884408525E+02  0.00000000000E+00 0. -1.
         -6    2    1    2    0  503 -0.76905730299E+02 -0.18666309446E+02  0.22044058650E+03  0.29095417024E+03  0.17261910249E+03 0.  0.
        -24    2    3    3    0    0 -0.27286310484E+02  0.39443035529E+02  0.18384857984E+03  0.20610225366E+03  0.79859519550E+02 0.  0.
          6    2    1    2  501    0  0.76905730299E+02  0.18666309446E+02  0.17862198712E+03  0.25987722043E+03  0.17136928825E+03 0.  0.
         24    2    5    5    0    0  0.11154858885E+03 -0.19558748172E+02  0.11633497741E+03  0.17886460254E+03  0.75053892414E+02 0.  0.
          5    1    5    5  501    0 -0.34642858556E+02  0.38225057618E+02  0.62287009712E+02  0.81012617892E+02  0.47000000000E+01 0. -1.
        -13    1    6    6    0    0  0.94215999755E+02  0.97498518789E+01  0.10830425095E+03  0.14388024533E+03  0.00000000000E+00 0.  1.
         14    1    6    6    0    0  0.17332589100E+02 -0.29308600051E+02  0.80307264562E+01  0.34984357208E+02  0.00000000000E+00 0. -1.
         -5    1    3    3    0  503 -0.49619419815E+02 -0.58109344975E+02  0.36592006655E+02  0.84851916579E+02  0.47000000000E+01 0.  1.
         13    1    4    4    0    0  0.20521089241E+01 -0.11037344072E+02  0.11620191906E+03  0.11674296599E+03  0.00000000000E+00 0. -1.
        -14    1    4    4    0    0 -0.29338419408E+02  0.50480379601E+02  0.67646660785E+02  0.89359287673E+02  0.00000000000E+00 0.  1.
</event>
<event>
12    1  0.1039610E+000  0.1891720E+03  0.7818608E-02  0.1159349E+00
         21   -1    0    0  501  502  0.00000000000E+00  0.00000000000E+00  0.40416826171E+02  0.40416826171E+02  0.00000000000E+00 0. -1.
         21   -1    0    0  502  503 -0.00000000000E+00 -0.00000000000E+00 -0.88272800554E+03  0.88272800554E+03  0.00000000000E+00 0. -1.
         -6    2    1    2    0  503 -0.65757795290E+02  0.46498083111E+02 -0.42654122388E+03  0.46636185683E+03  0.17049869930E+03 0.  0.
        -24    2    3    3    0    0 -0.63381921265E+01 -0.17506914007E+02 -0.10913211035E+03  0.13712339576E+03  0.80909476810E+02 0.  0.
          6    2    1    2  501    0  0.65757795290E+02 -0.46498083111E+02 -0.41576995548E+03  0.45678297487E+03  0.17117205052E+03 0.  0.
         24    2    5    5    0    0 -0.19081143047E+02 -0.34542188852E+01 -0.27353348861E+03  0.28559967483E+03  0.79815933403E+02 0.  0.
          5    1    5    5  501    0  0.84838938337E+02 -0.43043864226E+02 -0.14223646687E+03  0.17118330004E+03  0.47000000000E+01 0. -1.
        -13    1    6    6    0    0 -0.85030418906E+01  0.29978980117E+02 -0.47153620187E+02  0.56519951053E+02  0.00000000000E+00 0.  1.
         14    1    6    6    0    0 -0.10578101156E+02 -0.33433199003E+02 -0.22637986842E+03  0.22907972378E+03  0.00000000000E+00 0. -1.
         -5    1    3    3    0  503 -0.59419603163E+02  0.64004997117E+02 -0.31740911353E+03  0.32923846107E+03  0.47000000000E+01 0.  1.
         13    1    4    4    0    0 -0.31136920955E+02 -0.33387270750E+02 -0.92868284327E+02  0.10348302242E+03  0.00000000000E+00 0. -1.
        -14    1    4    4    0    0  0.24798728829E+02  0.15880356744E+02 -0.16263826027E+02  0.33640373346E+02  0.00000000000E+00 0.  1.
</event>
<event>
12    1  0.1039610E+000  0.5427814E+03  0.7818608E-02  0.1003186E+00
         21   -1    0    0  503  502  0.00000000000E+00  0.00000000000E+00  0.39832438050E+03  0.39832438050E+03  0.00000000000E+00 0. -1.
         21   -1    0    0  501  503 -0.00000000000E+00 -0.00000000000E+00 -0.74123991513E+03  0.74123991513E+03  0.00000000000E+00 0. -1.
          6    2    1    2  501    0 -0.45026244266E+03 -0.24866292668E+03 -0.19938429144E+03  0.57824368898E+03  0.17332671401E+03 0.  0.
         24    2    3    3    0    0 -0.34058831161E+03 -0.24890853467E+03 -0.11874529833E+03  0.44203351111E+03  0.57769563161E+02 0.  0.
         -6    2    1    2    0  502  0.45026244266E+03  0.24866292668E+03 -0.14353124318E+03  0.56132060665E+03  0.17294533040E+03 0.  0.
        -24    2    5    5    0    0  0.27973731217E+03  0.11262001867E+03 -0.14301530419E+03  0.34312608532E+03  0.79661162215E+02 0.  0.
          5    1    3    3  501    0 -0.10967413105E+03  0.24560799156E+00 -0.80638993110E+02  0.13621017787E+03  0.47000000000E+01 0. -1.
        -11    1    4    4    0    0 -0.33026259384E+02 -0.36978669030E+02  0.16300027647E+01  0.49606579011E+02  0.00000000000E+00 0.  1.
         12    1    4    4    0    0 -0.30756205223E+03 -0.21192986564E+03 -0.12037530109E+03  0.39242693210E+03  0.00000000000E+00 0. -1.
         -5    1    5    5    0  502  0.17052513049E+03  0.13604290801E+03 -0.51593898984E+00  0.21819452134E+03  0.47000000000E+01 0.  1.
         11    1    6    6    0    0  0.64447451645E+02  0.47993555737E+01 -0.32201777705E+01  0.64706084585E+02  0.00000000000E+00 0. -1.
        -12    1    6    6    0    0  0.21528986053E+03  0.10782066310E+03 -0.13979512642E+03  0.27842000073E+03  0.00000000000E+00 0.  1.
</event>
<event>
12    1  0.1039610E+000  0.3046449E+03  0.7818608E-02  0.1082980E+00
         21   -1    0    0  501  502  0.00000000000E+00  0.00000000000E+00  0.17455084295E+03  0.17455084295E+03  0.00000000000E+00 0. -1.
         21   -1    0    0  502  503 -0.00000000000E+00 -0.00000000000E+00 -0.55521357954E+03  0.55521357954E+03  0.00000000000E+00 0. -1.
         -6    2    1    2    0  503  0.18747996730E+03  0.16799131053E+03 -0.26639180878E+03  0.40468886908E+03  0.17157699851E+03 0.  0.
        -24    2    3    3    0    0  0.85854341265E+02  0.63373751967E+02 -0.20811116865E+03  0.24755413568E+03  0.81151655691E+02 0.  0.
          6    2    1    2  501    0 -0.18747996730E+03 -0.16799131053E+03 -0.11427092780E+03  0.32507555342E+03  0.17101594060E+03 0.  0.
         24    2    5    5    0    0 -0.13863627882E+03 -0.59599526590E+02 -0.11949490537E+03  0.20597952212E+03  0.73324005256E+02 0.  0.
          5    1    5    5  501    0 -0.48843688472E+02 -0.10839178394E+03  0.52239775679E+01  0.11909603130E+03  0.47000000000E+01 0. -1.
        -13    1    6    6    0    0 -0.59002847210E+02 -0.60358890126E+02 -0.39817526458E+02  0.93327204015E+02  0.00000000000E+00 0.  1.
         14    1    6    6    0    0 -0.79633431614E+02  0.75936353528E+00 -0.79677378915E+02  0.11265231810E+03  0.00000000000E+00 0. -1.
         -5    1    3    3    0  503  0.10162562603E+03  0.10461755856E+03 -0.58280640132E+02  0.15713473340E+03  0.47000000000E+01 0.  1.
         13    1    4    4    0    0  0.59240035835E+02  0.82016904866E+02 -0.16535293154E+03  0.19384980397E+03  0.00000000000E+00 0. -1.
        -14    1    4    4    0    0  0.26614305430E+02 -0.18643152899E+02 -0.42758237108E+02  0.53704331707E+02  0.00000000000E+00 0.  1.
</event>
<event>
12    1  0.1039610E+000  0.2668347E+03  0.7818608E-02  0.1103141E+00
         21   -1    0    0  501  502  0.00000000000E+00  0.00000000000E+00  0.80587499730E+02  0.80587499730E+02  0.00000000000E+00 0.  1.
         21   -1    0    0  502  503 -0.00000000000E+00 -0.00000000000E+00 -0.10810040549E+04  0.10810040549E+04  0.00000000000E+00 0.  1.
         -6    2    1    2    0  503 -0.19937819928E+03  0.38981205842E+02 -0.74877306344E+03  0.79481478418E+03  0.17262166684E+03 0.  0.
        -24    2    3    3    0    0 -0.15307101834E+03  0.90925864722E+02 -0.58943314734E+03  0.62087829734E+03  0.79750707783E+02 0.  0.
          6    2    1    2  501    0  0.19937819928E+03 -0.38981205842E+02 -0.25164349168E+03  0.36677677040E+03  0.17300159433E+03 0.  0.
         24    2    5    5    0    0  0.28663880793E+02 -0.46396773460E+02 -0.83026232595E+02  0.12666796331E+03  0.78594777055E+02 0.  0.
          5    1    5    5  501    0  0.17071431849E+03  0.74155676182E+01 -0.16861725909E+03  0.24010880709E+03  0.47000000000E+01 0. -1.
        -11    1    6    6    0    0  0.26738255387E+02 -0.68207027580E+02 -0.69179900712E+02  0.10076205424E+03  0.00000000000E+00 0.  1.
         12    1    6    6    0    0  0.19256254065E+01  0.21810254121E+02 -0.13846331883E+02  0.25905909068E+02  0.00000000000E+00 0. -1.
         -5    1    3    3    0  503 -0.46307180939E+02 -0.51944658880E+02 -0.15933991610E+03  0.17393648685E+03  0.47000000000E+01 0.  1.
         11    1    4    4    0    0 -0.97009941055E+02  0.47628262988E+02 -0.22479453828E+03  0.24942326383E+03  0.00000000000E+00 0. -1.
        -12    1    4    4    0    0 -0.56061077288E+02  0.43297601734E+02 -0.36463860906E+03  0.37145503351E+03  0.00000000000E+00 0.  1.
</event>
<event>
12    1  0.1039610E+000  0.2603806E+03  0.7818608E-02  0.1107118E+00
         21   -1    0    0  501  502  0.00000000000E+00  0.00000000000E+00  0.79188634112E+02  0.79188634112E+02  0.00000000000E+00 0.  1.
         21   -1    0    0  502  503 -0.00000000000E+00 -0.00000000000E+00 -0.11051674878E+04  0.11051674878E+04  0.00000000000E+00 0.  1.
         -6    2    1    2    0  503 -0.14835814669E+03  0.12489159661E+03 -0.22838418341E+03  0.34533566861E+03  0.17172459983E+03 0.  0.
        -24    2    3    3    0    0 -0.10179878363E+03  0.14998612758E+03 -0.14022851008E+03  0.24242297496E+03  0.79031847598E+02 0.  0.
          6    2    1    2  501    0  0.14835814669E+03 -0.12489159661E+03 -0.79759467024E+03  0.83902045326E+03  0.17375273353E+03 0.  0.
         24    2    5    5    0    0  0.15566861437E+03 -0.58248100258E+02 -0.67057073755E+03  0.69531252718E+03  0.78541948774E+02 0.  0.
          5    1    5    5  501    0 -0.73104676713E+01 -0.66643496348E+02 -0.12702393269E+03  0.14370792608E+03  0.47000000000E+01 0. -1.
        -13    1    6    6    0    0  0.15147879259E+02 -0.12575232649E+02 -0.22546619389E+03  0.22632410236E+03  0.00000000000E+00 0.  1.
         14    1    6    6    0    0  0.14052073511E+03 -0.45672867609E+02 -0.44510454366E+03  0.46898842482E+03  0.00000000000E+00 0. -1.
         -5    1    3    3    0  503 -0.46559363062E+02 -0.25094530972E+02 -0.88155673334E+02  0.10291269365E+03  0.47000000000E+01 0.  1.
         13    1    4    4    0    0 -0.59534983397E+02  0.47900884606E+02 -0.97698749024E+02  0.12403207067E+03  0.00000000000E+00 0. -1.
        -14    1    4    4    0    0 -0.42263800235E+02  0.10208524297E+03 -0.42529761053E+02  0.11839090429E+03  0.00000000000E+00 0.  1.
</event>
<event>
12    1  0.1039610E+000  0.2245953E+03  0.7818608E-02  0.1131060E+00
         21   -1    0    0  503  502  0.00000000000E+00  0.00000000000E+00  0.64015317800E+03  0.64015317800E+03  0.00000000000E+00 0. -1.
         21   -1    0    0  501  503 -0.00000000000E+00 -0.00000000000E+00 -0.11270751596E+03  0.11270751596E+03  0.00000000000E+00 0. -1.
          6    2    1    2  501    0 -0.58336680635E+02  0.12659245099E+03  0.47465648317E+03  0.52511126557E+03  0.17610862348E+03 0.  0.
         24    2    3    3    0    0 -0.22579040138E+02  0.35628655717E+02  0.18910155943E+03  0.22325579457E+03  0.11092581245E+03 0.  0.
         -6    2    1    2    0  502  0.58336680635E+02 -0.12659245099E+03  0.52789178871E+02  0.22774942838E+03  0.17220420369E+03 0.  0.
        -24    2    5    5    0    0  0.96074111183E+02 -0.10079161629E+03  0.11902177529E+02  0.16623818052E+03  0.90023808389E+02 0.  0.
          5    1    3    3  501    0 -0.35757640497E+02  0.90963795274E+02  0.28555492373E+03  0.30185547100E+03  0.47000000000E+01 0. -1.
        -11    1    4    4    0    0 -0.10961271954E+02  0.55274590441E+02  0.19213774813E+03  0.20023072713E+03  0.00000000000E+00 0.  1.
         12    1    4    4    0    0 -0.11617768184E+02 -0.19645934724E+02 -0.30361886973E+01  0.23025067439E+02  0.00000000000E+00 0. -1.
         -5    1    5    5    0  502 -0.37737430548E+02 -0.25800834698E+02  0.40887001342E+02  0.61511247868E+02  0.47000000000E+01 0.  1.
         13    1    6    6    0    0  0.72812407876E+02 -0.14418354985E+02 -0.78260884705E+01  0.74637680577E+02  0.00000000000E+00 0. -1.
        -14    1    6    6    0    0  0.23261703308E+02 -0.86373261308E+02  0.19728266000E+02  0.91600499939E+02  0.00000000000E+00 0.  1.
</event>
<event>
12    1  0.1039610E+000  0.2507774E+03  0.7818608E-02  0.1113027E+00
         21   -1    0    0  503  502  0.00000000000E+00  0.00000000000E+00  0.11803756671E+03  0.11803756671E+03  0.00000000000E+00 0.  1.
         21   -1    0    0  501  503 -0.00000000000E+00 -0.00000000000E+00 -0.10297978752E+04  0.10297978752E+04  0.00000000000E+00 0.  1.
          6    2    1    2  501    0 -0.82147637284E+02  0.16284936409E+03 -0.85509909500E+03  0.89073663827E+03  0.17014448799E+03 0.  0.
         24    2    3    3    0    0 -0.53301183706E+02  0.18715966420E+03 -0.75091964315E+03  0.77983778001E+03  0.79980601273E+02 0.  0.
         -6    2    1    2    0  502  0.82147637284E+02 -0.16284936409E+03 -0.56661213467E+02  0.25709880361E+03  0.17210796614E+03 0.  0.
        -24    2    5    5    0    0  0.82204674101E+02 -0.48557502918E+02  0.97386799353E+01  0.12483517056E+03  0.79834443614E+02 0.  0.
          5    1    3    3  501    0 -0.28846453578E+02 -0.24310300104E+02 -0.10417945185E+03  0.11089885825E+03  0.47000000000E+01 0. -1.
        -13    1    4    4    0    0  0.17072349836E+02  0.71663939329E+02 -0.31049457823E+03  0.31911450679E+03  0.00000000000E+00 0.  1.
         14    1    4    4    0    0 -0.70373533541E+02  0.11549572487E+03 -0.44042506492E+03  0.46072327323E+03  0.00000000000E+00 0. -1.
         -5    1    5    5    0  502 -0.57036817447E-01 -0.11429186117E+03 -0.66399893402E+02  0.13226363305E+03  0.47000000000E+01 0.  1.
         13    1    6    6    0    0  0.43126147206E+02 -0.57348527093E+02  0.32492332870E+02  0.78768457062E+02  0.00000000000E+00 0. -1.
        -14    1    6    6    0    0  0.39078526895E+02  0.87910241746E+01 -0.22753652935E+02  0.46066713494E+02  0.00000000000E+00 0.  1.
</event>
<event>
12    1  0.1039610E+000  0.2347669E+03  0.7818608E-02  0.1124203E+00
         21   -1    0    0  501  502  0.00000000000E+00  0.00000000000E+00  0.12017921710E+03  0.12017921710E+03  0.00000000000E+00 0.  1.
         21   -1    0    0  502  503 -0.00000000000E+00 -0.00000000000E+00 -0.64498430460E+03  0.64498430460E+03  0.00000000000E+00 0.  1.
         -6    2    1    2    0  503 -0.14686668628E+03  0.60484826289E+02 -0.49439824346E+02  0.23498652634E+03  0.16597027920E+03 0.  0.
        -24    2    3    3    0    0 -0.50636602791E+02  0.41512889583E+02 -0.81242417375E+02  0.13176996626E+03  0.80471163055E+02 0.  0.
          6    2    1    2  501    0  0.14686668628E+03 -0.60484826289E+02 -0.47536526315E+03  0.53017699536E+03  0.17287936618E+03 0.  0.
         24    2    5    5    0    0  0.17255215782E+03 -0.32513496292E+02 -0.35460929202E+03  0.40350326757E+03  0.78966843304E+02 0.  0.
          5    1    5    5  501    0 -0.25685471540E+02 -0.27971329997E+02 -0.12075597113E+03  0.12667372780E+03  0.47000000000E+01 0. -1.
        -11    1    6    6    0    0  0.73099827787E+02  0.10930288030E+02 -0.21049939409E+03  0.22309874704E+03  0.00000000000E+00 0.  1.
         12    1    6    6    0    0  0.99452330033E+02 -0.43443784322E+02 -0.14410989793E+03  0.18040452053E+03  0.00000000000E+00 0. -1.
         -5    1    3    3    0  503 -0.96230083489E+02  0.18971936706E+02  0.31802593029E+02  0.10321656008E+03  0.47000000000E+01 0.  1.
         13    1    4    4    0    0 -0.27318010898E+02 -0.22633661002E+02 -0.28860485010E+02  0.45732744558E+02  0.00000000000E+00 0. -1.
        -14    1    4    4    0    0 -0.23318591893E+02  0.64146550586E+02 -0.52381932365E+02  0.86037221702E+02  0.00000000000E+00 0.  1.
</event>
<event>
12    1  0.1039610E+000  0.1845390E+03  0.7818608E-02  0.1164651E+00
         21   -1    0    0  503  502  0.00000000000E+00  0.00000000000E+00  0.29081906706E+03  0.29081906706E+03  0.00000000000E+00 0. -1.
         21   -1    0    0  501  503 -0.00000000000E+00 -0.00000000000E+00 -0.11905568075E+03  0.11905568075E+03  0.00000000000E+00 0. -1.
          6    2    1    2  501    0  0.43597742740E+02  0.28340510229E+02  0.12701587689E+03  0.21998802967E+03  0.17192368226E+03 0.  0.
         24    2    3    3    0    0 -0.66029164131E+01  0.34984141663E+02  0.14212187713E+03  0.16693593017E+03  0.80009300395E+02 0.  0.
         -6    2    1    2    0  502 -0.43597742740E+02 -0.28340510229E+02  0.44747509415E+02  0.18988671814E+03  0.17706122793E+03 0.  0.
        -24    2    5    5    0    0 -0.71656312185E+02  0.31299815169E+02  0.86968059280E+01  0.11461391459E+03  0.83345122703E+02 0.  0.
          5    1    3    3  501    0  0.50200659153E+02 -0.66436314339E+01 -0.15106000235E+02  0.53052099497E+02  0.47000000000E+01 0. -1.
        -11    1    4    4    0    0 -0.51053708369E+01 -0.25718183845E+02  0.52466561236E+02  0.58653472528E+02  0.00000000000E+00 0.  1.
         12    1    4    4    0    0 -0.14975455762E+01  0.60702325508E+02  0.89655315893E+02  0.10828245764E+03  0.00000000000E+00 0. -1.
         -5    1    5    5    0  502  0.28058569446E+02 -0.59640325398E+02  0.36050703487E+02  0.75272803554E+02  0.47000000000E+01 0.  1.
         13    1    6    6    0    0  0.53228137440E+01  0.17795411244E+02  0.28473073365E+02  0.33995954382E+02  0.00000000000E+00 0. -1.
        -14    1    6    6    0    0 -0.76979125929E+02  0.13504403925E+02 -0.19776267437E+02  0.80617960207E+02  0.00000000000E+00 0.  1.
</event>
<event>
12    1  0.1039610E+000  0.2252164E+03  0.7818608E-02  0.1130732E+00
         21   -1    0    0  501  502  0.00000000000E+00  0.00000000000E+00  0.59003237298E+03  0.59003237298E+03  0.00000000000E+00 0.  1.
         21   -1    0    0  502  503 -0.00000000000E+00 -0.00000000000E+00 -0.10120098379E+03  0.10120098379E+03  0.00000000000E+00 0.  1.
         -6    2    1    2    0  503  0.71731749850E+02 -0.11596981788E+03  0.38290193455E+03  0.44234889274E+03  0.17453999207E+03 0.  0.
        -24    2    3    3    0    0 -0.33740999469E+01  0.25082765852E+01  0.12306700916E+03  0.14702834487E+03  0.80337845690E+02 0.  0.
          6    2    1    2  501    0 -0.71731749850E+02  0.11596981788E+03  0.10592945464E+03  0.24888446402E+03  0.17924280872E+03 0.  0.
         24    2    5    5    0    0 -0.55629327651E+02  0.15349964130E+03  0.10051020032E+03  0.20742081772E+03  0.79147541240E+02 0.  0.
          5    1    5    5  501    0 -0.16102422199E+02 -0.37529823423E+02  0.54192543235E+01  0.41463646297E+02  0.47000000000E+01 0. -1.
        -13    1    6    6    0    0  0.15033958209E+02  0.73919397123E+01  0.45455704225E+00  0.16759095866E+02  0.00000000000E+00 0.  1.
         14    1    6    6    0    0 -0.70663285859E+02  0.14610770159E+03  0.10005564327E+03  0.19066172186E+03  0.00000000000E+00 0. -1.
         -5    1    3    3    0  503  0.75105849797E+02 -0.11847809446E+03  0.25983492539E+03  0.29532054787E+03  0.47000000000E+01 0.  1.
         13    1    4    4    0    0  0.13537656065E+02 -0.18865498898E+02  0.24255758223E+01  0.23346490067E+02  0.00000000000E+00 0. -1.
        -14    1    4    4    0    0 -0.16911756012E+02  0.21373775483E+02  0.12064143334E+03  0.12368185481E+03  0.00000000000E+00 0.  1.
</event>
<event>
12    1  0.1039610E+000  0.4813008E+03  0.7818608E-02  0.1018809E+00
         21   -1    0    0  501  502  0.00000000000E+00  0.00000000000E+00  0.33182648352E+03  0.33182648352E+03  0.00000000000E+00 0.  1.
         21   -1    0    0  502  503 -0.00000000000E+00 -0.00000000000E+00 -0.75000691800E+03  0.75000691800E+03  0.00000000000E+00 0.  1.
         -6    2    1    2    0  503 -0.48451377365E+02  0.44698586838E+03 -0.65828556760E+02  0.48534177707E+03  0.17052665243E+03 0.  0.
        -24    2    3    3    0    0 -0.39366763013E+02  0.44426351138E+03 -0.86897645508E+02  0.46176344070E+03  0.82185551031E+02 0.  0.
          6    2    1    2  501    0  0.48451377365E+02 -0.44698586838E+03 -0.35235187772E+03  0.59649162445E+03  0.17177459009E+03 0.  0.
         24    2    5    5    0    0  0.48420785504E+02 -0.29439616108E+03 -0.31091591961E+03  0.43830613733E+03  0.80186587583E+02 0.  0.
          5    1    5    5  501    0  0.30591861463E-01 -0.15258970730E+03 -0.41435958117E+02  0.15818548712E+03  0.47000000000E+01 0. -1.
        -13    1    6    6    0    0  0.39258268576E+02 -0.50310414816E+02 -0.51598105848E+02  0.82065303372E+02  0.00000000000E+00 0.  1.
         14    1    6    6    0    0  0.91625169283E+01 -0.24408574626E+03 -0.25931781376E+03  0.35624083395E+03  0.00000000000E+00 0. -1.
         -5    1    3    3    0  503 -0.90846143522E+01  0.27223570015E+01  0.21069088748E+02  0.23578336376E+02  0.47000000000E+01 0.  1.
         11    1    4    4    0    0  0.27103879275E+01  0.40263546475E+02 -0.32776478200E+02  0.51988430450E+02  0.00000000000E+00 0. -1.
        -12    1    4    4    0    0 -0.42077150941E+02  0.40399996490E+03 -0.54121167308E+02  0.40977501025E+03  0.00000000000E+00 0.  1.
</event>
<event>
12    1  0.1039610E+000  0.2204992E+03  0.7818608E-02  0.1133904E+00
         21   -1    0    0  501  502  0.00000000000E+00  0.00000000000E+00  0.89423668737E+02  0.89423668737E+02  0.00000000000E+00 0.  1.
         21   -1    0    0  502  503 -0.00000000000E+00 -0.00000000000E+00 -0.58808316091E+03  0.58808316091E+03  0.00000000000E+00 0.  1.
         -6    2    1    2    0  503 -0.10084344151E+03  0.89222661975E+02 -0.14990351463E+03  0.26489244346E+03  0.17195016662E+03 0.  0.
        -24    2    3    3    0    0 -0.62621415160E+02  0.11503603045E+03 -0.15546008833E+03  0.21819963029E+03  0.79300123939E+02 0.  0.
          6    2    1    2  501    0  0.10084344151E+03 -0.89222661975E+02 -0.34875597754E+03  0.41261438618E+03  0.17461333485E+03 0.  0.
         24    2    5    5    0    0  0.19038367169E+02  0.17592382705E+02 -0.11098157715E+03  0.13937405344E+03  0.80226335763E+02 0.  0.
          5    1    5    5  501    0  0.81805074342E+02 -0.10681504468E+03 -0.23777440039E+03  0.27324033275E+03  0.47000000000E+01 0. -1.
        -11    1    6    6    0    0 -0.65452266739E+01  0.83038239434E+01  0.10487901926E+02  0.14892601220E+02  0.00000000000E+00 0.  1.
         12    1    6    6    0    0  0.25583593843E+02  0.92885587615E+01 -0.12146947908E+03  0.12448145222E+03  0.00000000000E+00 0. -1.
         -5    1    3    3    0  503 -0.38222026351E+02 -0.25813368477E+02  0.55565737046E+01  0.46692813171E+02  0.47000000000E+01 0.  1.
         11    1    4    4    0    0 -0.62498606554E+02  0.96856974977E+02 -0.79334041090E+02  0.13993298217E+03  0.00000000000E+00 0. -1.
        -12    1    4    4    0    0 -0.12280860576E+00  0.18179055475E+02 -0.76126047241E+02  0.78266648123E+02  0.00000000000E+00 0.  1.
</event>
<event>
12    1  0.1039610E+000  0.1985334E+03  0.7818608E-02  0.1151349E+00
         21   -1    0    0  503  502  0.00000000000E+00  0.00000000000E+00  0.48693316553E+02  0.48693316553E+02  0.00000000000E+00 0.  1.
         21   -1    0    0  501  503 -0.00000000000E+00 -0.00000000000E+00 -0.93583523745E+03  0.93583523745E+03  0.00000000000E+00 0.  1.
          6    2    1    2  501    0 -0.16499031987E+02  0.97687412368E+02 -0.25940257684E+03  0.32665763966E+03  0.17204786568E+03 0.  0.
         24    2    3    3    0    0 -0.72320620403E+02  0.75707788663E+02 -0.13863724257E+03  0.19172984581E+03  0.81105532158E+02 0.  0.
         -6    2    1    2    0  502  0.16499031987E+02 -0.97687412368E+02 -0.62773934406E+03  0.65787091434E+03  0.17006589097E+03 0.  0.
        -24    2    5    5    0    0  0.61410573387E+02 -0.33650202967E+02 -0.46736596592E+03  0.47937855834E+03  0.80431718914E+02 0.  0.
          5    1    3    3  501    0  0.55821588416E+02  0.21979623705E+02 -0.12076533428E+03  0.13492779385E+03  0.47000000000E+01 0. -1.
        -11    1    4    4    0    0 -0.19895213516E+02 -0.14123472321E+01 -0.77969261661E+02  0.80479935447E+02  0.00000000000E+00 0.  1.
         12    1    4    4    0    0 -0.52425406887E+02  0.77120135896E+02 -0.60667980905E+02  0.11124991036E+03  0.00000000000E+00 0. -1.
         -5    1    5    5    0  502 -0.44911541400E+02 -0.64037209402E+02 -0.16037337813E+03  0.17849235601E+03  0.47000000000E+01 0.  1.
         11    1    6    6    0    0  0.22897797372E+02 -0.55443141759E+02 -0.21729948846E+03  0.22542696994E+03  0.00000000000E+00 0. -1.
        -12    1    6    6    0    0  0.38512776015E+02  0.21792938792E+02 -0.25006647747E+03  0.25395158840E+03  0.00000000000E+00 0.  1.
</event>
<event>
12    1  0.1039610E+000  0.3336370E+03  0.7818608E-02  0.1069637E+00
         21   -1    0    0  501  502  0.00000000000E+00  0.00000000000E+00  0.20709327140E+03  0.20709327140E+03  0.00000000000E+00 0.  1.
         21   -1    0    0  502  503 -0.00000000000E+00 -0.00000000000E+00 -0.68336479997E+03  0.68336479997E+03  0.00000000000E+00 0.  1.
         -6    2    1    2    0  503 -0.26941086936E+02 -0.28380664792E+03 -0.44510259383E+03  0.55626427082E+03  0.17332508298E+03 0.  0.
        -24    2    3    3    0    0  0.38039852222E+02 -0.77733565038E+02 -0.16324397259E+03  0.20108120491E+03  0.79344305978E+02 0.  0.
          6    2    1    2  501    0  0.26941086936E+02  0.28380664792E+03 -0.31168934738E+02  0.33419380055E+03  0.17158659116E+03 0.  0.
         24    2    5    5    0    0 -0.29485451861E+02  0.17441954998E+03  0.31207619237E+02  0.19612709217E+03  0.78742298031E+02 0.  0.
          5    1    5    5  501    0  0.56426538797E+02  0.10938709794E+03 -0.62376553976E+02  0.13806670838E+03  0.47000000000E+01 0. -1.
        -11    1    6    6    0    0  0.12911791515E+01 -0.28790791424E+01 -0.10873662030E+02  0.11322224439E+02  0.00000000000E+00 0.  1.
         12    1    6    6    0    0 -0.30776631012E+02  0.17729862912E+03  0.42081281267E+02  0.18480486773E+03  0.00000000000E+00 0. -1.
         -5    1    3    3    0  503 -0.64980939158E+02 -0.20607308288E+03 -0.28185862124E+03  0.35518306591E+03  0.47000000000E+01 0.  1.
         11    1    4    4    0    0  0.25118811678E+02 -0.93121007767E+02 -0.12504490547E+03  0.15791993279E+03  0.00000000000E+00 0. -1.
        -12    1    4    4    0    0  0.12921040544E+02  0.15387442729E+02 -0.38199067123E+02  0.43161272126E+02  0.00000000000E+00 0.  1.
</event>
<event>
12    1  0.1039610E+000  0.1757185E+03  0.7818608E-02  0.1172440E+00
         21   -1    0    0  503  502  0.00000000000E+00  0.00000000000E+00  0.99341036667E+02  0.99341036667E+02  0.00000000000E+00 0. -1.
         21   -1    0    0  501  503 -0.00000000000E+00 -0.00000000000E+00 -0.35768564440E+03  0.35768564440E+03  0.00000000000E+00 0. -1.
          6    2    1    2  501    0 -0.29702650592E+02 -0.15366156251E+02 -0.44384975158E+02  0.18123745230E+03  0.17250687490E+03 0.  0.
         24    2    3    3    0    0  0.25957902926E+01 -0.45696643860E+02 -0.84245369943E+02  0.12145393589E+03  0.74557727959E+02 0.  0.
         -6    2    1    2    0  502  0.29702650592E+02  0.15366156251E+02 -0.21395963258E+03  0.27578922877E+03  0.17077063015E+03 0.  0.
        -24    2    5    5    0    0  0.68867519810E+02 -0.63668238716E+01 -0.20299340444E+03  0.22943669307E+03  0.81557354991E+02 0.  0.
          5    1    3    3  501    0 -0.32298440884E+02  0.30330487609E+02  0.39860394786E+02  0.59783516413E+02  0.47000000000E+01 0. -1.
        -13    1    4    4    0    0  0.17361237791E+02  0.16054809231E+02 -0.27823592831E+02  0.36514679173E+02  0.00000000000E+00 0.  1.
         14    1    4    4    0    0 -0.14765447499E+02 -0.61751453092E+02 -0.56421777113E+02  0.84939256715E+02  0.00000000000E+00 0. -1.
         -5    1    5    5    0  502 -0.39164869218E+02  0.21732980123E+02 -0.10966228145E+02  0.46352535698E+02  0.47000000000E+01 0.  1.
         11    1    6    6    0    0  0.36261615197E+02  0.30679789083E+02 -0.51281456500E+02  0.69899513414E+02  0.00000000000E+00 0. -1.
        -12    1    6    6    0    0  0.32605904613E+02 -0.37046612955E+02 -0.15171194794E+03  0.15953717966E+03  0.00000000000E+00 0.  1.
</event>
<event>
12    1  0.1039610E+000  0.1789890E+03  0.7818608E-02  0.1168991E+00
         21   -1    0    0  501  502  0.00000000000E+00  0.00000000000E+00  0.15309477345E+04  0.15309477345E+04  0.00000000000E+00 0. -1.
         21   -1    0    0  502  503 -0.00000000000E+00 -0.00000000000E+00 -0.20895837660E+02  0.20895837660E+02  0.00000000000E+00 0. -1.
         -6    2    1    2    0  503  0.25385088059E+02 -0.44325971177E+02  0.70906070206E+03  0.73109759298E+03  0.17066756235E+03 0.  0.
        -24    2    3    3    0    0  0.25477921322E+02  0.34224756231E+02  0.49364307752E+03  0.50175708553E+03  0.79096311440E+02 0.  0.
          6    2    1    2  501    0 -0.25385088059E+02  0.44325971177E+02  0.80099119474E+03  0.82074597914E+03  0.17154554441E+03 0.  0.
         24    2    5    5    0    0 -0.75900326920E+02 -0.98381439670E+00  0.45077752532E+03  0.46398769925E+03  0.79513396345E+02 0.  0.
          5    1    5    5  501    0  0.50515238861E+02  0.45309785573E+02  0.35021366942E+03  0.35675827989E+03  0.47000000000E+01 0. -1.
        -13    1    6    6    0    0 -0.51041757974E+02  0.37065541742E+02  0.29748023466E+03  0.30409473105E+03  0.00000000000E+00 0.  1.
         14    1    6    6    0    0 -0.24858568947E+02 -0.38049356139E+02  0.15329729067E+03  0.15989296819E+03  0.00000000000E+00 0. -1.
         -5    1    3    3    0  503 -0.92833263209E-01 -0.78550727408E+02  0.21541762454E+03  0.22934050745E+03  0.47000000000E+01 0.  1.
         13    1    4    4    0    0  0.31556186186E+02 -0.14175196837E+02  0.30315381638E+03  0.30512123079E+03  0.00000000000E+00 0. -1.
        -14    1    4    4    0    0 -0.60782648640E+01  0.48399953068E+02  0.19048926114E+03  0.19663585474E+03  0.00000000000E+00 0.  1.
</event>
<event>
12    1  0.1039610E+000  0.1802658E+03  0.7818608E-02  0.1167801E+00
         21   -1    0    0  503  502  0.00000000000E+00  0.00000000000E+00  0.11201723224E+03  0.11201723224E+03  0.00000000000E+00 0. -1.
         21   -1    0    0  501  503 -0.00000000000E+00 -0.00000000000E+00 -0.41057631926E+03  0.41057631926E+03  0.00000000000E+00 0. -1.
          6    2    1    2  501    0  0.46269425642E+02  0.13671948110E+01 -0.70520921571E+01  0.18040367346E+03  0.17422119396E+03 0.  0.
         24    2    3    3    0    0  0.93084044855E+02  0.18781771025E+01  0.12933892414E+02  0.12928225668E+03  0.88760629576E+02 0.  0.
         -6    2    1    2    0  502 -0.46269425642E+02 -0.13671948110E+01 -0.29150699486E+03  0.34218987804E+03  0.17313247994E+03 0.  0.
        -24    2    5    5    0    0 -0.53448772385E+02 -0.38423761634E+02 -0.88279639472E+02  0.13543354768E+03  0.78840309269E+02 0.  0.
          5    1    3    3  501    0 -0.46814619213E+02 -0.51098229148E+00 -0.19985984571E+02  0.51121416787E+02  0.47000000000E+01 0. -1.
        -11    1    4    4    0    0  0.70599217557E+02 -0.39955172472E+02  0.70785055093E+01  0.81429543577E+02  0.00000000000E+00 0.  1.
         12    1    4    4    0    0  0.22484827299E+02  0.41833349574E+02  0.58553869046E+01  0.47852713100E+02  0.00000000000E+00 0. -1.
         -5    1    5    5    0  502  0.71793467435E+01  0.37056566822E+02 -0.20322735539E+03  0.20675633036E+03  0.47000000000E+01 0.  1.
         13    1    6    6    0    0  0.93411553243E+01  0.13935829401E+02 -0.32148984814E+02  0.36263228600E+02  0.00000000000E+00 0. -1.
        -14    1    6    6    0    0 -0.62789927709E+02 -0.52359591035E+02 -0.56130654658E+02  0.99170319085E+02  0.00000000000E+00 0.  1.
</event>
<event>
12    1  0.1039610E+000  0.2461944E+03  0.7818608E-02  0.1115750E+00
         21   -1    0    0  503  502  0.00000000000E+00  0.00000000000E+00  0.21833532804E+03  0.21833532804E+03  0.00000000000E+00 0.  1.
         21   -1    0    0  501  503 -0.00000000000E+00 -0.00000000000E+00 -0.37044673456E+03  0.37044673456E+03  0.00000000000E+00 0.  1.
          6    2    1    2  501    0  0.82009879304E+02 -0.15522328670E+03 -0.22351106115E+03  0.33244328182E+03  0.17245710230E+03 0.  0.
         24    2    3    3    0    0  0.58836427892E+02 -0.12192613777E+03 -0.70251841584E+02  0.17383626004E+03  0.83402732205E+02 0.  0.
         -6    2    1    2    0  502 -0.82009879304E+02  0.15522328670E+03  0.71399654628E+02  0.25633878079E+03  0.17260292819E+03 0.  0.
        -24    2    5    5    0    0 -0.10189643465E+03  0.71742628440E+02  0.52656518500E+01  0.14789390212E+03  0.79466918048E+02 0.  0.
          5    1    3    3  501    0  0.23173451412E+02 -0.33297148935E+02 -0.15325921956E+03  0.15860702178E+03  0.47000000000E+01 0. -1.
        -11    1    4    4    0    0 -0.55500318815E+01 -0.41090369021E+02  0.10397360953E+02  0.42747238448E+02  0.00000000000E+00 0.  1.
         12    1    4    4    0    0  0.64386459774E+02 -0.80835768746E+02 -0.80649202536E+02  0.13108902159E+03  0.00000000000E+00 0. -1.
         -5    1    5    5    0  502  0.19886555346E+02  0.83480658261E+02  0.66134002778E+02  0.10844487867E+03  0.47000000000E+01 0.  1.
         13    1    6    6    0    0 -0.63713718812E+02  0.77587658573E+02 -0.19137920596E+02  0.10220343797E+03  0.00000000000E+00 0. -1.
        -14    1    6    6    0    0 -0.38182715838E+02 -0.58450301331E+01  0.24403572446E+02  0.45690464148E+02  0.00000000000E+00 0.  1.
</event>
<event>
12    1  0.1039610E+000  0.2373861E+03  0.7818608E-02  0.1121727E+00
         21   -1    0    0  503  502  0.00000000000E+00  0.00000000000E+00  0.23100984820E+03  0.23100984820E+03  0.00000000000E+00 0.  1.
         21   -1    0    0  501  503 -0.00000000000E+00 -0.00000000000E+00 -0.24351309497E+03  0.24351309497E+03  0.00000000000E+00 0.  1.
          6    2    1    2  501    0  0.14845538022E+03 -0.70828433737E+02  0.61913969536E+01  0.23746678394E+03  0.17116212530E+03 0.  0.
         24    2    3    3    0    0  0.16341513797E+02 -0.13657368236E+02 -0.32145002337E+02  0.88421911693E+02  0.79571128633E+02 0.  0.
         -6    2    1    2    0  502 -0.14845538022E+03  0.70828433737E+02 -0.18694643719E+02  0.23705615923E+03  0.16967753529E+03 0.  0.
        -24    2    5    5    0    0 -0.97925961249E+02  0.50715153694E+02  0.44028596180E+02  0.15390532616E+03  0.97912263985E+02 0.  0.
          5    1    3    3  501    0  0.13211386643E+03 -0.57171065502E+02  0.38336399291E+02  0.14904487225E+03  0.47000000000E+01 0. -1.
        -13    1    4    4    0    0 -0.73504247751E+00 -0.20688465887E+02  0.22598664406E+02  0.30647227299E+02  0.00000000000E+00 0.  1.
         14    1    4    4    0    0  0.17076556275E+02  0.70310976516E+01 -0.54743666743E+02  0.57774684394E+02  0.00000000000E+00 0. -1.
         -5    1    5    5    0  502 -0.50529418975E+02  0.20113280043E+02 -0.62723239898E+02  0.83150833065E+02  0.47000000000E+01 0.  1.
         13    1    6    6    0    0  0.10332573842E+02 -0.14254241094E+02 -0.52507676387E+01  0.18371609406E+02  0.00000000000E+00 0. -1.
        -14    1    6    6    0    0 -0.10825853509E+03  0.64969394788E+02  0.49279363818E+02  0.13553371676E+03  0.00000000000E+00 0.  1.
</event>
<event>
12    1  0.1039610E+000  0.4767300E+03  0.7818608E-02  0.1020041E+00
         21   -1    0    0  501  502  0.00000000000E+00  0.00000000000E+00  0.89269296892E+03  0.89269296892E+03  0.00000000000E+00 0. -1.
         21   -1    0    0  502  503 -0.00000000000E+00 -0.00000000000E+00 -0.25670408930E+03  0.25670408930E+03  0.00000000000E+00 0. -1.
         -6    2    1    2    0  503  0.93285177404E+02 -0.43250144574E+03  0.26552703943E+03  0.54568862265E+03  0.17751574388E+03 0.  0.
        -24    2    3    3    0    0 -0.19704588612E+02 -0.15938251501E+03  0.92936370512E+02  0.20338719620E+03  0.83295412306E+02 0.  0.
          6    2    1    2  501    0 -0.93285177404E+02  0.43250144574E+03  0.37046184020E+03  0.60370843558E+03  0.17737608422E+03 0.  0.
         24    2    5    5    0    0  0.14869970852E+02  0.13163421814E+03  0.91958868251E+02  0.17967468678E+03  0.79233049918E+02 0.  0.
          5    1    5    5  501    0 -0.10815514826E+03  0.30086722760E+03  0.27850297195E+03  0.42403374880E+03  0.47000000000E+01 0. -1.
        -11    1    6    6    0    0  0.44118960225E+02  0.10366718364E+03  0.57327442172E+02  0.12641124650E+03  0.00000000000E+00 0.  1.
         12    1    6    6    0    0 -0.29248989373E+02  0.27967034505E+02  0.34631426079E+02  0.53263440281E+02  0.00000000000E+00 0. -1.
         -5    1    3    3    0  503  0.11298976602E+03 -0.27311893073E+03  0.17259066891E+03  0.34230142644E+03  0.47000000000E+01 0.  1.
         13    1    4    4    0    0  0.31540277731E+02 -0.39617272218E+02  0.26694821733E+02  0.57244483443E+02  0.00000000000E+00 0. -1.
        -14    1    4    4    0    0 -0.51244866343E+02 -0.11976524279E+03  0.66241548780E+02  0.14614271276E+03  0.00000000000E+00 0.  1.
</event>
<event>
12    1  0.1039610E+000  0.1785239E+03  0.7818608E-02  0.1169994E+00
         21   -1    0    0  503  502  0.00000000000E+00  0.00000000000E+00  0.16960480560E+03  0.16960480560E+03  0.00000000000E+00 0.  1.
         21   -1    0    0  501  503 -0.00000000000E+00 -0.00000000000E+00 -0.18739853164E+03  0.18739853164E+03  0.00000000000E+00 0.  1.
          6    2    1    2  501    0 -0.20005451644E+02  0.31455927790E+02  0.12571916750E+02  0.17591539871E+03  0.17145985223E+03 0.  0.
         24    2    3    3    0    0  0.14405190415E+02  0.71063395367E+02  0.42290744552E+02  0.11543281857E+03  0.79238329468E+02 0.  0.
         -6    2    1    2    0  502  0.20005451644E+02 -0.31455927790E+02 -0.30365642795E+02  0.18108793852E+03  0.17458830352E+03 0.  0.
        -24    2    5    5    0    0  0.57510486299E+02 -0.59189316058E+02  0.19822331026E+02  0.11240976757E+03  0.73703458994E+02 0.  0.
          5    1    3    3  501    0 -0.34410642058E+02 -0.39607467577E+02 -0.29718827802E+02  0.60482580142E+02  0.47000000000E+01 0. -1.
        -13    1    4    4    0    0  0.33693105710E+02  0.15457821095E+01  0.46121997613E+01  0.34042432365E+02  0.00000000000E+00 0.  1.
         14    1    4    4    0    0 -0.19287915295E+02  0.69517613257E+02  0.37678544791E+02  0.81390386207E+02  0.00000000000E+00 0. -1.
         -5    1    5    5    0  502 -0.37505034656E+02  0.27733388268E+02 -0.50187973821E+02  0.68678170954E+02  0.47000000000E+01 0.  1.
         13    1    6    6    0    0 -0.16846994346E+02 -0.12981109393E+02  0.12234462890E+02  0.24535943058E+02  0.00000000000E+00 0. -1.
        -14    1    6    6    0    0  0.74357480645E+02 -0.46208206665E+02  0.75878681361E+01  0.87873824510E+02  0.00000000000E+00 0.  1.
</event>
<event>
12    1  0.1039610E+000  0.2061608E+03  0.7818608E-02  0.1145019E+00
         21   -1    0    0  503  502  0.00000000000E+00  0.00000000000E+00  0.13282064143E+03  0.13282064143E+03  0.00000000000E+00 0.  1.
         21   -1    0    0  501  503 -0.00000000000E+00 -0.00000000000E+00 -0.33945666820E+03  0.33945666820E+03  0.00000000000E+00 0. -1.
          6    2    1    2  501    0  0.11108333341E+03 -0.17821416130E+02 -0.43199992237E+02  0.21063835658E+03  0.17275754137E+03 0.  0.
         24    2    3    3    0    0  0.91461941120E+02 -0.50436939581E+02  0.22570902049E+02  0.13450247844E+03  0.81684144968E+02 0.  0.
         -6    2    1    2    0  502 -0.11108333341E+03  0.17821416130E+02 -0.16343603454E+03  0.26163895305E+03  0.17054763127E+03 0.  0.
        -24    2    5    5    0    0 -0.87048052016E+02 -0.46765891080E+02 -0.67244285952E+02  0.14321531731E+03  0.78895001059E+02 0.  0.
          5    1    3    3  501    0  0.19621392287E+02  0.32615523451E+02 -0.65770894287E+02  0.76135878142E+02  0.47000000000E+01 0. -1.
        -11    1    4    4    0    0  0.59122922413E+02 -0.52497061957E+02  0.48712850029E+02  0.92867665130E+02  0.00000000000E+00 0.  1.
         12    1    4    4    0    0  0.32339018707E+02  0.20601223755E+01 -0.26141947979E+02  0.41634813309E+02  0.00000000000E+00 0. -1.
         -5    1    5    5    0  502 -0.24035281390E+02  0.64587307211E+02 -0.96191748586E+02  0.11842363573E+03  0.47000000000E+01 0.  1.
         11    1    6    6    0    0  0.11951374663E+02 -0.11428078658E+02  0.29754508107E+01  0.16801477485E+02  0.00000000000E+00 0. -1.
        -12    1    6    6    0    0 -0.98999426679E+02 -0.35337812423E+02 -0.70219736762E+02  0.12641383983E+03  0.00000000000E+00 0.  1.
</event>
<event>
12    1  0.1039610E+000  0.1824392E+03  0.7818608E-02  0.1166906E+00
         21   -1    0    0  501  502  0.00000000000E+00  0.00000000000E+00  0.74728867262E+02  0.74728867262E+02  0.00000000000E+00 0.  1.
         21   -1    0    0  502  503 -0.00000000000E+00 -0.00000000000E+00 -0.66532251703E+03  0.66532251703E+03  0.00000000000E+00 0.  1.
         -6    2    1    2    0  503 -0.15790442840E+02  0.40966513892E+02 -0.51806592096E+03  0.54925073262E+03  0.17707759735E+03 0.  0.
        -24    2    3    3    0    0  0.17974828750E+02  0.77856228454E+01 -0.90733400953E+02  0.11927836403E+03  0.74907060326E+02 0.  0.
          6    2    1    2  501    0  0.15790442840E+02 -0.40966513892E+02 -0.72527728812E+02  0.19080065167E+03  0.17092988003E+03 0.  0.
         24    2    5    5    0    0  0.47361172745E+02 -0.12436884634E+02  0.11112621668E+02  0.96840825357E+02  0.82806390528E+02 0.  0.
          5    1    5    5  501    0 -0.31570729905E+02 -0.28529629259E+02 -0.83640350480E+02  0.93959826313E+02  0.47000000000E+01 0. -1.
        -13    1    6    6    0    0  0.42329027173E+02 -0.45832601503E+02  0.58836612169E+01  0.62665711288E+02  0.00000000000E+00 0.  1.
         14    1    6    6    0    0  0.50321455725E+01  0.33395716869E+02  0.52289604509E+01  0.34175114069E+02  0.00000000000E+00 0. -1.
         -5    1    3    3    0  503 -0.33765271590E+02  0.33180891047E+02 -0.42733252000E+03  0.42997236859E+03  0.47000000000E+01 0.  1.
         13    1    4    4    0    0 -0.26427340140E+02 -0.11470305597E+02 -0.38257696301E+02  0.47891789940E+02  0.00000000000E+00 0. -1.
        -14    1    4    4    0    0  0.44402168890E+02  0.19255928442E+02 -0.52475704652E+02  0.71386574095E+02  0.00000000000E+00 0.  1.
</event>
<event>
12    1  0.1039610E+000  0.4672936E+03  0.7818608E-02  0.1022706E+00
         21   -1    0    0  503  502  0.00000000000E+00  0.00000000000E+00  0.14144212891E+04  0.14144212891E+04  0.00000000000E+00 0. -1.
         21   -1    0    0  501  503 -0.00000000000E+00 -0.00000000000E+00 -0.16630398414E+03  0.16630398414E+03  0.00000000000E+00 0.  1.
          6    2    1    2  501    0  0.55903020607E+01 -0.43493492050E+03  0.41148601824E+03  0.62243764811E+03  0.17002425131E+03 0.  0.
         24    2    3    3    0    0 -0.57235172185E+02 -0.28216342028E+03  0.23000331246E+03  0.37699063959E+03  0.79550976853E+02 0.  0.
         -6    2    1    2    0  502 -0.55903020607E+01  0.43493492050E+03  0.83663128667E+03  0.95828762508E+03  0.17077361042E+03 0.  0.
        -24    2    5    5    0    0  0.57835794296E+02  0.19651977401E+03  0.40129173184E+03  0.45788052105E+03  0.81575221937E+02 0.  0.
          5    1    3    3  501    0  0.62825474246E+02 -0.15277150022E+03  0.18148270578E+03  0.24544700852E+03  0.47000000000E+01 0. -1.
        -11    1    4    4    0    0 -0.37642524045E+02 -0.25051580058E+03  0.22612108025E+03  0.33956717876E+03  0.00000000000E+00 0.  1.
         12    1    4    4    0    0 -0.19592648140E+02 -0.31647619705E+02  0.38822322112E+01  0.37423460838E+02  0.00000000000E+00 0. -1.
         -5    1    5    5    0  502 -0.63426096357E+02  0.23841514649E+03  0.43533955483E+03  0.50040710404E+03  0.47000000000E+01 0.  1.
         13    1    6    6    0    0  0.45652578896E+02  0.18312905099E+03  0.39654058776E+03  0.43916380203E+03  0.00000000000E+00 0. -1.
        -14    1    6    6    0    0  0.12183215400E+02  0.13390723021E+02  0.47511440756E+01  0.18716719011E+02  0.00000000000E+00 0.  1.
</event>
<event>
12    1  0.1039610E+000  0.2153452E+03  0.7818608E-02  0.1137733E+00
         21   -1    0    0  501  502  0.00000000000E+00  0.00000000000E+00  0.25717325428E+03  0.25717325428E+03  0.00000000000E+00 0. -1.
         21   -1    0    0  502  503 -0.00000000000E+00 -0.00000000000E+00 -0.24728167564E+03  0.24728167564E+03  0.00000000000E+00 0. -1.
         -6    2    1    2    0  503 -0.53200565396E+02 -0.11299482623E+03  0.13758497957E+03  0.25409687480E+03  0.17331319704E+03 0.  0.
        -24    2    3    3    0    0  0.33765923434E+02 -0.84292122963E+02  0.66690964376E+02  0.13818713947E+03  0.80016880762E+02 0.  0.
          6    2    1    2  501    0  0.53200565396E+02  0.11299482623E+03 -0.12769340094E+03  0.25035805512E+03  0.17542924559E+03 0.  0.
         24    2    5    5    0    0  0.74404794971E+02  0.10634347949E+03 -0.15327809025E+03  0.21614510300E+03  0.79871919089E+02 0.  0.
          5    1    5    5  501    0 -0.21204229576E+02  0.66513467433E+01  0.25584689310E+02  0.34212952116E+02  0.47000000000E+01 0. -1.
        -13    1    6    6    0    0  0.55132962168E+02  0.21281276512E+02 -0.33358230840E+02  0.67862418261E+02  0.00000000000E+00 0.  1.
         14    1    6    6    0    0  0.19271832803E+02  0.85062202974E+02 -0.11991985941E+03  0.14828268474E+03  0.00000000000E+00 0. -1.
         -5    1    3    3    0  503 -0.86966488830E+02 -0.28702703267E+02  0.70894015195E+02  0.11590973533E+03  0.47000000000E+01 0.  1.
         11    1    4    4    0    0 -0.11791173114E+02 -0.23045041428E+02 -0.12020864238E+02  0.28541318730E+02  0.00000000000E+00 0. -1.
        -12    1    4    4    0    0  0.45557096548E+02 -0.61247081535E+02  0.78711828613E+02  0.10964582074E+03  0.00000000000E+00 0.  1.
</event>
<event>
12    1  0.1039610E+000  0.1783265E+03  0.7818608E-02  0.1169572E+00
         21   -1    0    0  503  502  0.00000000000E+00  0.00000000000E+00  0.15973852801E+03  0.15973852801E+03  0.00000000000E+00 0.  1.
         21   -1    0    0  501  503 -0.00000000000E+00 -0.00000000000E+00 -0.23440910809E+03  0.23440910809E+03  0.00000000000E+00 0.  1.
          6    2    1    2  501    0 -0.10166918055E+02 -0.45638386957E+02 -0.11457927281E+03  0.21196407092E+03  0.17208756206E+03 0.  0.
         24    2    3    3    0    0 -0.25559839070E+01 -0.82832469622E+02 -0.12675569904E+03  0.17181831822E+03  0.81158956133E+02 0.  0.
         -6    2    1    2    0  502  0.10166918055E+02  0.45638386957E+02  0.39908692728E+02  0.18218356519E+03  0.17149903522E+03 0.  0.
        -24    2    5    5    0    0 -0.35625565578E+02  0.51483764195E+01  0.70661918466E+02  0.11359607796E+03  0.81334343942E+02 0.  0.
          5    1    3    3  501    0 -0.76109341481E+01  0.37194082665E+02  0.12176426232E+02  0.40145752698E+02  0.47000000000E+01 0. -1.
        -13    1    4    4    0    0  0.58044559103E+01  0.10852727918E+02  0.18938637706E+01  0.12452314310E+02  0.00000000000E+00 0.  1.
         14    1    4    4    0    0 -0.83604398173E+01 -0.93685197541E+02 -0.12864956281E+03  0.15936600391E+03  0.00000000000E+00 0. -1.
         -5    1    5    5    0  502  0.45792483633E+02  0.40490010538E+02 -0.30753225738E+02  0.68587487226E+02  0.47000000000E+01 0.  1.
         11    1    6    6    0    0  0.63127805615E+01 -0.29696226339E+02  0.42493971521E+02  0.52225038754E+02  0.00000000000E+00 0. -1.
        -12    1    6    6    0    0 -0.41938346140E+02  0.34844602759E+02  0.28167946945E+02  0.61371039208E+02  0.00000000000E+00 0.  1.
</event>
<event>
12    1  0.1039610E+000  0.1732040E+03  0.7818608E-02  0.1174616E+00
         21   -1    0    0  503  502  0.00000000000E+00  0.00000000000E+00  0.67598004839E+02  0.67598004839E+02  0.00000000000E+00 0. -1.
         21   -1    0    0  501  503 -0.00000000000E+00 -0.00000000000E+00 -0.45278808384E+03  0.45278808384E+03  0.00000000000E+00 0. -1.
          6    2    1    2  501    0 -0.15338291013E+02 -0.26785078175E+01 -0.15440114287E+03  0.23183253169E+03  0.17223290120E+03 0.  0.
         24    2    3    3    0    0  0.30971363750E+02  0.11469100496E+02 -0.14813445421E+02  0.84009819555E+02  0.75811911846E+02 0.  0.
         -6    2    1    2    0  502  0.15338291013E+02  0.26785078175E+01 -0.23078893613E+03  0.28855355699E+03  0.17250270906E+03 0.  0.
        -24    2    5    5    0    0 -0.35454462393E+02  0.22028404290E+02 -0.50156170598E+02  0.99861722829E+02  0.75593999354E+02 0.  0.
          5    1    3    3  501    0 -0.46309654763E+02 -0.14147608314E+02 -0.13958769745E+03  0.14782271214E+03  0.47000000000E+01 0. -1.
        -13    1    4    4    0    0  0.27234902262E+01  0.40177000713E+02 -0.16920408180E+02  0.43679617652E+02  0.00000000000E+00 0.  1.
         14    1    4    4    0    0  0.28247873524E+02 -0.28707900216E+02  0.21069627592E+01  0.40330201903E+02  0.00000000000E+00 0. -1.
         -5    1    5    5    0  502  0.50792753406E+02 -0.19349896473E+02 -0.18063276554E+03  0.18869183416E+03  0.47000000000E+01 0.  1.
         13    1    6    6    0    0 -0.41649333353E+02  0.45650795647E+02 -0.38438592628E+02  0.72774909929E+02  0.00000000000E+00 0. -1.
        -14    1    6    6    0    0  0.61948709598E+01 -0.23622391357E+02 -0.11717577970E+02  0.27086812901E+02  0.00000000000E+00 0.  1.
</event>
<event>
12    1  0.1039610E+000  0.3733918E+03  0.7818608E-02  0.1053408E+00
         21   -1    0    0  501  502  0.00000000000E+00  0.00000000000E+00  0.38108264621E+03  0.38108264621E+03  0.00000000000E+00 0. -1.
         21   -1    0    0  502  503 -0.00000000000E+00 -0.00000000000E+00 -0.54226723760E+03  0.54226723760E+03  0.00000000000E+00 0.  1.
         -6    2    1    2    0  503  0.22381499004E+03  0.24396584078E+03  0.18277346426E+03  0.41568012734E+03  0.17254375618E+03 0.  0.
        -24    2    3    3    0    0  0.20244248374E+03  0.15723564621E+03  0.18524081182E+03  0.32619779121E+03  0.79905149795E+02 0.  0.
          6    2    1    2  501    0 -0.22381499004E+03 -0.24396584078E+03 -0.34395805564E+03  0.50766975647E+03  0.17265270448E+03 0.  0.
         24    2    5    5    0    0 -0.39173099569E+02 -0.93968461274E+02 -0.16175084973E+03  0.20798092208E+03  0.82025137096E+02 0.  0.
          5    1    5    5  501    0 -0.18464189047E+03 -0.14999737950E+03 -0.18220720591E+03  0.29968883439E+03  0.47000000000E+01 0. -1.
        -13    1    6    6    0    0 -0.63372557877E+02 -0.50803943813E+02 -0.98298255094E+02  0.12751340617E+03  0.00000000000E+00 0.  1.
         14    1    6    6    0    0  0.24199458308E+02 -0.43164517461E+02 -0.63452594641E+02  0.80467515910E+02  0.00000000000E+00 0. -1.
         -5    1    3    3    0  503  0.21372506299E+02  0.86730194568E+02 -0.24673475623E+01  0.89482336130E+02  0.47000000000E+01 0.  1.
         11    1    4    4    0    0  0.37391484304E+02  0.15329211197E+02  0.53380618003E-01  0.40411763930E+02  0.00000000000E+00 0. -1.
        -12    1    4    4    0    0  0.16505099944E+03  0.14190643501E+03  0.18518743120E+03  0.28578602728E+03  0.00000000000E+00 0.  1.
</event>
<event>
12    1  0.1039610E+000  0.3049078E+03  0.7818608E-02  0.1083001E+00
         21   -1    0    0  501  502  0.00000000000E+00  0.00000000000E+00  0.18450224536E+03  0.18450224536E+03  0.00000000000E+00 0. -1.
         21   -1    0    0  502  503 -0.00000000000E+00 -0.00000000000E+00 -0.55520685641E+03  0.55520685641E+03  0.00000000000E+00 0. -1.
         -6    2    1    2    0  503 -0.19326092412E+02 -0.25090445094E+03 -0.70588735945E+02  0.31297214532E+03  0.17216925613E+03 0.  0.
        -24    2    3    3    0    0  0.16202529833E+02 -0.16793098185E+03  0.15581739885E+02  0.18809492371E+03  0.81691940070E+02 0.  0.
          6    2    1    2  501    0  0.19326092412E+02  0.25090445094E+03 -0.30011587510E+03  0.42673695645E+03  0.16943538640E+03 0.  0.
         24    2    5    5    0    0  0.29058351411E+02  0.69655696611E+02 -0.18455960049E+03  0.21151342053E+03  0.70564701342E+02 0.  0.
          5    1    5    5  501    0 -0.97322589990E+01  0.18124875433E+03 -0.11555627462E+03  0.21522353592E+03  0.47000000000E+01 0. -1.
        -13    1    6    6    0    0 -0.22705723237E+02  0.32173762121E+02 -0.67711644277E+02  0.78329864085E+02  0.00000000000E+00 0.  1.
         14    1    6    6    0    0  0.51764074648E+02  0.37481934489E+02 -0.11684795621E+03  0.13318355645E+03  0.00000000000E+00 0. -1.
         -5    1    3    3    0  503 -0.35528622244E+02 -0.82973469094E+02 -0.86170475830E+02  0.12487722161E+03  0.47000000000E+01 0.  1.
         11    1    4    4    0    0 -0.13174566807E+02 -0.64405806501E+02  0.41058169972E+02  0.77507744407E+02  0.00000000000E+00 0. -1.
        -12    1    4    4    0    0  0.29377096640E+02 -0.10352517534E+03 -0.25476430086E+02  0.11058717931E+03  0.00000000000E+00 0.  1.
</event>
<event>
12    1  0.1039610E+000  0.3387734E+03  0.7818608E-02  0.1067376E+00
         21   -1    0    0  501  502  0.00000000000E+00  0.00000000000E+00  0.73878573354E+03  0.73878573354E+03  0.00000000000E+00 0. -1.
         21   -1    0    0  502  503 -0.00000000000E+00 -0.00000000000E+00 -0.16186369184E+03  0.16186369184E+03  0.00000000000E+00 0. -1.
         -6    2    1    2    0  503 -0.28928315379E+03  0.32700338943E+02  0.19623364713E+03  0.39105050926E+03  0.17221730834E+03 0.  0.
        -24    2    3    3    0    0 -0.97923999882E+02  0.67237285686E+02  0.95519841931E+02  0.17201515359E+03  0.79719574277E+02 0.  0.
          6    2    1    2  501    0  0.28928315379E+03 -0.32700338943E+02  0.38068839457E+03  0.50959891612E+03  0.17324360397E+03 0.  0.
         24    2    5    5    0    0  0.83582096367E+02 -0.18015300984E+02  0.55635653163E+02  0.12461846199E+03  0.71581542756E+02 0.  0.
          5    1    5    5  501    0  0.20570105742E+03 -0.14685037960E+02  0.32505274141E+03  0.38498045413E+03  0.47000000000E+01 0. -1.
        -13    1    6    6    0    0  0.79679991040E+02 -0.30956280670E+02  0.65661337122E+02  0.10778962602E+03  0.00000000000E+00 0.  1.
         14    1    6    6    0    0  0.39021053268E+01  0.12940979687E+02 -0.10025683959E+02  0.16828835969E+02  0.00000000000E+00 0. -1.
         -5    1    3    3    0  503 -0.19135915391E+03 -0.34536946743E+02  0.10071380520E+03  0.21903535567E+03  0.47000000000E+01 0.  1.
         13    1    4    4    0    0 -0.34225482792E+02 -0.88344903586E+01  0.53819591651E+02  0.64389287446E+02  0.00000000000E+00 0. -1.
        -14    1    4    4    0    0 -0.63698517089E+02  0.76071776045E+02  0.41700250280E+02  0.10762586614E+03  0.00000000000E+00 0.  1.
</event>
<event>
12    1  0.1039610E+000  0.2215962E+03  0.7818608E-02  0.1133309E+00
         21   -1    0    0  503  502  0.00000000000E+00  0.00000000000E+00  0.88239913923E+02  0.88239913923E+02  0.00000000000E+00 0. -1.
         21   -1    0    0  501  503 -0.00000000000E+00 -0.00000000000E+00 -0.61103185393E+03  0.61103185393E+03  0.00000000000E+00 0. -1.
          6    2    1    2  501    0 -0.65105061371E+02 -0.12182127178E+03 -0.15110393486E+03  0.26821122912E+03  0.17327946509E+03 0.  0.
         24    2    3    3    0    0 -0.70625595783E+02 -0.14731891759E+03 -0.92720354769E+02  0.20409150777E+03  0.79783714482E+02 0.  0.
         -6    2    1    2    0  502  0.65105061371E+02  0.12182127178E+03 -0.37168800515E+03  0.43106053873E+03  0.16906248433E+03 0.  0.
        -24    2    5    5    0    0  0.36417156551E+02 -0.47157061284E+01 -0.12179836695E+03  0.14945527611E+03  0.78444822571E+02 0.  0.
          5    1    3    3  501    0  0.55205344114E+01  0.25497645805E+02 -0.58383580089E+02  0.64119721348E+02  0.47000000000E+01 0. -1.
        -13    1    4    4    0    0 -0.68949170110E+02 -0.65037197762E+02 -0.72536042141E+02  0.11935368683E+03  0.00000000000E+00 0.  1.
         14    1    4    4    0    0 -0.16764256722E+01 -0.82281719826E+02 -0.20184312628E+02  0.84737820935E+02  0.00000000000E+00 0. -1.
         -5    1    5    5    0  502  0.28687904821E+02  0.12653697791E+03 -0.24988963820E+03  0.28160526263E+03  0.47000000000E+01 0.  1.
         13    1    6    6    0    0  0.13313805812E+02  0.33961136553E+02 -0.30120994808E+02  0.47306347876E+02  0.00000000000E+00 0. -1.
        -14    1    6    6    0    0  0.23103350739E+02 -0.38676842682E+02 -0.91677372146E+02  0.10214892823E+03  0.00000000000E+00 0.  1.
</event>
<event>
12    1  0.1039610E+000  0.3911646E+03  0.7818608E-02  0.1046942E+00
         21   -1    0    0  501  502  0.00000000000E+00  0.00000000000E+00  0.14766226607E+04  0.14766226607E+04  0.00000000000E+00 0.  1.
         21   -1    0    0  502  503 -0.00000000000E+00 -0.00000000000E+00 -0.10387932402E+03  0.10387932402E+03  0.00000000000E+00 0. -1.
         -6    2    1    2    0  503 -0.66779634503E+02  0.34448363705E+03  0.73797666335E+03  0.83523607254E+03  0.17286192592E+03 0.  0.
        -24    2    3    3    0    0 -0.29930324135E+02  0.20414683733E+03  0.30165307793E+03  0.37539626323E+03  0.85767240399E+02 0.  0.
          6    2    1    2  501    0  0.66779634503E+02 -0.34448363705E+03  0.63476667330E+03  0.74526591217E+03  0.17135943080E+03 0.  0.
         24    2    5    5    0    0  0.92277055757E+02 -0.14716448989E+03  0.32703002098E+03  0.37878412338E+03  0.79726629199E+02 0.  0.
          5    1    5    5  501    0 -0.25497421254E+02 -0.19731914716E+03  0.30773665233E+03  0.36648178879E+03  0.47000000000E+01 0. -1.
        -13    1    6    6    0    0  0.53368239572E+02 -0.10161438419E+03  0.13280343730E+03  0.17552892932E+03  0.00000000000E+00 0.  1.
         14    1    6    6    0    0  0.38908816185E+02 -0.45550105692E+02  0.19422658368E+03  0.20325519406E+03  0.00000000000E+00 0. -1.
         -5    1    3    3    0  503 -0.36849310367E+02  0.14033679972E+03  0.43632358542E+03  0.45983980931E+03  0.47000000000E+01 0.  1.
         13    1    4    4    0    0 -0.58801314978E+02  0.16177432136E+03  0.22931299645E+03  0.28672805241E+03  0.00000000000E+00 0. -1.
        -14    1    4    4    0    0  0.28870990843E+02  0.42372515961E+02  0.72340081480E+02  0.88668210819E+02  0.00000000000E+00 0.  1.
</event>
<event>
12    1  0.1039610E+000  0.2453683E+03  0.7818608E-02  0.1116340E+00
         21   -1    0    0  503  502  0.00000000000E+00  0.00000000000E+00  0.68175430484E+03  0.68175430484E+03  0.00000000000E+00 0. -1.
         21   -1    0    0  501  503 -0.00000000000E+00 -0.00000000000E+00 -0.91191706320E+02  0.91191706320E+02  0.00000000000E+00 0.  1.
          6    2    1    2  501    0  0.98849999389E+02 -0.14468775514E+03  0.22441883939E+03  0.33218889694E+03  0.17111335106E+03 0.  0.
         24    2    3    3    0    0  0.79866714351E+02 -0.34430836786E+02  0.59263067301E+02  0.13265074969E+03  0.80746118565E+02 0.  0.
         -6    2    1    2    0  502 -0.98849999389E+02  0.14468775514E+03  0.36614375912E+03  0.44075711421E+03  0.17175480347E+03 0.  0.
        -24    2    5    5    0    0 -0.45167140269E+02  0.14610877676E+03  0.19051357810E+03  0.25704016031E+03  0.79914800652E+02 0.  0.
          5    1    3    3  501    0  0.18983285037E+02 -0.11025691836E+03  0.16515577209E+03  0.19953814726E+03  0.47000000000E+01 0. -1.
        -11    1    4    4    0    0  0.31665743523E+02 -0.34327045496E+02  0.69152715931E+02  0.83445571997E+02  0.00000000000E+00 0.  1.
         12    1    4    4    0    0  0.48200970828E+02 -0.10379129077E+00 -0.98896486301E+01  0.49205177689E+02  0.00000000000E+00 0. -1.
         -5    1    5    5    0  502 -0.53682859119E+02 -0.14210216190E+01  0.17563018103E+03  0.18371695391E+03  0.47000000000E+01 0.  1.
         13    1    6    6    0    0 -0.73640987787E+01 -0.69033236057E+01  0.31795022093E+02  0.33358795805E+02  0.00000000000E+00 0. -1.
        -14    1    6    6    0    0 -0.37803041491E+02  0.15301210037E+03  0.15871855601E+03  0.22368136450E+03  0.00000000000E+00 0.  1.
</event>
<event>
12    1  0.1039610E+000  0.2117766E+03  0.7818608E-02  0.1140209E+00
         21   -1    0    0  503  502  0.00000000000E+00  0.00000000000E+00  0.36542502282E+03  0.36542502282E+03  0.00000000000E+00 0. -1.
         21   -1    0    0  501  503 -0.00000000000E+00 -0.00000000000E+00 -0.12888527868E+03  0.12888527868E+03  0.00000000000E+00 0. -1.
          6    2    1    2  501    0  0.11385069945E+03 -0.47997006669E+02  0.63782097903E+02  0.22117300040E+03  0.17199897000E+03 0.  0.
         24    2    3    3    0    0  0.11399516597E+03  0.18979993450E+02  0.52742993825E+01  0.13211576093E+03  0.63809231587E+02 0.  0.
         -6    2    1    2    0  502 -0.11385069945E+03  0.47997006669E+02  0.17275764623E+03  0.27313730109E+03  0.17173551323E+03 0.  0.
        -24    2    5    5    0    0 -0.13811066475E+03  0.16449320124E+02  0.16776966366E+03  0.23275447785E+03  0.81748706812E+02 0.  0.
          5    1    3    3  501    0 -0.14446652149E+00 -0.66977000119E+02  0.58507798520E+02  0.89057239477E+02  0.47000000000E+01 0. -1.
        -13    1    4    4    0    0  0.39573047440E+02  0.33837975983E+02  0.18150264829E+02  0.55140428142E+02  0.00000000000E+00 0.  1.
         14    1    4    4    0    0  0.74422118528E+02 -0.14857982533E+02 -0.12875965446E+02  0.76975332784E+02  0.00000000000E+00 0. -1.
         -5    1    5    5    0  502  0.24259965305E+02  0.31547686545E+02  0.49879825736E+01  0.40382823243E+02  0.47000000000E+01 0.  1.
         11    1    6    6    0    0  0.71414462834E+01 -0.51156144334E+01 -0.12300135164E+01  0.88703268993E+01  0.00000000000E+00 0. -1.
        -12    1    6    6    0    0 -0.14525211103E+03  0.21564934558E+02  0.16899967717E+03  0.22388415095E+03  0.00000000000E+00 0.  1.
</event>
<event>
12    1  0.1039610E+000  0.2628597E+03  0.7818608E-02  0.1105682E+00
         21   -1    0    0  501  502  0.00000000000E+00  0.00000000000E+00  0.78620757445E+02  0.78620757445E+02  0.00000000000E+00 0.  1.
         21   -1    0    0  502  503 -0.00000000000E+00 -0.00000000000E+00 -0.11641061968E+04  0.11641061968E+04  0.00000000000E+00 0.  1.
         -6    2    1    2    0  503  0.19517975879E+03 -0.38485679615E+02 -0.85456016612E+03  0.89407399814E+03  0.17181079957E+03 0.  0.
        -24    2    3    3    0    0  0.16307618068E+03 -0.83189137686E+02 -0.74630253210E+03  0.77253863615E+03  0.79587697441E+02 0.  0.
          6    2    1    2  501    0 -0.19517975879E+03  0.38485679615E+02 -0.23092527328E+03  0.34865295615E+03  0.16928117503E+03 0.  0.
         24    2    5    5    0    0 -0.43070841249E+02  0.50208525309E+02 -0.12438829843E+03  0.16251654135E+03  0.81013480643E+02 0.  0.
          5    1    5    5  501    0 -0.15210891754E+03 -0.11722845694E+02 -0.10653697484E+03  0.18613641480E+03  0.47000000000E+01 0. -1.
        -13    1    6    6    0    0 -0.62177725098E+02  0.47952201560E+02 -0.71347286161E+02  0.10609391300E+03  0.00000000000E+00 0.  1.
         14    1    6    6    0    0  0.19106883850E+02  0.22563237490E+01 -0.53041012271E+02  0.56422628351E+02  0.00000000000E+00 0. -1.
         -5    1    3    3    0  503  0.32103578104E+02  0.44703458071E+02 -0.10825763402E+03  0.12153536199E+03  0.47000000000E+01 0.  1.
         11    1    4    4    0    0  0.11018790049E+03 -0.41962871191E+02 -0.32074929940E+03  0.34173435449E+03  0.00000000000E+00 0. -1.
        -12    1    4    4    0    0  0.52888280188E+02 -0.41226266495E+02 -0.42555323270E+03  0.43080428166E+03  0.00000000000E+00 0.  1.
</event>
<event>
12    1  0.1039610E+000  0.1767659E+03  0.7818608E-02  0.1171596E+00
         21   -1    0    0  501  502  0.00000000000E+00  0.00000000000E+00  0.60328811179E+02  0.60328811179E+02  0.00000000000E+00 0.  1.
         21   -1    0    0  502  503 -0.00000000000E+00 -0.00000000000E+00 -0.66729192876E+03  0.66729192876E+03  0.00000000000E+00 0.  1.
         -6    2    1    2    0  503 -0.11512771071E+02  0.40116933991E+02 -0.48142739008E+03  0.51285331781E+03  0.17176810349E+03 0.  0.
        -24    2    3    3    0    0 -0.31353064517E+02  0.71767303256E+02 -0.19185943637E+03  0.22084805598E+03  0.76356139467E+02 0.  0.
          6    2    1    2  501    0  0.11512771071E+02 -0.40116933991E+02 -0.12553572750E+03  0.21476742213E+03  0.16918603500E+03 0.  0.
         24    2    5    5    0    0 -0.29139644845E+02 -0.37008028205E+02 -0.10629217001E+02  0.92751520013E+02  0.79190600183E+02 0.  0.
          5    1    5    5  501    0  0.40652415916E+02 -0.31089057854E+01 -0.11490651049E+03  0.12201590212E+03  0.47000000000E+01 0. -1.
        -11    1    6    6    0    0  0.11147895658E+02 -0.45446709758E+02  0.81666657565E+01  0.47501299298E+02  0.00000000000E+00 0.  1.
         12    1    6    6    0    0 -0.40287540502E+02  0.84386815531E+01 -0.18795882758E+02  0.45250220715E+02  0.00000000000E+00 0. -1.
         -5    1    3    3    0  503  0.19840293445E+02 -0.31650369265E+02 -0.28956795371E+03  0.29200526183E+03  0.47000000000E+01 0.  1.
         13    1    4    4    0    0 -0.23000149846E+02  0.26299518750E+02 -0.16220617753E+03  0.16592623544E+03  0.00000000000E+00 0. -1.
        -14    1    4    4    0    0 -0.83529146711E+01  0.45467784506E+02 -0.29653258844E+02  0.54921820540E+02  0.00000000000E+00 0.  1.
</event>
<event>
12    1  0.1039610E+000  0.3027148E+03  0.7818608E-02  0.1085374E+00
         21   -1    0    0  501  502  0.00000000000E+00  0.00000000000E+00  0.38654083576E+03  0.38654083576E+03  0.00000000000E+00 0.  1.
         21   -1    0    0  502  503 -0.00000000000E+00 -0.00000000000E+00 -0.28049212299E+03  0.28049212299E+03  0.00000000000E+00 0.  1.
         -6    2    1    2    0  503 -0.65842626380E+02 -0.22517060420E+03  0.19648794900E+03  0.35109706063E+03  0.17211792305E+03 0.  0.
        -24    2    3    3    0    0 -0.59805418183E+02 -0.69153484497E+02  0.13920665759E+03  0.18472090288E+03  0.79902603088E+02 0.  0.
          6    2    1    2  501    0  0.65842626380E+02  0.22517060420E+03 -0.90439236235E+02  0.31593589812E+03  0.19130913157E+03 0.  0.
         24    2    5    5    0    0  0.24630082071E+02  0.73150336178E+02  0.33762564042E+02  0.11529489311E+03  0.78710793545E+02 0.  0.
          5    1    5    5  501    0  0.41212544309E+02  0.15202026803E+03 -0.12420180028E+03  0.20064100501E+03  0.47000000000E+01 0. -1.
        -13    1    6    6    0    0 -0.88824630044E+01 -0.14131390589E+02  0.64344267130E+01  0.17888437498E+02  0.00000000000E+00 0.  1.
         14    1    6    6    0    0  0.33512545075E+02  0.87281726766E+02  0.27328137329E+02  0.97406455610E+02  0.00000000000E+00 0. -1.
         -5    1    3    3    0  503 -0.60372081965E+01 -0.15601711971E+03  0.57281291413E+02  0.16637615776E+03  0.47000000000E+01 0.  1.
         11    1    4    4    0    0 -0.25570709167E+02 -0.73623590662E+02  0.12517040452E+03  0.14745143078E+03  0.00000000000E+00 0. -1.
        -12    1    4    4    0    0 -0.34234709016E+02  0.44701061648E+01  0.14036253064E+02  0.37269472100E+02  0.00000000000E+00 0.  1.
</event>
<event>
12    1  0.1039610E+000  0.1909191E+03  0.7818608E-02  0.1157688E+00
         21   -1    0    0  501  502  0.00000000000E+00  0.00000000000E+00  0.70421787042E+02  0.70421787042E+02  0.00000000000E+00 0.  1.
         21   -1    0    0  502  503 -0.00000000000E+00 -0.00000000000E+00 -0.77466385060E+03  0.77466385060E+03  0.00000000000E+00 0.  1.
         -6    2    1    2    0  503 -0.50869759829E+02 -0.65710554509E+02 -0.10855374402E+03  0.21962247984E+03  0.17188516188E+03 0.  0.
        -24    2    3    3    0    0  0.20033746912E+01 -0.77013187622E+02 -0.13494393765E+02  0.11016158299E+03  0.77578548106E+02 0.  0.
          6    2    1    2  501    0  0.50869759829E+02  0.65710554509E+02 -0.59568831954E+03  0.62546315780E+03  0.17162161370E+03 0.  0.
         24    2    5    5    0    0  0.29669514325E+02 -0.73306268380E+01 -0.47587472289E+03  0.48347071953E+03  0.79706753742E+02 0.  0.
          5    1    5    5  501    0  0.21200245504E+02  0.73041181347E+02 -0.11981359665E+03  0.14199243826E+03  0.47000000000E+01 0. -1.
        -11    1    6    6    0    0  0.10675811492E+02 -0.28305936495E+02 -0.41754554145E+03  0.41864003413E+03  0.00000000000E+00 0.  1.
         12    1    6    6    0    0  0.18993702833E+02  0.20975309657E+02 -0.58329181433E+02  0.64830685398E+02  0.00000000000E+00 0. -1.
         -5    1    3    3    0  503 -0.52873134520E+02  0.11302633113E+02 -0.95059350251E+02  0.10946089685E+03  0.47000000000E+01 0.  1.
         13    1    4    4    0    0 -0.14281249074E+02 -0.38185249693E+02 -0.42609033128E+02  0.58971154587E+02  0.00000000000E+00 0. -1.
        -14    1    4    4    0    0  0.16284623765E+02 -0.38827937928E+02  0.29114639363E+02  0.51190428404E+02  0.00000000000E+00 0.  1.
</event>
<event>
12    1  0.1039610E+000  0.1993377E+03  0.7818608E-02  0.1150806E+00
         21   -1    0    0  501  502  0.00000000000E+00  0.00000000000E+00  0.22347645550E+03  0.22347645550E+03  0.00000000000E+00 0. -1.
         21   -1    0    0  502  503 -0.00000000000E+00 -0.00000000000E+00 -0.17571818900E+03  0.17571818900E+03  0.00000000000E+00 0. -1.
         -6    2    1    2    0  503  0.72693691546E+01  0.97695733259E+02  0.21195110314E+02  0.19809488980E+03  0.17086559818E+03 0.  0.
        -24    2    3    3    0    0 -0.16843429172E+02  0.15719267069E+02  0.59885349892E+02  0.10417687933E+03  0.82071740521E+02 0.  0.
          6    2    1    2  501    0 -0.72693691546E+01 -0.97695733259E+02  0.26563156188E+02  0.20109975469E+03  0.17360360033E+03 0.  0.
         24    2    5    5    0    0 -0.18608868081E+02  0.14386113603E+02 -0.10267113255E+02  0.82484901581E+02  0.78390657214E+02 0.  0.
          5    1    5    5  501    0  0.11339498926E+02 -0.11208184686E+03  0.36830269442E+02  0.11861485311E+03  0.47000000000E+01 0. -1.
        -11    1    6    6    0    0 -0.18570789770E+02  0.33914856614E+02  0.22208012394E+02  0.44590218056E+02  0.00000000000E+00 0.  1.
         12    1    6    6    0    0 -0.38078310587E-01 -0.19528743011E+02 -0.32475125648E+02  0.37894683525E+02  0.00000000000E+00 0. -1.
         -5    1    3    3    0  503  0.24112798326E+02  0.81976466190E+02 -0.38690239578E+02  0.93918010470E+02  0.47000000000E+01 0.  1.
         13    1    4    4    0    0 -0.27660491821E+02  0.97086239090E+01 -0.11675188838E+02  0.31554242510E+02  0.00000000000E+00 0. -1.
        -14    1    4    4    0    0  0.10817062649E+02  0.60106431603E+01  0.71560538731E+02  0.72622636822E+02  0.00000000000E+00 0.  1.
</event>
<event>
12    1  0.1039610E+000  0.1728818E+03  0.7818608E-02  0.1175587E+00
         21   -1    0    0  501  502  0.00000000000E+00  0.00000000000E+00  0.11281080199E+04  0.11281080199E+04  0.00000000000E+00 0.  1.
         21   -1    0    0  502  503 -0.00000000000E+00 -0.00000000000E+00 -0.27158532707E+02  0.27158532707E+02  0.00000000000E+00 0.  1.
         -6    2    1    2    0  503 -0.26886275162E+01  0.10572420521E+02  0.67026063406E+03  0.69219753102E+03  0.17253724116E+03 0.  0.
        -24    2    3    3    0    0  0.26337875964E+02  0.38962172352E+02  0.62257647856E+03  0.62939319519E+03  0.79514702478E+02 0.  0.
          6    2    1    2  501    0  0.26886275162E+01 -0.10572420521E+02  0.43068885314E+03  0.46306902159E+03  0.16976756389E+03 0.  0.
         24    2    5    5    0    0  0.11350215148E+02 -0.67661849823E+02  0.30391979893E+03  0.32368929157E+03  0.87752834629E+02 0.  0.
          5    1    5    5  501    0 -0.86615876322E+01  0.57089429302E+02  0.12676905420E+03  0.13937973003E+03  0.47000000000E+01 0. -1.
        -13    1    6    6    0    0  0.48743881833E+02 -0.28642967031E+02  0.13587744438E+03  0.14717019218E+03  0.00000000000E+00 0.  1.
         14    1    6    6    0    0 -0.37393666685E+02 -0.39018882792E+02  0.16804235456E+03  0.17651909938E+03  0.00000000000E+00 0. -1.
         -5    1    3    3    0  503 -0.29026503480E+02 -0.28389751831E+02  0.47684155498E+02  0.62804335828E+02  0.47000000000E+01 0.  1.
         11    1    4    4    0    0 -0.23696650513E+02  0.34618620381E+02  0.26253308626E+03  0.26586387778E+03  0.00000000000E+00 0. -1.
        -12    1    4    4    0    0  0.50034526477E+02  0.43435519717E+01  0.36004339229E+03  0.36352931741E+03  0.00000000000E+00 0.  1.
</event>
<event>
12    1  0.1039610E+000  0.1975061E+03  0.7818608E-02  0.1152408E+00
         21   -1    0    0  503  502  0.00000000000E+00  0.00000000000E+00  0.62437317129E+02  0.62437317129E+02  0.00000000000E+00 0. -1.
         21   -1    0    0  501  503 -0.00000000000E+00 -0.00000000000E+00 -0.63192991905E+03  0.63192991905E+03  0.00000000000E+00 0. -1.
          6    2    1    2  501    0 -0.61318428126E+02  0.75172659128E+02 -0.33672411640E+03  0.38909715098E+03  0.16912298491E+03 0.  0.
         24    2    3    3    0    0  0.15089108918E+02 -0.39850567105E+01 -0.17841914584E+03  0.19625885241E+03  0.80253247032E+02 0.  0.
         -6    2    1    2    0  502  0.61318428126E+02 -0.75172659128E+02 -0.23276848552E+03  0.30527008520E+03  0.17204004987E+03 0.  0.
        -24    2    5    5    0    0  0.10192798555E+03 -0.41188223081E+02 -0.20288106107E+03  0.24428298666E+03  0.80172742719E+02 0.  0.
          5    1    3    3  501    0 -0.76407537044E+02  0.79157715838E+02 -0.15830497056E+03  0.19283829857E+03  0.47000000000E+01 0. -1.
        -11    1    4    4    0    0  0.28666297357E+02  0.25653067712E+02 -0.46392235022E+02  0.60266706875E+02  0.00000000000E+00 0.  1.
         12    1    4    4    0    0 -0.13577188439E+02 -0.29638124422E+02 -0.13202691082E+03  0.13599214553E+03  0.00000000000E+00 0. -1.
         -5    1    5    5    0  502 -0.40609557421E+02 -0.33984436047E+02 -0.29887424450E+02  0.60987098534E+02  0.47000000000E+01 0.  1.
         11    1    6    6    0    0  0.13277258289E+02 -0.45411646220E+02 -0.70445463863E+02  0.84859098387E+02  0.00000000000E+00 0. -1.
        -12    1    6    6    0    0  0.88650727258E+02  0.42234231391E+01 -0.13243559720E+03  0.15942388828E+03  0.00000000000E+00 0.  1.
</event>
<event>
12    1  0.1039610E+000  0.2457720E+03  0.7818608E-02  0.1116013E+00
         21   -1    0    0  501  502  0.00000000000E+00  0.00000000000E+00  0.16332750557E+03  0.16332750557E+03  0.00000000000E+00 0. -1.
         21   -1    0    0  502  503 -0.00000000000E+00 -0.00000000000E+00 -0.66636379978E+03  0.66636379978E+03  0.00000000000E+00 0.  1.
         -6    2    1    2    0  503 -0.50342949449E+01  0.17490803665E+03 -0.52827035825E+03  0.58262723775E+03  0.17253046500E+03 0.  0.
        -24    2    3    3    0    0  0.87654288912E+01  0.89044912669E+01 -0.16865076345E+03  0.18627392009E+03  0.78094625835E+02 0.  0.
          6    2    1    2  501    0  0.50342949449E+01 -0.17490803665E+03  0.25234064045E+02  0.24706406760E+03  0.17258542841E+03 0.  0.
         24    2    5    5    0    0 -0.48698162908E+02 -0.13251553399E+03  0.57059807364E+02  0.17143821722E+03  0.78761430194E+02 0.  0.
          5    1    5    5  501    0  0.53732457853E+02 -0.42392502660E+02 -0.31825743320E+02  0.75625850386E+02  0.47000000000E+01 0. -1.
        -11    1    6    6    0    0  0.17165266808E+02 -0.61933387191E+02  0.31500045629E+02  0.71572646368E+02  0.00000000000E+00 0.  1.
         12    1    6    6    0    0 -0.65863429716E+02 -0.70582146800E+02  0.25559761736E+02  0.99865570848E+02  0.00000000000E+00 0. -1.
         -5    1    3    3    0  503 -0.13799723836E+02  0.16600354538E+03 -0.35961959480E+03  0.39635331766E+03  0.47000000000E+01 0.  1.
         13    1    4    4    0    0 -0.22354384291E+02 -0.84735563110E+01 -0.14290835443E+02  0.27852246431E+02  0.00000000000E+00 0. -1.
        -14    1    4    4    0    0  0.31119813182E+02  0.17378047578E+02 -0.15435992801E+03  0.15842167366E+03  0.00000000000E+00 0.  1.
</event>
<event>
12    1  0.1039610E+000  0.2366987E+03  0.7818608E-02  0.1122092E+00
         21   -1    0    0  501  502  0.00000000000E+00  0.00000000000E+00  0.11363992892E+04  0.11363992892E+04  0.00000000000E+00 0. -1.
         21   -1    0    0  502  503 -0.00000000000E+00 -0.00000000000E+00 -0.50561316292E+02  0.50561316292E+02  0.00000000000E+00 0. -1.
         -6    2    1    2    0  503  0.11810717663E+03 -0.11124428152E+03  0.63965964580E+03  0.68188501425E+03  0.17169191846E+03 0.  0.
        -24    2    3    3    0    0  0.15104755128E+03 -0.83113634662E+02  0.47548702756E+03  0.51202878048E+03  0.79764150107E+02 0.  0.
          6    2    1    2  501    0 -0.11810717663E+03  0.11124428152E+03  0.44617832715E+03  0.50507559127E+03  0.17234168951E+03 0.  0.
         24    2    5    5    0    0 -0.74398398766E+02  0.13911472718E+03  0.28884204999E+03  0.33935289182E+03  0.82720168574E+02 0.  0.
          5    1    5    5  501    0 -0.43708777862E+02 -0.27870445659E+02  0.15733627716E+03  0.16572269946E+03  0.47000000000E+01 0. -1.
        -13    1    6    6    0    0 -0.90750828672E+02  0.11093520749E+03  0.21214975097E+03  0.25602704936E+03  0.00000000000E+00 0.  1.
         14    1    6    6    0    0  0.16352429905E+02  0.28179519685E+02  0.76692299018E+02  0.83325842463E+02  0.00000000000E+00 0. -1.
         -5    1    3    3    0  503 -0.32940374656E+02 -0.28130646856E+02  0.16417261823E+03  0.16985623378E+03  0.47000000000E+01 0.  1.
         11    1    4    4    0    0  0.27195513040E+02  0.17891671565E+01  0.16385706259E+03  0.16610819970E+03  0.00000000000E+00 0. -1.
        -12    1    4    4    0    0  0.12385203824E+03 -0.84902801819E+02  0.31162996497E+03  0.34592058077E+03  0.00000000000E+00 0.  1.
</event>
<event>
12    1  0.1039610E+000  0.1956390E+03  0.7818608E-02  0.1154163E+00
         21   -1    0    0  501  502  0.00000000000E+00  0.00000000000E+00  0.71904563164E+03  0.71904563164E+03  0.00000000000E+00 0.  1.
         21   -1    0    0  502  503 -0.00000000000E+00 -0.00000000000E+00 -0.52374968011E+02  0.52374968011E+02  0.00000000000E+00 0.  1.
         -6    2    1    2    0  503 -0.89152936210E+02 -0.59251226154E+01  0.32853832241E+03  0.38076974675E+03  0.17048406856E+03 0.  0.
        -24    2    3    3    0    0 -0.34067692828E+02 -0.29998775236E+02  0.74306264628E+02  0.11948455009E+03  0.81820550822E+02 0.  0.
          6    2    1    2  501    0  0.89152936210E+02  0.59251226154E+01  0.33813234122E+03  0.39065085291E+03  0.17404383236E+03 0.  0.
         24    2    5    5    0    0  0.83909989504E+02 -0.35222788909E+02  0.32685555910E+03  0.34740857119E+03  0.74676821202E+02 0.  0.
          5    1    5    5  501    0  0.52429467065E+01  0.41147911525E+02  0.11276782122E+02  0.43242281716E+02  0.47000000000E+01 0. -1.
        -11    1    6    6    0    0  0.75238824757E+02 -0.56829944954E+02  0.25491265562E+03  0.27179217316E+03  0.00000000000E+00 0.  1.
         12    1    6    6    0    0  0.86711647472E+01  0.21607156044E+02  0.71942903478E+02  0.75616398031E+02  0.00000000000E+00 0. -1.
         -5    1    3    3    0  503 -0.55085243383E+02  0.24073652620E+02  0.25423205778E+03  0.26128519666E+03  0.47000000000E+01 0.  1.
         11    1    4    4    0    0 -0.59611722899E+02 -0.25090582611E+02  0.38637921895E+02  0.75339125633E+02  0.00000000000E+00 0. -1.
        -12    1    4    4    0    0  0.25544030071E+02 -0.49081926245E+01  0.35668342733E+02  0.44145424457E+02  0.00000000000E+00 0.  1.
</event>
<event>
12    1  0.1039610E+000  0.1742329E+03  0.7818608E-02  0.1173510E+00
         21   -1    0    0  503  502  0.00000000000E+00  0.00000000000E+00  0.41447486508E+02  0.41447486508E+02  0.00000000000E+00 0. -1.
         21   -1    0    0  501  503 -0.00000000000E+00 -0.00000000000E+00 -0.10689680495E+04  0.10689680495E+04  0.00000000000E+00 0. -1.
          6    2    1    2  501    0  0.28471948534E+02 -0.30545141226E+01 -0.20216987830E+03  0.26687487516E+03  0.17184166373E+03 0.  0.
         24    2    3    3    0    0  0.33866850853E+02  0.46058442849E+02 -0.57127223312E+02  0.11357566030E+03  0.79797037691E+02 0.  0.
         -6    2    1    2    0  502 -0.28471948534E+02  0.30545141226E+01 -0.82535068467E+03  0.84354066082E+03  0.17186364322E+03 0.  0.
        -24    2    5    5    0    0 -0.20303200582E+02 -0.65900003809E+02 -0.46786906296E+03  0.47934750624E+03  0.78214712182E+02 0.  0.
          5    1    3    3  501    0 -0.53949023188E+01 -0.49112956971E+02 -0.14504265498E+03  0.15329921486E+03  0.47000000000E+01 0. -1.
        -13    1    4    4    0    0  0.24437320192E+02 -0.10639795522E+02  0.69026927935E+01  0.27532436047E+02  0.00000000000E+00 0.  1.
         14    1    4    4    0    0  0.94295306610E+01  0.56698238371E+02 -0.64029916106E+02  0.86043224250E+02  0.00000000000E+00 0. -1.
         -5    1    5    5    0  502 -0.81687479517E+01  0.68954517931E+02 -0.35748162170E+03  0.36419315458E+03  0.47000000000E+01 0.  1.
         11    1    6    6    0    0 -0.65846168228E+01 -0.31346544054E+01 -0.20976479468E+00  0.72956999810E+01  0.00000000000E+00 0. -1.
        -12    1    6    6    0    0 -0.13718583760E+02 -0.62765349403E+02 -0.46765929817E+03  0.47205180626E+03  0.00000000000E+00 0.  1.
</event>
<event>
12    1  0.1039610E+000  0.4664119E+03  0.7818608E-02  0.1022962E+00
         21   -1    0    0  503  502  0.00000000000E+00  0.00000000000E+00  0.78859826518E+03  0.78859826518E+03  0.00000000000E+00 0.  1.
         21   -1    0    0  501  503 -0.00000000000E+00 -0.00000000000E+00 -0.29900181469E+03  0.29900181469E+03  0.00000000000E+00 0.  1.
          6    2    1    2  501    0  0.45863091766E+02  0.43070828353E+03  0.39666977520E+03  0.61202100224E+03  0.17207483237E+03 0.  0.
         24    2    3    3    0    0  0.45494773316E+02  0.10683647867E+03  0.12092448398E+03  0.18663807208E+03  0.82019702198E+02 0.  0.
         -6    2    1    2    0  502 -0.45863091766E+02 -0.43070828353E+03  0.92926675282E+02  0.47557907763E+03  0.17299434505E+03 0.  0.
        -24    2    5    5    0    0 -0.88720398761E+02 -0.36137827800E+03  0.99347280721E+02  0.39368455643E+03  0.81560277197E+02 0.  0.
          5    1    3    3  501    0  0.36831845009E+00  0.32387180486E+03  0.27574529122E+03  0.42538293016E+03  0.47000000000E+01 0. -1.
        -11    1    4    4    0    0  0.55574224417E+02  0.65218804025E+02  0.38885471286E+02  0.94096050370E+02  0.00000000000E+00 0.  1.
         12    1    4    4    0    0 -0.10079451101E+02  0.41617674640E+02  0.82039012698E+02  0.92542021706E+02  0.00000000000E+00 0. -1.
         -5    1    5    5    0  502  0.42857306995E+02 -0.69330005523E+02 -0.64206054391E+01  0.81894521202E+02  0.47000000000E+01 0.  1.
         13    1    6    6    0    0 -0.18174214801E+02 -0.22116175834E+03  0.78301751288E+02  0.23531678582E+03  0.00000000000E+00 0. -1.
        -14    1    6    6    0    0 -0.70546183961E+02 -0.14021651966E+03  0.21045529433E+02  0.15836777061E+03  0.00000000000E+00 0.  1.
</event>
<event>
12    1  0.1039610E+000  0.1912239E+03  0.7818608E-02  0.1162108E+00
         21   -1    0    0  503  502  0.00000000000E+00  0.00000000000E+00  0.24657905525E+03  0.24657905525E+03  0.00000000000E+00 0. -1.
         21   -1    0    0  501  503 -0.00000000000E+00 -0.00000000000E+00 -0.13599258146E+03  0.13599258146E+03  0.00000000000E+00 0. -1.
          6    2    1    2  501    0  0.64100714498E+02 -0.53483309479E+02  0.24855404832E+02  0.17300924342E+03  0.14948257814E+03 0.  0.
         24    2    3    3    0    0  0.71218299599E+02 -0.23529282785E+02 -0.28232858053E+02  0.11145960988E+03  0.77462745973E+02 0.  0.
         -6    2    1    2    0  502 -0.64100714498E+02  0.53483309479E+02  0.85731068961E+02  0.20956239329E+03  0.17203840997E+03 0.  0.
        -24    2    5    5    0    0  0.58915611012E+01 -0.13437857895E+01  0.87372608502E+02  0.12051345354E+03  0.82782869698E+02 0.  0.
          5    1    3    3  501    0 -0.71175851008E+01 -0.29954026694E+02  0.53088262885E+02  0.61549633540E+02  0.47000000000E+01 0. -1.
        -11    1    4    4    0    0  0.36967653483E+02  0.63999823483E+01 -0.48788390275E+02  0.61545708247E+02  0.00000000000E+00 0.  1.
         12    1    4    4    0    0  0.34250646116E+02 -0.29929265134E+02  0.20555532222E+02  0.49913901628E+02  0.00000000000E+00 0. -1.
         -5    1    5    5    0  502 -0.69992275599E+02  0.54827095269E+02 -0.16415395405E+01  0.89048939754E+02  0.47000000000E+01 0.  1.
         11    1    6    6    0    0  0.19934114665E+02  0.27696520512E+02  0.80637308030E+02  0.87560502639E+02  0.00000000000E+00 0. -1.
        -12    1    6    6    0    0 -0.14042553564E+02 -0.29040306302E+02  0.67353004714E+01  0.32952950902E+02  0.00000000000E+00 0.  1.
</event>
<event>
12    1  0.1039610E+000  0.1926664E+03  0.7818608E-02  0.1156135E+00
         21   -1    0    0  503  502  0.00000000000E+00  0.00000000000E+00  0.90073453796E+02  0.90073453796E+02  0.00000000000E+00 0. -1.
         21   -1    0    0  501  503 -0.00000000000E+00 -0.00000000000E+00 -0.67044076050E+03  0.67044076050E+03  0.00000000000E+00 0. -1.
          6    2    1    2  501    0  0.85166021836E+02 -0.17551891950E+02 -0.53772963364E+02  0.19978082388E+03  0.17163777502E+03 0.  0.
         24    2    3    3    0    0  0.53555800799E+02 -0.61761845483E+02 -0.78952191086E+02  0.13969913304E+03  0.81238229533E+02 0.  0.
         -6    2    1    2    0  502 -0.85166021836E+02  0.17551891950E+02 -0.52659434334E+03  0.56073339042E+03  0.17192734659E+03 0.  0.
        -24    2    5    5    0    0  0.12087125974E+01 -0.35401747998E+02 -0.20723813145E+03  0.22565852893E+03  0.81971847619E+02 0.  0.
          5    1    3    3  501    0  0.31610221037E+02  0.44209953533E+02  0.25179227722E+02  0.60081690839E+02  0.47000000000E+01 0. -1.
        -11    1    4    4    0    0 -0.21185176735E+02 -0.11577007114E+02 -0.92896432397E+01  0.25867668595E+02  0.00000000000E+00 0.  1.
         12    1    4    4    0    0  0.74740977534E+02 -0.50184838369E+02 -0.69662547847E+02  0.11383146444E+03  0.00000000000E+00 0. -1.
         -5    1    5    5    0  502 -0.86374734433E+02  0.52953639948E+02 -0.31935621188E+03  0.33507486149E+03  0.47000000000E+01 0.  1.
         13    1    6    6    0    0 -0.22038041806E+02  0.10178929447E+01 -0.16049969244E+03  0.16200883515E+03  0.00000000000E+00 0. -1.
        -14    1    6    6    0    0  0.23246754404E+02 -0.36419640943E+02 -0.46738439010E+02  0.63649693777E+02  0.00000000000E+00 0.  1.
</event>
<event>
12    1  0.1039610E+000  0.1751099E+03  0.7818608E-02  0.1173733E+00
         21   -1    0    0  501  502  0.00000000000E+00  0.00000000000E+00  0.11332568142E+04  0.11332568142E+04  0.00000000000E+00 0. -1.
         21   -1    0    0  502  503 -0.00000000000E+00 -0.00000000000E+00 -0.26397224677E+02  0.26397224677E+02  0.00000000000E+00 0. -1.
         -6    2    1    2    0  503 -0.40848670136E+02  0.15326564359E+00  0.55815073610E+03  0.58368104933E+03  0.16577902698E+03 0.  0.
        -24    2    3    3    0    0  0.38080097854E+02 -0.89162411928E+01  0.34054733255E+03  0.35198008341E+03  0.79924340458E+02 0.  0.
          6    2    1    2  501    0  0.40848670136E+02 -0.15326564359E+00  0.54870885338E+03  0.57597298951E+03  0.17027871719E+03 0.  0.
         24    2    5    5    0    0 -0.18205878808E+02 -0.38050670531E+01  0.47153987880E+03  0.47861840029E+03  0.79873545313E+02 0.  0.
          5    1    5    5  501    0  0.59054548945E+02  0.36518014096E+01  0.77168974588E+02  0.97354589227E+02  0.47000000000E+01 0. -1.
        -11    1    6    6    0    0 -0.25307957975E+02 -0.38695264146E+02  0.25107785591E+03  0.25529963951E+03  0.00000000000E+00 0.  1.
         12    1    6    6    0    0  0.71020791666E+01  0.34890197093E+02  0.22046202288E+03  0.22331876078E+03  0.00000000000E+00 0. -1.
         -5    1    3    3    0  503 -0.78928767990E+02  0.90695068363E+01  0.21760340355E+03  0.23170096592E+03  0.47000000000E+01 0.  1.
         11    1    4    4    0    0  0.21930440906E+02  0.15888418840E+01  0.32854837488E+03  0.32928331766E+03  0.00000000000E+00 0. -1.
        -12    1    4    4    0    0  0.16149656948E+02 -0.10505083077E+02  0.11998957675E+02  0.22696765745E+02  0.00000000000E+00 0.  1.
</event>
<event>
12    1  0.1039610E+000  0.2642232E+03  0.7818608E-02  0.1104839E+00
         21   -1    0    0  501  502  0.00000000000E+00  0.00000000000E+00  0.18924852248E+04  0.18924852248E+04  0.00000000000E+00 0.  1.
         21   -1    0    0  502  503 -0.00000000000E+00 -0.00000000000E+00 -0.39683701266E+02  0.39683701266E+02  0.00000000000E+00 0.  1.
         -6    2    1    2    0  503 -0.10036980809E+03 -0.17222919795E+03  0.11938243002E+04  0.12227143339E+04  0.17342689422E+03 0.  0.
        -24    2    3    3    0    0 -0.40961449702E+02 -0.18241668553E+03  0.92466536647E+03  0.94684886027E+03  0.81012571387E+02 0.  0.
          6    2    1    2  501    0  0.10036980809E+03  0.17222919795E+03  0.65897722333E+03  0.70945459213E+03  0.17128293093E+03 0.  0.
         24    2    5    5    0    0  0.73319938152E+02  0.23791159004E+02  0.28124681186E+03  0.30267713379E+03  0.81066920243E+02 0.  0.
          5    1    5    5  501    0  0.27049869942E+02  0.14843803895E+03  0.37773041146E+03  0.40677745834E+03  0.47000000000E+01 0. -1.
        -13    1    6    6    0    0  0.35715952988E+02 -0.25608022670E+02  0.71419001490E+02  0.83857461783E+02  0.00000000000E+00 0.  1.
         14    1    6    6    0    0  0.37603985164E+02  0.49399181674E+02  0.20982781037E+03  0.21881967201E+03  0.00000000000E+00 0. -1.
         -5    1    3    3    0  503 -0.59408358392E+02  0.10187487574E+02  0.26915893372E+03  0.27586547365E+03  0.47000000000E+01 0.  1.
         13    1    4    4    0    0 -0.44490298642E+02 -0.50267207001E+02  0.41096252075E+03  0.41640890029E+03  0.00000000000E+00 0. -1.
        -14    1    4    4    0    0  0.35288489401E+01 -0.13214947853E+03  0.51370284572E+03  0.53043995998E+03  0.00000000000E+00 0.  1.
</event>
<event>
12    1  0.1039610E+000  0.2776115E+03  0.7818608E-02  0.1097094E+00
         21   -1    0    0  503  502  0.00000000000E+00  0.00000000000E+00  0.21221144491E+03  0.21221144491E+03  0.00000000000E+00 0.  1.
         21   -1    0    0  501  503 -0.00000000000E+00 -0.00000000000E+00 -0.44943551724E+03  0.44943551724E+03  0.00000000000E+00 0.  1.
          6    2    1    2  501    0 -0.11164651211E+01 -0.21703517730E+03  0.26952890262E+02  0.27891680605E+03  0.17309711645E+03 0.  0.
         24    2    3    3    0    0  0.54326514845E+02 -0.16054129776E+03 -0.24826862924E+02  0.18421350467E+03  0.67774358550E+02 0.  0.
         -6    2    1    2    0  502  0.11164651211E+01  0.21703517730E+03 -0.26417696259E+03  0.38273015610E+03  0.17200985478E+03 0.  0.
        -24    2    5    5    0    0 -0.61862041347E+02  0.16895063159E+03 -0.17910825057E+03  0.26638071872E+03  0.80670278352E+02 0.  0.
          5    1    3    3  501    0 -0.55442979966E+02 -0.56493879541E+02  0.51779753186E+02  0.94703301385E+02  0.47000000000E+01 0. -1.
        -13    1    4    4    0    0  0.26906747443E+02 -0.32756015833E+02  0.18880455720E+02  0.46404754492E+02  0.00000000000E+00 0.  1.
         14    1    4    4    0    0  0.27419767402E+02 -0.12778528193E+03 -0.43707318644E+02  0.13780875018E+03  0.00000000000E+00 0. -1.
         -5    1    5    5    0  502  0.62978506468E+02  0.48084545713E+02 -0.85068712016E+02  0.11634943738E+03  0.47000000000E+01 0. -1.
         13    1    6    6    0    0 -0.30756577300E+02  0.87283016442E+02 -0.14614129908E+03  0.17297852845E+03  0.00000000000E+00 0. -1.
        -14    1    6    6    0    0 -0.31105464047E+02  0.81667615150E+02 -0.32966951492E+02  0.93402190276E+02  0.00000000000E+00 0.  1.
</event>
<event>
12    1  0.1039610E+000  0.2389979E+03  0.7818608E-02  0.1120926E+00
         21   -1    0    0  501  502  0.00000000000E+00  0.00000000000E+00  0.69714486639E+03  0.69714486639E+03  0.00000000000E+00 0.  1.
         21   -1    0    0  502  503 -0.00000000000E+00 -0.00000000000E+00 -0.84355431128E+03  0.84355431128E+03  0.00000000000E+00 0. -1.
         -6    2    1    2    0  503  0.11682008518E+03 -0.11503982877E+03  0.65918759353E+03  0.70117636477E+03  0.17389340567E+03 0.  0.
        -24    2    3    3    0    0  0.10646513182E+02 -0.28808096673E+02  0.13933935963E+03  0.16361426109E+03  0.80068187286E+02 0.  0.
          6    2    1    2  501    0 -0.11682008518E+03  0.11503982877E+03 -0.80559703842E+03  0.83952281290E+03  0.17009077151E+03 0.  0.
         24    2    5    5    0    0 -0.14597584909E+02  0.12002772743E+02 -0.17581509078E+03  0.19321524985E+03  0.77871885745E+02 0.  0.
          5    1    5    5  501    0 -0.10222250027E+03  0.10303705602E+03 -0.62978194764E+03  0.64630756305E+03  0.47000000000E+01 0. -1.
        -11    1    6    6    0    0 -0.34531809589E+02 -0.13342863382E+02 -0.14092521724E+03  0.14570653633E+03  0.00000000000E+00 0.  1.
         12    1    6    6    0    0  0.19934224680E+02  0.25345636125E+02 -0.34889873544E+02  0.47508713518E+02  0.00000000000E+00 0. -1.
         -5    1    3    3    0  503  0.10617357200E+03 -0.86231732094E+02  0.51984823390E+03  0.53756210367E+03  0.47000000000E+01 0.  1.
         11    1    4    4    0    0  0.10244767911E+02 -0.41495892001E+02  0.26990404521E+02  0.50550432824E+02  0.00000000000E+00 0. -1.
        -12    1    4    4    0    0  0.40174527070E+00  0.12687795328E+02  0.11234895511E+03  0.11306382827E+03  0.00000000000E+00 0.  1.
</event>
<event>
12    1  0.1039610E+000  0.2173689E+03  0.7818608E-02  0.1135939E+00
         21   -1    0    0  503  502  0.00000000000E+00  0.00000000000E+00  0.41559687542E+03  0.41559687542E+03  0.00000000000E+00 0.  1.
         21   -1    0    0  501  503 -0.00000000000E+00 -0.00000000000E+00 -0.13565439870E+03  0.13565439870E+03  0.00000000000E+00 0.  1.
          6    2    1    2  501    0 -0.10993997031E+03  0.74468351915E+02  0.25153981313E+03  0.33244776077E+03  0.17209562326E+03 0.  0.
         24    2    3    3    0    0  0.85917532222E+01  0.24672098219E+02  0.66361118818E+02  0.10696455698E+03  0.79718803960E+02 0.  0.
         -6    2    1    2    0  502  0.10993997031E+03 -0.74468351915E+02  0.28402663591E+02  0.21880351334E+03  0.17156903463E+03 0.  0.
        -24    2    5    5    0    0  0.66979418304E+02 -0.36234286518E+02  0.85012311103E+02  0.13796914580E+03  0.77519198635E+02 0.  0.
          5    1    3    3  501    0 -0.11853172353E+03  0.49796253696E+02  0.18517869432E+03  0.22548320379E+03  0.47000000000E+01 0. -1.
        -11    1    4    4    0    0 -0.27274019120E+02  0.21072185902E+02  0.61625453325E+02  0.70608821227E+02  0.00000000000E+00 0.  1.
         12    1    4    4    0    0  0.35865772342E+02  0.35999123171E+01  0.47356654935E+01  0.36355735751E+02  0.00000000000E+00 0. -1.
         -5    1    5    5    0  502  0.42960552003E+02 -0.38234065397E+02 -0.56609647512E+02  0.80834367546E+02  0.47000000000E+01 0.  1.
         11    1    6    6    0    0  0.30770098453E+01 -0.30523475232E+02 -0.96425625383E+00  0.30693326961E+02  0.00000000000E+00 0. -1.
        -12    1    6    6    0    0  0.63902408459E+02 -0.57108112863E+01  0.85976567356E+02  0.10727581884E+03  0.00000000000E+00 0.  1.
</event>
<event>
12    1  0.1039610E+000  0.1756111E+03  0.7818608E-02  0.1172411E+00
         21   -1    0    0  503  502  0.00000000000E+00  0.00000000000E+00  0.81454382322E+03  0.81454382322E+03  0.00000000000E+00 0.  1.
         21   -1    0    0  501  503 -0.00000000000E+00 -0.00000000000E+00 -0.40980831566E+02  0.40980831566E+02  0.00000000000E+00 0.  1.
          6    2    1    2  501    0 -0.20635472921E+02 -0.22102430568E+02  0.50827397211E+03  0.53737762067E+03  0.17180784702E+03 0.  0.
         24    2    3    3    0    0  0.90422170833E+01 -0.34482232355E+02  0.49369708632E+03  0.50176020393E+03  0.82193084657E+02 0.  0.
         -6    2    1    2    0  502  0.20635472921E+02  0.22102430568E+02  0.26528901955E+03  0.31814703412E+03  0.17298824019E+03 0.  0.
        -24    2    5    5    0    0  0.74683880658E+02 -0.21116511733E+02  0.16878903890E+03  0.19930493881E+03  0.72174302087E+02 0.  0.
          5    1    3    3  501    0 -0.29677690004E+02  0.12379801787E+02  0.14576885787E+02  0.35617416744E+02  0.47000000000E+01 0. -1.
        -11    1    4    4    0    0 -0.18945846306E+01 -0.12550015663E+02  0.45956772515E+03  0.45974295682E+03  0.00000000000E+00 0.  1.
         12    1    4    4    0    0  0.10936801714E+02 -0.21932216692E+02  0.34129361172E+02  0.42017247111E+02  0.00000000000E+00 0. -1.
         -5    1    5    5    0  502 -0.54048407737E+02  0.43218942301E+02  0.96499980648E+02  0.11884209531E+03  0.47000000000E+01 0.  1.
         11    1    6    6    0    0  0.34473690324E+02  0.93993996756E+01  0.13224371671E+03  0.13698607465E+03  0.00000000000E+00 0. -1.
        -12    1    6    6    0    0  0.40210190334E+02 -0.30515911409E+02  0.36545322194E+02  0.62318864159E+02  0.00000000000E+00 0.  1.
</event>
<event>
12    1  0.1039610E+000  0.1883440E+03  0.7818608E-02  0.1160437E+00
         21   -1    0    0  503  502  0.00000000000E+00  0.00000000000E+00  0.16309732652E+03  0.16309732652E+03  0.00000000000E+00 0. -1.
         21   -1    0    0  501  503 -0.00000000000E+00 -0.00000000000E+00 -0.21560658336E+03  0.21560658336E+03  0.00000000000E+00 0. -1.
          6    2    1    2  501    0  0.64457271889E+02  0.37898864600E+02 -0.35377348995E+02  0.19163776981E+03  0.17286530640E+03 0.  0.
         24    2    3    3    0    0  0.60812475421E+01  0.11475553145E+02 -0.78414460091E+02  0.11430579364E+03  0.82148140675E+02 0.  0.
         -6    2    1    2    0  502 -0.64457271889E+02 -0.37898864600E+02 -0.17131907839E+02  0.18706614007E+03  0.17061411037E+03 0.  0.
        -24    2    5    5    0    0 -0.68753636881E+02 -0.93054853644E+02 -0.10386030524E+02  0.13113547997E+03  0.60847153628E+02 0.  0.
          5    1    3    3  501    0  0.58376024347E+02  0.26423311456E+02  0.43037111096E+02  0.77331976170E+02  0.47000000000E+01 0. -1.
        -11    1    4    4    0    0  0.25560277062E+02  0.24945207243E+02 -0.82841900118E+02  0.90212923371E+02  0.00000000000E+00 0.  1.
         12    1    4    4    0    0 -0.19479029520E+02 -0.13469654098E+02  0.44274400270E+01  0.24092870268E+02  0.00000000000E+00 0. -1.
         -5    1    5    5    0  502  0.42963649918E+01  0.55155989044E+02 -0.67458773156E+01  0.55930660110E+02  0.47000000000E+01 0.  1.
         13    1    6    6    0    0  0.99825354947E+01 -0.22809049406E+02 -0.55422750038E+01  0.25507264886E+02  0.00000000000E+00 0. -1.
        -14    1    6    6    0    0 -0.78736172375E+02 -0.70245804238E+02 -0.48437555198E+01  0.10562821508E+03  0.00000000000E+00 0.  1.
</event>
<event>
12    1  0.1039610E+000  0.2467307E+03  0.7818608E-02  0.1115413E+00
         21   -1    0    0  503  502  0.00000000000E+00  0.00000000000E+00  0.40557633870E+03  0.40557633870E+03  0.00000000000E+00 0.  1.
         21   -1    0    0  501  503 -0.00000000000E+00 -0.00000000000E+00 -0.15478496022E+03  0.15478496022E+03  0.00000000000E+00 0.  1.
          6    2    1    2  501    0 -0.17469091746E+03  0.27848432121E+02  0.76129929074E+02  0.25806560933E+03  0.17178370355E+03 0.  0.
         24    2    3    3    0    0 -0.44963600333E+02  0.42044312207E+02 -0.16360921243E+01  0.10607763654E+03  0.86373251834E+02 0.  0.
         -6    2    1    2    0  502  0.17469091746E+03 -0.27848432121E+02  0.17466144941E+03  0.30229568959E+03  0.17199886692E+03 0.  0.
        -24    2    5    5    0    0  0.10456809279E+03 -0.80154920497E+02  0.80714844877E+02  0.17383856146E+03  0.79659663295E+02 0.  0.
          5    1    3    3  501    0 -0.12972731713E+03 -0.14195880087E+02  0.77766021198E+02  0.15198797279E+03  0.47000000000E+01 0. -1.
        -11    1    4    4    0    0  0.24057347253E+02  0.24022676699E+02 -0.63559418116E+01  0.34586745278E+02  0.00000000000E+00 0.  1.
         12    1    4    4    0    0 -0.69020947587E+02  0.18021635509E+02  0.47198496872E+01  0.71490891261E+02  0.00000000000E+00 0. -1.
         -5    1    5    5    0  502  0.70122824674E+02  0.52306488376E+02  0.93946604528E+02  0.12845712814E+03  0.47000000000E+01 0.  1.
         13    1    6    6    0    0  0.95656623067E+02 -0.62181554711E+02  0.28059028232E+02  0.11749061387E+03  0.00000000000E+00 0. -1.
        -14    1    6    6    0    0  0.89114697197E+01 -0.17973365786E+02  0.52655816644E+02  0.56347947582E+02  0.00000000000E+00 0.  1.
</event>
<event>
12    1  0.1039610E+000  0.2065546E+03  0.7818608E-02  0.1144414E+00
         21   -1    0    0  503  502  0.00000000000E+00  0.00000000000E+00  0.55261211341E+03  0.55261211341E+03  0.00000000000E+00 0. -1.
         21   -1    0    0  501  503 -0.00000000000E+00 -0.00000000000E+00 -0.13203337663E+03  0.13203337663E+03  0.00000000000E+00 0. -1.
          6    2    1    2  501    0  0.48915167286E+02  0.10183769770E+03 -0.10769539866E+02  0.20639229399E+03  0.17238963358E+03 0.  0.
         24    2    3    3    0    0 -0.40662044712E+02  0.55808970522E+02 -0.17565216387E+00  0.10501655186E+03  0.79122703696E+02 0.  0.
         -6    2    1    2    0  502 -0.48915167286E+02 -0.10183769770E+03  0.43134827664E+03  0.47825319605E+03  0.17291955791E+03 0.  0.
        -24    2    5    5    0    0  0.27118898273E+02 -0.16864500243E+02  0.24368578853E+03  0.25861503258E+03  0.80493015405E+02 0.  0.
          5    1    3    3  501    0  0.89577211998E+02  0.46028727182E+02 -0.10593887702E+02  0.10137574213E+03  0.47000000000E+01 0. -1.
        -13    1    4    4    0    0 -0.46617725524E+02  0.69476873745E+02  0.13542626048E+02  0.84756421814E+02  0.00000000000E+00 0.  1.
         14    1    4    4    0    0  0.59556808114E+01 -0.13667903223E+02 -0.13718278212E+02  0.20260130047E+02  0.00000000000E+00 0. -1.
         -5    1    5    5    0  502 -0.76034065558E+02 -0.84973197462E+02  0.18766248810E+03  0.21963816347E+03  0.47000000000E+01 0.  1.
         11    1    6    6    0    0  0.29304303280E+02 -0.26260232164E+02  0.24564071797E+03  0.24877239459E+03  0.00000000000E+00 0. -1.
        -12    1    6    6    0    0 -0.21854050078E+01  0.93957319214E+01 -0.19549294397E+01  0.98426379849E+01  0.00000000000E+00 0.  1.
</event>
<event>
12    1  0.1039610E+000  0.2868318E+03  0.7818608E-02  0.1092108E+00
         21   -1    0    0  501  502  0.00000000000E+00  0.00000000000E+00  0.63395816119E+02  0.63395816119E+02  0.00000000000E+00 0.  1.
         21   -1    0    0  502  503 -0.00000000000E+00 -0.00000000000E+00 -0.13534267822E+04  0.13534267822E+04  0.00000000000E+00 0.  1.
         -6    2    1    2    0  503 -0.69801633488E+02  0.21828362466E+03 -0.49806503606E+03  0.57475324062E+03  0.17248912611E+03 0.  0.
        -24    2    3    3    0    0 -0.49410944043E+02  0.16070469888E+03 -0.47352751828E+03  0.50875859926E+03  0.79621354624E+02 0.  0.
          6    2    1    2  501    0  0.69801633488E+02 -0.21828362466E+03 -0.79196593007E+03  0.84206935774E+03  0.17132063515E+03 0.  0.
         24    2    5    5    0    0 -0.26349159554E+02 -0.10516831106E+03 -0.42996106997E+03  0.45077706558E+03  0.81109736168E+02 0.  0.
          5    1    5    5  501    0  0.96150793042E+02 -0.11311531360E+03 -0.36200486010E+03  0.39129229217E+03  0.47000000000E+01 0. -1.
        -13    1    6    6    0    0  0.15528378576E+02  0.58830257306E+01 -0.47053926575E+02  0.49898021394E+02  0.00000000000E+00 0.  1.
         14    1    6    6    0    0 -0.41877538129E+02 -0.11105133679E+03 -0.38290714339E+03  0.40087904418E+03  0.00000000000E+00 0. -1.
         -5    1    3    3    0  503 -0.20390689445E+02  0.57578925778E+02 -0.24537517772E+02  0.65994641360E+02  0.47000000000E+01 0.  1.
         11    1    4    4    0    0  0.24277729869E+01  0.65856350146E+02 -0.98867305502E+02  0.11881791546E+03  0.00000000000E+00 0. -1.
        -12    1    4    4    0    0 -0.51838717030E+02  0.94848348737E+02 -0.37466021278E+03  0.38994068380E+03  0.00000000000E+00 0.  1.
</event>
<event>
12    1  0.1039610E+000  0.2674887E+03  0.7818608E-02  0.1103036E+00
         21   -1    0    0  501  502  0.00000000000E+00  0.00000000000E+00  0.13436323108E+04  0.13436323108E+04  0.00000000000E+00 0. -1.
         21   -1    0    0  502  503 -0.00000000000E+00 -0.00000000000E+00 -0.52829694446E+02  0.52829694446E+02  0.00000000000E+00 0. -1.
         -6    2    1    2    0  503 -0.13308035796E+03  0.15463785256E+03  0.64735639070E+03  0.69963115076E+03  0.16967676157E+03 0.  0.
        -24    2    3    3    0    0 -0.14289868456E+03  0.17628451724E+03  0.59986364288E+03  0.64631484253E+03  0.79938855070E+02 0.  0.
          6    2    1    2  501    0  0.13308035796E+03 -0.15463785256E+03  0.64344622562E+03  0.69683085445E+03  0.17299406732E+03 0.  0.
         24    2    5    5    0    0  0.11735070507E+03 -0.56445928393E+02  0.31780717556E+03  0.35631366417E+03  0.94871995992E+02 0.  0.
          5    1    5    5  501    0  0.15729652890E+02 -0.98191924167E+02  0.32563905006E+03  0.34051719028E+03  0.47000000000E+01 0. -1.
        -13    1    6    6    0    0  0.12149656069E+03 -0.74419138102E+02  0.28665066703E+03  0.32010658738E+03  0.00000000000E+00 0.  1.
         14    1    6    6    0    0 -0.41458556129E+01  0.17973209709E+02  0.31156508526E+02  0.36207076788E+02  0.00000000000E+00 0. -1.
         -5    1    3    3    0  503  0.98183265966E+01 -0.21646664676E+02  0.47492747812E+02  0.53316308232E+02  0.47000000000E+01 0.  1.
         11    1    4    4    0    0 -0.41478572712E+02  0.76558631970E+02  0.13917940231E+03  0.16417247684E+03  0.00000000000E+00 0. -1.
        -12    1    4    4    0    0 -0.10142011185E+03  0.99725885266E+02  0.46068424058E+03  0.48214236569E+03  0.00000000000E+00 0.  1.
</event>
<event>
12    1  0.1039610E+000  0.2566528E+03  0.7818608E-02  0.1109177E+00
         21   -1    0    0  501  502  0.00000000000E+00  0.00000000000E+00  0.98321054347E+03  0.98321054347E+03  0.00000000000E+00 0.  1.
         21   -1    0    0  502  503 -0.00000000000E+00 -0.00000000000E+00 -0.67533773614E+02  0.67533773614E+02  0.00000000000E+00 0.  1.
         -6    2    1    2    0  503  0.93183575738E+02  0.16613447974E+03  0.41055384211E+03  0.48417465348E+03  0.17200812090E+03 0.  0.
        -24    2    3    3    0    0 -0.89678001052E+01  0.11412555757E+03  0.21416227102E+03  0.25672890002E+03  0.83301773370E+02 0.  0.
          6    2    1    2  501    0 -0.93183575738E+02 -0.16613447974E+03  0.50512292775E+03  0.56656966361E+03  0.17195396894E+03 0.  0.
         24    2    5    5    0    0 -0.12909048415E+03 -0.11941307885E+03  0.43006617913E+03  0.47103013835E+03  0.77386279811E+02 0.  0.
          5    1    5    5  501    0  0.35906908414E+02 -0.46721400889E+02  0.75056748616E+02  0.95539525254E+02  0.47000000000E+01 0. -1.
        -11    1    6    6    0    0 -0.79505023450E+02 -0.73290910280E+02  0.34917206374E+03  0.36553212770E+03  0.00000000000E+00 0.  1.
         12    1    6    6    0    0 -0.49585460702E+02 -0.46122168571E+02  0.80894115394E+02  0.10549801066E+03  0.00000000000E+00 0. -1.
         -5    1    3    3    0  503  0.10215137584E+03  0.52008922167E+02  0.19639157109E+03  0.22744575346E+03  0.47000000000E+01 0.  1.
         13    1    4    4    0    0  0.11590386365E+00  0.11660826569E+01  0.84562693253E+02  0.84570812180E+02  0.00000000000E+00 0. -1.
        -14    1    4    4    0    0 -0.90837039688E+01  0.11295947492E+03  0.12959957776E+03  0.17215808784E+03  0.00000000000E+00 0.  1.
</event>
<event>
12    1  0.1039610E+000  0.2025911E+03  0.7818608E-02  0.1147727E+00
         21   -1    0    0  501  502  0.00000000000E+00  0.00000000000E+00  0.56829598150E+02  0.56829598150E+02  0.00000000000E+00 0. -1.
         21   -1    0    0  502  503 -0.00000000000E+00 -0.00000000000E+00 -0.85496634711E+03  0.85496634711E+03  0.00000000000E+00 0. -1.
         -6    2    1    2    0  503 -0.98223212379E+02  0.40525869130E+02 -0.21700694092E+03  0.29636518861E+03  0.17161050986E+03 0.  0.
        -24    2    3    3    0    0 -0.13034558245E+03  0.42273889351E+02 -0.21008868643E+03  0.26312583725E+03  0.79504072084E+02 0.  0.
          6    2    1    2  501    0  0.98223212379E+02 -0.40525869130E+02 -0.58112980804E+03  0.61543075665E+03  0.17249062850E+03 0.  0.
         24    2    5    5    0    0  0.99361579570E+02 -0.90822992843E+02 -0.48189373251E+03  0.50407104571E+03  0.61192402884E+02 0.  0.
          5    1    5    5  501    0 -0.11383671905E+01  0.50297123713E+02 -0.99236075533E+02  0.11135971094E+03  0.47000000000E+01 0. -1.
        -11    1    6    6    0    0  0.83388666628E+02 -0.41228009954E+02 -0.35282924149E+03  0.36488613590E+03  0.00000000000E+00 0.  1.
         12    1    6    6    0    0  0.15972912942E+02 -0.49594982889E+02 -0.12906449102E+03  0.13918490981E+03  0.00000000000E+00 0. -1.
         -5    1    3    3    0  503  0.32122370073E+02 -0.17480202215E+01 -0.69182544971E+01  0.33239351364E+02  0.47000000000E+01 0.  1.
         13    1    4    4    0    0  0.45896202319E+01 -0.11777476246E+02 -0.12022550144E+02  0.17444634492E+02  0.00000000000E+00 0. -1.
        -14    1    4    4    0    0 -0.13493520268E+03  0.54051365597E+02 -0.19806613628E+03  0.24568120276E+03  0.00000000000E+00 0.  1.
</event>
<event>
12    1  0.1039610E+000  0.3491192E+03  0.7818608E-02  0.1063660E+00
         21   -1    0    0  501  502  0.00000000000E+00  0.00000000000E+00  0.26982252133E+03  0.26982252133E+03  0.00000000000E+00 0. -1.
         21   -1    0    0  502  503 -0.00000000000E+00 -0.00000000000E+00 -0.58342512935E+03  0.58342512935E+03  0.00000000000E+00 0. -1.
         -6    2    1    2    0  503  0.28793101254E+03 -0.63426455164E+02  0.51165808262E+02  0.35284860251E+03  0.18696794689E+03 0.  0.
        -24    2    3    3    0    0  0.15853441897E+03 -0.11097301978E+03  0.49522950878E+02  0.21490316687E+03  0.79263329168E+02 0.  0.
          6    2    1    2  501    0 -0.28793101254E+03  0.63426455164E+02 -0.36476841629E+03  0.50039904817E+03  0.17440191138E+03 0.  0.
         24    2    5    5    0    0 -0.24754491545E+03  0.79504524797E+02 -0.22152480542E+03  0.35063135067E+03  0.79181121654E+02 0.  0.
          5    1    5    5  501    0 -0.40386097090E+02 -0.16078069632E+02 -0.14324361086E+03  0.14976769750E+03  0.47000000000E+01 0. -1.
        -11    1    6    6    0    0 -0.76549778082E+02 -0.12378406875E+02 -0.58444843852E+02  0.97102488403E+02  0.00000000000E+00 0.  1.
         12    1    6    6    0    0 -0.17099513736E+03  0.91882931672E+02 -0.16307996157E+03  0.25352886226E+03  0.00000000000E+00 0. -1.
         -5    1    3    3    0  503  0.12939659357E+03  0.47546564614E+02  0.16428573845E+01  0.13794543564E+03  0.47000000000E+01 0.  1.
         13    1    4    4    0    0  0.90254351533E+02 -0.22085294305E+02  0.14109499359E+01  0.92927923548E+02  0.00000000000E+00 0. -1.
        -14    1    4    4    0    0  0.68280067433E+02 -0.88887725473E+02  0.48112000942E+02  0.12197524332E+03  0.00000000000E+00 0.  1.
</event>
<event>
12    1  0.1039610E+000  0.2843103E+03  0.7818608E-02  0.1093492E+00
         21   -1    0    0  501  502  0.00000000000E+00  0.00000000000E+00  0.28637031056E+03  0.28637031056E+03  0.00000000000E+00 0.  1.
         21   -1    0    0  502  503 -0.00000000000E+00 -0.00000000000E+00 -0.32871421222E+03  0.32871421222E+03  0.00000000000E+00 0.  1.
         -6    2    1    2    0  503 -0.97004385726E+02 -0.20316879320E+03 -0.13797586288E+03  0.31512151318E+03  0.17197912650E+03 0.  0.
        -24    2    3    3    0    0 -0.11206999001E+03 -0.19168850183E+03 -0.75027742880E+02  0.24921760333E+03  0.84711789111E+02 0.  0.
          6    2    1    2  501    0  0.97004385726E+02  0.20316879320E+03  0.95631961212E+02  0.29996300959E+03  0.17362294127E+03 0.  0.
         24    2    5    5    0    0  0.63445300334E+02  0.29278856254E+02  0.21626663784E+02  0.10796614391E+03  0.79412959184E+02 0.  0.
          5    1    5    5  501    0  0.33559085392E+02  0.17388993695E+03  0.74005297428E+02  0.19199686568E+03  0.47000000000E+01 0. -1.
        -11    1    6    6    0    0  0.68231483398E+02  0.29488958808E+02 -0.10866824152E+02  0.75121381014E+02  0.00000000000E+00 0.  1.
         12    1    6    6    0    0 -0.47861830646E+01 -0.21010255412E+00  0.32493487936E+02  0.32844762896E+02  0.00000000000E+00 0. -1.
         -5    1    3    3    0  503  0.15065604286E+02 -0.11480291374E+02 -0.62948119995E+02  0.65903909850E+02  0.47000000000E+01 0.  1.
         13    1    4    4    0    0 -0.77510111461E+00 -0.62200748549E+01 -0.26911455483E+02  0.27631803220E+02  0.00000000000E+00 0. -1.
        -14    1    4    4    0    0 -0.11129488890E+03 -0.18546842697E+03 -0.48116287397E+02  0.22158580011E+03  0.00000000000E+00 0.  1.
</event>
<event>
12    1  0.1039610E+000  0.1914457E+03  0.7818608E-02  0.1159670E+00
         21   -1    0    0  501  502  0.00000000000E+00  0.00000000000E+00  0.31861534547E+02  0.31861534547E+02  0.00000000000E+00 0. -1.
         21   -1    0    0  502  503 -0.00000000000E+00 -0.00000000000E+00 -0.10893467803E+04  0.10893467803E+04  0.00000000000E+00 0. -1.
         -6    2    1    2    0  503  0.44626997583E+02  0.23505426152E+02 -0.57570684716E+03  0.60670407403E+03  0.18468184970E+03 0.  0.
        -24    2    3    3    0    0  0.56898133282E+02  0.44238482349E+02 -0.17621012936E+03  0.20645395483E+03  0.79867295457E+02 0.  0.
          6    2    1    2  501    0 -0.44626997583E+02 -0.23505426152E+02 -0.48177839859E+03  0.51450424082E+03  0.17337852950E+03 0.  0.
         24    2    5    5    0    0 -0.60750943382E+02 -0.56793899654E+02 -0.45273135005E+03  0.46723982370E+03  0.80194472209E+02 0.  0.
          5    1    5    5  501    0  0.16123945799E+02  0.33288473503E+02 -0.29047048547E+02  0.47264417119E+02  0.47000000000E+01 0. -1.
        -11    1    6    6    0    0 -0.14584855591E+02  0.18104068337E+02 -0.51949212619E+02  0.56913934978E+02  0.00000000000E+00 0.  1.
         12    1    6    6    0    0 -0.46166087791E+02 -0.74897967991E+02 -0.40078213743E+03  0.41032588872E+03  0.00000000000E+00 0. -1.
         -5    1    3    3    0  503 -0.12271135699E+02 -0.20733056198E+02 -0.39949671780E+03  0.40025011921E+03  0.47000000000E+01 0.  1.
         13    1    4    4    0    0  0.39430859733E+02  0.22623124796E+02 -0.17253230560E+03  0.17842083665E+03  0.00000000000E+00 0. -1.
        -14    1    4    4    0    0  0.17467273549E+02  0.21615357554E+02 -0.36778237631E+01  0.28033118182E+02  0.00000000000E+00 0.  1.
</event>
<event>
12    1  0.1039610E+000  0.1828857E+03  0.7818608E-02  0.1165334E+00
         21   -1    0    0  503  502  0.00000000000E+00  0.00000000000E+00  0.60649978135E+03  0.60649978135E+03  0.00000000000E+00 0.  1.
         21   -1    0    0  501  503 -0.00000000000E+00 -0.00000000000E+00 -0.69344179052E+02  0.69344179052E+02  0.00000000000E+00 0.  1.
          6    2    1    2  501    0 -0.61066285849E+02  0.84792579381E+01  0.42275084777E+03  0.46012274756E+03  0.17086156516E+03 0.  0.
         24    2    3    3    0    0 -0.78085234144E+02 -0.46340363916E+02  0.25427621812E+03  0.28207605038E+03  0.81644166823E+02 0.  0.
         -6    2    1    2    0  502  0.61066285849E+02 -0.84792579381E+01  0.11440475453E+03  0.21572121284E+03  0.17218073275E+03 0.  0.
        -24    2    5    5    0    0  0.55175760705E+02 -0.61501035455E+02  0.11639034103E+03  0.16212979812E+03  0.76893549942E+02 0.  0.
          5    1    3    3  501    0  0.17018948295E+02  0.54819621854E+02  0.16847462965E+03  0.17804669718E+03  0.47000000000E+01 0. -1.
        -13    1    4    4    0    0 -0.11732881270E+01 -0.38648912822E+02  0.13085594576E+03  0.13644923455E+03  0.00000000000E+00 0.  1.
         14    1    4    4    0    0 -0.76911946017E+02 -0.76914510940E+01  0.12342027236E+03  0.14562681583E+03  0.00000000000E+00 0. -1.
         -5    1    5    5    0  502  0.58905251438E+01  0.53021777517E+02 -0.19855865061E+01  0.53591414717E+02  0.47000000000E+01 0.  1.
         13    1    6    6    0    0  0.36348836204E+02 -0.62940444270E+02  0.39030968695E+02  0.82499417789E+02  0.00000000000E+00 0. -1.
        -14    1    6    6    0    0  0.18826924501E+02  0.14394088144E+01  0.77359372337E+02  0.79630380335E+02  0.00000000000E+00 0.  1.
</event>
<event>
12    1  0.1039610E+000  0.2039434E+03  0.7818608E-02  0.1146607E+00
         21   -1    0    0  503  502  0.00000000000E+00  0.00000000000E+00  0.23497446516E+03  0.23497446516E+03  0.00000000000E+00 0. -1.
         21   -1    0    0  501  503 -0.00000000000E+00 -0.00000000000E+00 -0.19438980153E+03  0.19438980153E+03  0.00000000000E+00 0. -1.
          6    2    1    2  501    0  0.52229479749E+02 -0.95409725618E+02 -0.45114709737E+02  0.20814654567E+03  0.17163540760E+03 0.  0.
         24    2    3    3    0    0  0.69852514533E+02 -0.11186267946E+01 -0.18529481933E+02  0.10849592094E+03  0.80915993765E+02 0.  0.
         -6    2    1    2    0  502 -0.52229479749E+02  0.95409725618E+02  0.85699373370E+02  0.22121772102E+03  0.17251655920E+03 0.  0.
        -24    2    5    5    0    0  0.24231471802E+02  0.12764709122E+02  0.66716442769E+02  0.10694210018E+03  0.78964720159E+02 0.  0.
          5    1    3    3  501    0 -0.17623034783E+02 -0.94291098823E+02 -0.26585227804E+02  0.99650624733E+02  0.47000000000E+01 0. -1.
        -13    1    4    4    0    0  0.28823654313E+02 -0.38712877681E+02  0.40655066806E+01  0.48435712970E+02  0.00000000000E+00 0.  1.
         14    1    4    4    0    0  0.41028860220E+02  0.37594250887E+02 -0.22594988614E+02  0.60060207968E+02  0.00000000000E+00 0. -1.
         -5    1    5    5    0  502 -0.76460951552E+02  0.82645016496E+02  0.18982930602E+02  0.11427562084E+03  0.47000000000E+01 0.  1.
         11    1    6    6    0    0 -0.10440553301E+02 -0.49812515480E+01  0.67000198223E+02  0.67991503749E+02  0.00000000000E+00 0. -1.
        -12    1    6    6    0    0  0.34672025104E+02  0.17745960670E+02 -0.28375545392E+00  0.38950596427E+02  0.00000000000E+00 0.  1.
</event>
<event>
12    1  0.1039610E+000  0.2058479E+03  0.7818608E-02  0.1145177E+00
         21   -1    0    0  501  502  0.00000000000E+00  0.00000000000E+00  0.54710161336E+02  0.54710161336E+02  0.00000000000E+00 0. -1.
         21   -1    0    0  502  503 -0.00000000000E+00 -0.00000000000E+00 -0.86739665119E+03  0.86739665119E+03  0.00000000000E+00 0. -1.
         -6    2    1    2    0  503  0.11030712370E+03 -0.10203789206E+02 -0.56014419584E+03  0.59629864831E+03  0.17186849330E+03 0.  0.
        -24    2    3    3    0    0  0.69311436460E+02 -0.27338837048E+02 -0.53383784779E+03  0.54444915280E+03  0.76749886128E+02 0.  0.
          6    2    1    2  501    0 -0.11030712370E+03  0.10203789206E+02 -0.25254229401E+03  0.32580816421E+03  0.17349804250E+03 0.  0.
         24    2    5    5    0    0 -0.88202286455E+02  0.97196305386E+01 -0.27114491822E+03  0.29653350168E+03  0.80860598485E+02 0.  0.
          5    1    5    5  501    0 -0.22104837240E+02  0.48415866696E+00  0.18602624210E+02  0.29274662535E+02  0.47000000000E+01 0. -1.
        -13    1    6    6    0    0 -0.67049527092E+02  0.42381923936E+02 -0.20471489644E+03  0.21954511014E+03  0.00000000000E+00 0.  1.
         14    1    6    6    0    0 -0.21152759364E+02 -0.32662293398E+02 -0.66430021774E+02  0.76988391538E+02  0.00000000000E+00 0. -1.
         -5    1    3    3    0  503  0.40995687236E+02  0.17135047843E+02 -0.26306348056E+02  0.51849495509E+02  0.47000000000E+01 0.  1.
         11    1    4    4    0    0  0.17653814141E+02  0.17620096100E+01 -0.18210190315E+02  0.25423864044E+02  0.00000000000E+00 0. -1.
        -12    1    4    4    0    0  0.51657622319E+02 -0.29100846658E+02 -0.51562765747E+03  0.51902528876E+03  0.00000000000E+00 0.  1.
</event>
<event>
12    1  0.1039610E+000  0.3917280E+03  0.7818608E-02  0.1046756E+00
         21   -1    0    0  503  502  0.00000000000E+00  0.00000000000E+00  0.10694137587E+04  0.10694137587E+04  0.00000000000E+00 0.  1.
         21   -1    0    0  501  503 -0.00000000000E+00 -0.00000000000E+00 -0.20537190905E+03  0.20537190905E+03  0.00000000000E+00 0.  1.
          6    2    1    2  501    0  0.15084335040E+03 -0.31703608183E+03  0.81602792253E+02  0.40013724696E+03  0.17373890513E+03 0.  0.
         24    2    3    3    0    0  0.63745679990E+01 -0.16362570429E+03  0.50616971697E+02  0.18709221861E+03  0.75016093078E+02 0.  0.
         -6    2    1    2    0  502 -0.15084335040E+03  0.31703608183E+03  0.78243905738E+03  0.87464842077E+03  0.17185280882E+03 0.  0.
        -24    2    5    5    0    0 -0.15211640194E+03  0.31989383216E+03  0.78754495901E+03  0.86703608679E+03  0.77801347886E+02 0.  0.
          5    1    3    3  501    0  0.14446878240E+03 -0.15341037755E+03  0.30985820556E+02  0.21304502835E+03  0.47000000000E+01 0. -1.
        -13    1    4    4    0    0  0.12768002954E+02 -0.52216134532E+02  0.52979524535E+02  0.75474344150E+02  0.00000000000E+00 0.  1.
         14    1    4    4    0    0 -0.63934349547E+01 -0.11140956975E+03 -0.23625528384E+01  0.11161787446E+03  0.00000000000E+00 0. -1.
         -5    1    5    5    0  502  0.12730515361E+01 -0.28577503274E+01 -0.51059016343E+01  0.76123339815E+01  0.47000000000E+01 0.  1.
         13    1    6    6    0    0 -0.17858127744E+02  0.63607141086E+01  0.22596053694E+02  0.29494966571E+02  0.00000000000E+00 0. -1.
        -14    1    6    6    0    0 -0.13425827419E+03  0.31353311805E+03  0.76494890532E+03  0.83754112022E+03  0.00000000000E+00 0.  1.
</event>
<event>
12    1  0.1039610E+000  0.3094052E+03  0.7818608E-02  0.1081460E+00
         21   -1    0    0  501  502  0.00000000000E+00  0.00000000000E+00  0.37803105859E+03  0.37803105859E+03  0.00000000000E+00 0. -1.
         21   -1    0    0  502  503 -0.00000000000E+00 -0.00000000000E+00 -0.54303276194E+03  0.54303276194E+03  0.00000000000E+00 0. -1.
         -6    2    1    2    0  503  0.28822668467E+02  0.24676744654E+03  0.25670266668E+03  0.40202962783E+03  0.18440890349E+03 0.  0.
        -24    2    3    3    0    0 -0.39519001135E+02  0.19679019666E+03  0.13926987345E+03  0.25718191389E+03  0.80363587694E+02 0.  0.
          6    2    1    2  501    0 -0.28822668467E+02 -0.24676744654E+03 -0.42170437003E+03  0.51903419270E+03  0.17273389535E+03 0.  0.
         24    2    5    5    0    0 -0.48775898565E+02 -0.25922150394E+03 -0.36399057640E+03  0.45653453741E+03  0.79748152001E+02 0.  0.
          5    1    5    5  501    0  0.19953230098E+02  0.12454057403E+02 -0.57713793628E+02  0.62499655295E+02  0.47000000000E+01 0. -1.
        -11    1    6    6    0    0 -0.29835861912E+02 -0.39186930853E+02 -0.10629550132E+03  0.11715172985E+03  0.00000000000E+00 0.  1.
         12    1    6    6    0    0 -0.18940036653E+02 -0.22003457309E+03 -0.25769507508E+03  0.33938280755E+03  0.00000000000E+00 0. -1.
         -5    1    3    3    0  503  0.68341669602E+02  0.49977249877E+02  0.11743279323E+03  0.14484771394E+03  0.47000000000E+01 0.  1.
         11    1    4    4    0    0 -0.37319654898E+01  0.15327485509E+03  0.71852651648E+02  0.16932191919E+03  0.00000000000E+00 0. -1.
        -12    1    4    4    0    0 -0.35787035645E+02  0.43515341569E+02  0.67417221806E+02  0.87859994697E+02  0.00000000000E+00 0.  1.
</event>
<event>
12    1  0.1039610E+000  0.2878851E+03  0.7818608E-02  0.1091523E+00
         21   -1    0    0  501  502  0.00000000000E+00  0.00000000000E+00  0.30988227105E+03  0.30988227105E+03  0.00000000000E+00 0. -1.
         21   -1    0    0  502  503 -0.00000000000E+00 -0.00000000000E+00 -0.28126227247E+03  0.28126227247E+03  0.00000000000E+00 0.  1.
         -6    2    1    2    0  503  0.14290643768E+03  0.18097807044E+03  0.80888340113E+02  0.29903304509E+03  0.17234420960E+03 0.  0.
        -24    2    3    3    0    0  0.99424198614E+02  0.64569338338E+02 -0.10602023034E+02  0.14464951432E+03  0.82199199380E+02 0.  0.
          6    2    1    2  501    0 -0.14290643768E+03 -0.18097807044E+03 -0.52268341530E+02  0.29211149842E+03  0.17152794546E+03 0.  0.
         24    2    5    5    0    0 -0.89958965546E+02 -0.49678528925E+02 -0.72122633567E+02  0.14907553329E+03  0.80382016870E+02 0.  0.
          5    1    5    5  501    0 -0.52947472130E+02 -0.13129954152E+03  0.19854292037E+02  0.14303596513E+03  0.47000000000E+01 0. -1.
        -11    1    6    6    0    0 -0.36857560378E+02 -0.60754815369E+02 -0.19937980911E+02  0.73804813057E+02  0.00000000000E+00 0.  1.
         12    1    6    6    0    0 -0.53101405168E+02  0.11076286444E+02 -0.52184652656E+02  0.75270720237E+02  0.00000000000E+00 0. -1.
         -5    1    3    3    0  503  0.43482239062E+02  0.11640873210E+03  0.91490363148E+02  0.15438353077E+03  0.47000000000E+01 0.  1.
         13    1    4    4    0    0  0.74926913744E+01  0.45090856775E+02 -0.20619493850E+02  0.50144683820E+02  0.00000000000E+00 0. -1.
        -14    1    4    4    0    0  0.91931507239E+02  0.19478481563E+02  0.10017470816E+02  0.94504830505E+02  0.00000000000E+00 0.  1.
</event>
<event>
12    1  0.1039610E+000  0.2184661E+03  0.7818608E-02  0.1135543E+00
         21   -1    0    0  503  502  0.00000000000E+00  0.00000000000E+00  0.87140315152E+03  0.87140315152E+03  0.00000000000E+00 0. -1.
         21   -1    0    0  501  503 -0.00000000000E+00 -0.00000000000E+00 -0.66094519680E+02  0.66094519680E+02  0.00000000000E+00 0. -1.
          6    2    1    2  501    0  0.13210218472E+03 -0.32956435139E+01  0.60441495599E+03  0.64268567561E+03  0.17397008402E+03 0.  0.
         24    2    3    3    0    0  0.12843009436E+03  0.38332469667E+02  0.55975750549E+03  0.58134431974E+03  0.81664470681E+02 0.  0.
         -6    2    1    2    0  502 -0.13210218472E+03  0.32956435139E+01  0.20089367585E+03  0.29481199559E+03  0.17056962002E+03 0.  0.
        -24    2    5    5    0    0 -0.76650119224E+02  0.53432793498E+02  0.61457292954E+02  0.13652977849E+03  0.78313966563E+02 0.  0.
          5    1    3    3  501    0  0.36720903607E+01 -0.41628113181E+02  0.44657450499E+02  0.61341355868E+02  0.47000000000E+01 0. -1.
        -11    1    4    4    0    0  0.39735583319E+02 -0.99961483918E+01  0.68572120382E+02  0.79881006867E+02  0.00000000000E+00 0.  1.
         12    1    4    4    0    0  0.88694511041E+02  0.48328618059E+02  0.49118538511E+03  0.50146331287E+03  0.00000000000E+00 0. -1.
         -5    1    5    5    0  502 -0.55452065498E+02 -0.50137149985E+02  0.13943638290E+03  0.15828221711E+03  0.47000000000E+01 0.  1.
         11    1    6    6    0    0 -0.39804000260E+02  0.35714943697E+02 -0.98074479786E+01  0.54370043919E+02  0.00000000000E+00 0. -1.
        -12    1    6    6    0    0 -0.36846118964E+02  0.17717849802E+02  0.71264740932E+02  0.82159734569E+02  0.00000000000E+00 0.  1.
</event>
<event>
12    1  0.1039610E+000  0.2707911E+03  0.7818608E-02  0.1101547E+00
         21   -1    0    0  501  502  0.00000000000E+00  0.00000000000E+00  0.17004823832E+03  0.17004823832E+03  0.00000000000E+00 0.  1.
         21   -1    0    0  502  503 -0.00000000000E+00 -0.00000000000E+00 -0.49824407387E+03  0.49824407387E+03  0.00000000000E+00 0.  1.
         -6    2    1    2    0  503  0.19311089760E+03  0.70519374600E+02 -0.29498115584E+03  0.40042689232E+03  0.17624702219E+03 0.  0.
        -24    2    3    3    0    0  0.21761101433E+03  0.48966269937E+02 -0.25096057304E+03  0.34542967648E+03  0.81167746199E+02 0.  0.
          6    2    1    2  501    0 -0.19311089760E+03 -0.70519374600E+02 -0.33214679716E+02  0.26786541987E+03  0.16847512353E+03 0.  0.
         24    2    5    5    0    0 -0.12941171076E+03 -0.26831842792E+02  0.41494816030E+02  0.16030248204E+03  0.80670486065E+02 0.  0.
          5    1    5    5  501    0 -0.63699186844E+02 -0.43687531807E+02 -0.74709495746E+02  0.10756293783E+03  0.47000000000E+01 0. -1.
        -13    1    6    6    0    0 -0.10739423046E+03  0.12363977231E+02  0.40172574381E+02  0.11532659885E+03  0.00000000000E+00 0.  1.
         14    1    6    6    0    0 -0.22017480295E+02 -0.39195820023E+02  0.13222416488E+01  0.44975883191E+02  0.00000000000E+00 0. -1.
         -5    1    3    3    0  503 -0.24500116732E+02  0.21553104662E+02 -0.44020582795E+02  0.54997215840E+02  0.47000000000E+01 0.  1.
         13    1    4    4    0    0  0.56027061002E+02  0.44782962302E+02 -0.10796233965E+03  0.12961640351E+03  0.00000000000E+00 0. -1.
        -14    1    4    4    0    0  0.16158395333E+03  0.41833076354E+01 -0.14299823339E+03  0.21581327297E+03  0.00000000000E+00 0.  1.
</event>
<event>
12    1  0.1039610E+000  0.1857319E+03  0.7818608E-02  0.1162935E+00
         21   -1    0    0  501  502  0.00000000000E+00  0.00000000000E+00  0.18326451343E+04  0.18326451343E+04  0.00000000000E+00 0. -1.
         21   -1    0    0  502  503 -0.00000000000E+00 -0.00000000000E+00 -0.18805066316E+02  0.18805066316E+02  0.00000000000E+00 0. -1.
         -6    2    1    2    0  503 -0.36899401963E+02  0.56923839433E+02  0.79940158598E+03  0.82014919640E+03  0.17029362679E+03 0.  0.
        -24    2    3    3    0    0  0.44955791228E+02  0.30018828731E+02  0.41632851269E+03  0.42747729553E+03  0.80531077671E+02 0.  0.
          6    2    1    2  501    0  0.36899401963E+02 -0.56923839433E+02  0.10144384820E+04  0.10313010042E+04  0.17290008146E+03 0.  0.
         24    2    5    5    0    0 -0.14858012091E+02  0.86164835667E+01  0.28170377420E+03  0.29380754264E+03  0.81675280234E+02 0.  0.
          5    1    5    5  501    0  0.51757414054E+02 -0.65540323000E+02  0.73273470782E+03  0.73749346159E+03  0.47000000000E+01 0. -1.
        -13    1    6    6    0    0  0.10745480529E+02 -0.32806509670E+02  0.10595559671E+03  0.11143752017E+03  0.00000000000E+00 0.  1.
         14    1    6    6    0    0 -0.25603492620E+02  0.41422993236E+02  0.17574817749E+03  0.18237002246E+03  0.00000000000E+00 0. -1.
         -5    1    3    3    0  503 -0.81855193191E+02  0.26905010702E+02  0.38307307329E+03  0.39267190087E+03  0.47000000000E+01 0.  1.
         11    1    4    4    0    0 -0.15845818903E+01 -0.23842024967E+02  0.14557032789E+03  0.14751838332E+03  0.00000000000E+00 0. -1.
        -12    1    4    4    0    0  0.46540373118E+02  0.53860853698E+02  0.27075818480E+03  0.27995891221E+03  0.00000000000E+00 0.  1.
</event>
<event>
12    1  0.1039610E+000  0.1838148E+03  0.7818608E-02  0.1164240E+00
         21   -1    0    0  501  502  0.00000000000E+00  0.00000000000E+00  0.38833037171E+02  0.38833037171E+02  0.00000000000E+00 0. -1.
         21   -1    0    0  502  503 -0.00000000000E+00 -0.00000000000E+00 -0.87063159535E+03  0.87063159535E+03  0.00000000000E+00 0. -1.
         -6    2    1    2    0  503 -0.14730305091E+02  0.63749028106E+02 -0.43806200942E+03  0.47493458198E+03  0.17141648869E+03 0.  0.
        -24    2    3    3    0    0  0.73142361178E+01  0.87872934186E+02 -0.18931607914E+03  0.22400719712E+03  0.81015405511E+02 0.  0.
          6    2    1    2  501    0  0.14730305091E+02 -0.63749028106E+02 -0.39373654876E+03  0.43453005054E+03  0.17177594278E+03 0.  0.
         24    2    5    5    0    0  0.61462180925E+01  0.17241191542E+02 -0.29372724641E+03  0.30546784544E+03  0.81852761898E+02 0.  0.
          5    1    5    5  501    0  0.85840869982E+01 -0.80990219648E+02 -0.10000930234E+03  0.12906220509E+03  0.47000000000E+01 0. -1.
        -13    1    6    6    0    0  0.16508965108E+02 -0.28355611100E+02 -0.17131589346E+03  0.17442970493E+03  0.00000000000E+00 0.  1.
         14    1    6    6    0    0 -0.10362747015E+02  0.45596802642E+02 -0.12241135295E+03  0.13103814051E+03  0.00000000000E+00 0. -1.
         -5    1    3    3    0  503 -0.22044541208E+02 -0.24123906081E+02 -0.24874593028E+03  0.25092738486E+03  0.47000000000E+01 0.  1.
         11    1    4    4    0    0  0.47093787740E+01 -0.15444531544E+02 -0.20935840033E+02  0.26439009076E+02  0.00000000000E+00 0. -1.
        -12    1    4    4    0    0  0.26048573438E+01  0.10331746573E+03 -0.16838023910E+03  0.19756818804E+03  0.00000000000E+00 0.  1.
</event>
<event>
12    1  0.1039610E+000  0.4463558E+03  0.7818608E-02  0.1028845E+00
         21   -1    0    0  501  502  0.00000000000E+00  0.00000000000E+00  0.36968270691E+03  0.36968270691E+03  0.00000000000E+00 0. -1.
         21   -1    0    0  502  503 -0.00000000000E+00 -0.00000000000E+00 -0.10388662088E+04  0.10388662088E+04  0.00000000000E+00 0.  1.
         -6    2    1    2    0  503 -0.41032101474E+03  0.32920876406E+02 -0.82347282094E+03  0.93666484076E+03  0.17258742091E+03 0.  0.
        -24    2    3    3    0    0 -0.20699506954E+03  0.53442600558E+02 -0.54762821036E+03  0.59333566877E+03  0.80296255748E+02 0.  0.
          6    2    1    2  501    0  0.41032101474E+03 -0.32920876406E+02  0.15428931902E+03  0.47188407496E+03  0.17152920158E+03 0.  0.
         24    2    5    5    0    0  0.16318033815E+03  0.34453321245E+02  0.74771662700E+02  0.20362497595E+03  0.89763440132E+02 0.  0.
          5    1    5    5  501    0  0.24714067659E+03 -0.67374197651E+02  0.79517656324E+02  0.26825909901E+03  0.47000000000E+01 0. -1.
        -11    1    6    6    0    0  0.15741952368E+03  0.44253840467E+02  0.88392687322E+02  0.18588323218E+03  0.00000000000E+00 0.  1.
         12    1    6    6    0    0  0.57608144667E+01 -0.98005192217E+01 -0.13621024623E+02  0.17741743773E+02  0.00000000000E+00 0. -1.
         -5    1    3    3    0  503 -0.20332594520E+03 -0.20521724153E+02 -0.27584461058E+03  0.34332917199E+03  0.47000000000E+01 0.  1.
         11    1    4    4    0    0 -0.17826650264E+02  0.16641804887E+02 -0.14412477717E+03  0.14617349460E+03  0.00000000000E+00 0. -1.
        -12    1    4    4    0    0 -0.18916841928E+03  0.36800795671E+02 -0.40350343319E+03  0.44716217417E+03  0.00000000000E+00 0.  1.
</event>
<event>
12    1  0.1039610E+000  0.3860621E+03  0.7818608E-02  0.1049354E+00
         21   -1    0    0  503  502  0.00000000000E+00  0.00000000000E+00  0.25366940469E+03  0.25366940469E+03  0.00000000000E+00 0. -1.
         21   -1    0    0  501  503 -0.00000000000E+00 -0.00000000000E+00 -0.83920515068E+03  0.83920515068E+03  0.00000000000E+00 0.  1.
          6    2    1    2  501    0 -0.21090537699E+03 -0.26346819120E+03 -0.59637418224E+03  0.70666037037E+03  0.17265615539E+03 0.  0.
         24    2    3    3    0    0 -0.14051756475E+03 -0.96585575551E+02 -0.38000402327E+03  0.42445054204E+03  0.81738886236E+02 0.  0.
         -6    2    1    2    0  502  0.21090537699E+03  0.26346819120E+03  0.10838436250E+02  0.38621418500E+03  0.18747628963E+03 0.  0.
        -24    2    5    5    0    0  0.19976209689E+03  0.20934208065E+03  0.72433051075E+02  0.30332995785E+03  0.55077348823E+02 0.  0.
          5    1    3    3  501    0 -0.70387812233E+02 -0.16688261565E+03 -0.21637015897E+03  0.28220982833E+03  0.47000000000E+01 0. -1.
        -11    1    4    4    0    0 -0.14780877425E+03 -0.99157212331E+02 -0.34067058694E+03  0.38436445636E+03  0.00000000000E+00 0.  1.
         12    1    4    4    0    0  0.72912094958E+01  0.25716367796E+01 -0.39333436330E+02  0.40086085681E+02  0.00000000000E+00 0. -1.
         -5    1    5    5    0  502  0.11143280096E+02  0.54126110547E+02 -0.61594614825E+02  0.82884227147E+02  0.47000000000E+01 0.  1.
         13    1    6    6    0    0  0.15703494849E+03  0.12771202105E+03  0.48785243594E+02  0.20820743349E+03  0.00000000000E+00 0. -1.
        -14    1    6    6    0    0  0.42727148400E+02  0.81630059607E+02  0.23647807481E+02  0.95122524359E+02  0.00000000000E+00 0.  1.
</event>
<event>
12    1  0.1039610E+000  0.3166569E+03  0.7818608E-02  0.1077224E+00
         21   -1    0    0  501  502  0.00000000000E+00  0.00000000000E+00  0.19209593184E+03  0.19209593184E+03  0.00000000000E+00 0.  1.
         21   -1    0    0  502  503 -0.00000000000E+00 -0.00000000000E+00 -0.65233167211E+03  0.65233167211E+03  0.00000000000E+00 0.  1.
         -6    2    1    2    0  503 -0.24059094935E+03 -0.11365761252E+03 -0.41054258093E+02  0.31908514679E+03  0.17125367442E+03 0.  0.
        -24    2    3    3    0    0 -0.24306893718E+03 -0.61682048678E+02 -0.22917380785E+02  0.26378021049E+03  0.78534131156E+02 0.  0.
          6    2    1    2  501    0  0.24059094935E+03  0.11365761252E+03 -0.41918148218E+03  0.52534245716E+03  0.17166689983E+03 0.  0.
         24    2    5    5    0    0  0.53204876214E+02  0.83821508958E+02 -0.16570176868E+03  0.20867577335E+03  0.78941104760E+02 0.  0.
          5    1    5    5  501    0  0.18738607314E+03  0.29836103564E+02 -0.25347971350E+03  0.31666668381E+03  0.47000000000E+01 0. -1.
        -13    1    6    6    0    0  0.65108239524E+02  0.91081219800E+02 -0.13835865319E+03  0.17798311259E+03  0.00000000000E+00 0.  1.
         14    1    6    6    0    0 -0.11903363310E+02 -0.72597108418E+01 -0.27343115496E+02  0.30692660762E+02  0.00000000000E+00 0. -1.
         -5    1    3    3    0  503  0.24779878273E+01 -0.51975563844E+02 -0.18136877309E+02  0.55304936299E+02  0.47000000000E+01 0.  1.
         13    1    4    4    0    0 -0.19432866698E+03 -0.15816554210E+02 -0.75827576444E+01  0.19511866239E+03  0.00000000000E+00 0. -1.
        -14    1    4    4    0    0 -0.48740270193E+02 -0.45865494468E+02 -0.15334623140E+02  0.68661548105E+02  0.00000000000E+00 0.  1.
</event>
<event>
12    1  0.1039610E+000  0.3778807E+03  0.7818608E-02  0.1051885E+00
         21   -1    0    0  501  502  0.00000000000E+00  0.00000000000E+00  0.92184605717E+02  0.92184605717E+02  0.00000000000E+00 0. -1.
         21   -1    0    0  502  503 -0.00000000000E+00 -0.00000000000E+00 -0.20057924392E+04  0.20057924392E+04  0.00000000000E+00 0. -1.
         -6    2    1    2    0  503  0.29799679372E+03 -0.15135518253E+03 -0.45051901445E+03  0.58687720862E+03  0.17247317259E+03 0.  0.
        -24    2    3    3    0    0  0.14966431337E+03 -0.15189584076E+03 -0.28338861267E+03  0.36336551264E+03  0.79079939617E+02 0.  0.
          6    2    1    2  501    0 -0.29799679372E+03  0.15135518253E+03 -0.14630888190E+04  0.15110998363E+04  0.17630468668E+03 0.  0.
         24    2    5    5    0    0 -0.26940344517E+03  0.15539155310E+03 -0.14353705619E+04  0.14707976819E+04  0.78945678444E+02 0.  0.
          5    1    5    5  501    0 -0.28593348544E+02 -0.40363705657E+01 -0.27718257114E+02  0.40302154356E+02  0.47000000000E+01 0. -1.
        -11    1    6    6    0    0 -0.17062684781E+03  0.13476036555E+03 -0.89026796167E+03  0.91643380606E+03  0.00000000000E+00 0.  1.
         12    1    6    6    0    0 -0.98776597361E+02  0.20631187552E+02 -0.54510260024E+03  0.55436387587E+03  0.00000000000E+00 0. -1.
         -5    1    3    3    0  503  0.14833248035E+03  0.54065822547E+00 -0.16713040178E+03  0.22351169598E+03  0.47000000000E+01 0.  1.
         13    1    4    4    0    0 -0.76477532818E+00  0.70713149886E+01 -0.18120115070E+02  0.19466046007E+02  0.00000000000E+00 0. -1.
        -14    1    4    4    0    0  0.15042908870E+03 -0.15896715575E+03 -0.26526849760E+03  0.34389946663E+03  0.00000000000E+00 0.  1.
</event>
<event>
12    1  0.1039610E+000  0.3177773E+03  0.7818608E-02  0.1076931E+00
         21   -1    0    0  503  502  0.00000000000E+00  0.00000000000E+00  0.69139490626E+02  0.69139490626E+02  0.00000000000E+00 0.  1.
         21   -1    0    0  501  503 -0.00000000000E+00 -0.00000000000E+00 -0.16956121140E+04  0.16956121140E+04  0.00000000000E+00 0.  1.
          6    2    1    2  501    0 -0.11156077315E+03  0.24091063448E+03 -0.47537643614E+03  0.57059716026E+03  0.17063007749E+03 0.  0.
         24    2    3    3    0    0 -0.56507184113E+02  0.19242592238E+03 -0.23123625377E+03  0.31563013568E+03  0.77015453212E+02 0.  0.
         -6    2    1    2    0  502  0.11156077315E+03 -0.24091063448E+03 -0.11510961872E+04  0.11941544444E+04  0.17463866933E+03 0.  0.
        -24    2    5    5    0    0  0.22680162912E+02 -0.19389568247E+03 -0.87943290834E+03  0.90444218075E+03  0.80644234669E+02 0.  0.
          5    1    3    3  501    0 -0.55053589036E+02  0.48484712107E+02 -0.24414018237E+03  0.25496702458E+03  0.47000000000E+01 0. -1.
        -13    1    4    4    0    0  0.13290505658E+02  0.23464458339E+02 -0.10297775945E+02  0.28866287174E+02  0.00000000000E+00 0.  1.
         14    1    4    4    0    0 -0.69797689770E+02  0.16896146404E+03 -0.22093847783E+03  0.28676384851E+03  0.00000000000E+00 0. -1.
         -5    1    5    5    0  502  0.88880610237E+02 -0.47014952015E+02 -0.27166327888E+03  0.28971226360E+03  0.47000000000E+01 0.  1.
         13    1    6    6    0    0 -0.23383654384E+02 -0.18342016181E+02 -0.12198532244E+03  0.12555335018E+03  0.00000000000E+00 0. -1.
        -14    1    6    6    0    0  0.46063817297E+02 -0.17555366629E+03 -0.75744758590E+03  0.77888883058E+03  0.00000000000E+00 0.  1.
</event>
<event>
12    1  0.1039610E+000  0.3612674E+03  0.7818608E-02  0.1058093E+00
         21   -1    0    0  501  502  0.00000000000E+00  0.00000000000E+00  0.80725274220E+03  0.80725274220E+03  0.00000000000E+00 0.  1.
         21   -1    0    0  502  503 -0.00000000000E+00 -0.00000000000E+00 -0.16588997576E+03  0.16588997576E+03  0.00000000000E+00 0.  1.
         -6    2    1    2    0  503  0.40086889787E+02  0.31495293334E+03  0.24278376046E+03  0.43526784876E+03  0.17237121820E+03 0.  0.
        -24    2    3    3    0    0 -0.90152788162E+01  0.67082706864E+02  0.47802671222E+02  0.11606511178E+03  0.81268997675E+02 0.  0.
          6    2    1    2  501    0 -0.40086889787E+02 -0.31495293334E+03  0.39857900597E+03  0.53787486920E+03  0.17216806314E+03 0.  0.
         24    2    5    5    0    0 -0.11309362375E+02 -0.66237212189E+02  0.16642406839E+03  0.19639915839E+03  0.79752046495E+02 0.  0.
          5    1    5    5  501    0 -0.28777527412E+02 -0.24871572115E+03  0.23215493758E+03  0.34147571081E+03  0.47000000000E+01 0. -1.
        -13    1    6    6    0    0 -0.11795780780E+01 -0.18528785887E+02 -0.41202727399E+01  0.19017990386E+02  0.00000000000E+00 0.  1.
         14    1    6    6    0    0 -0.10129784297E+02 -0.47708426302E+02  0.17054434113E+03  0.17738116800E+03  0.00000000000E+00 0. -1.
         -5    1    3    3    0  503  0.49102168603E+02  0.24787022648E+03  0.19498108924E+03  0.31920273698E+03  0.47000000000E+01 0.  1.
         11    1    4    4    0    0 -0.42381476661E+02  0.53520623719E+02  0.40295133396E+02  0.79273857624E+02  0.00000000000E+00 0. -1.
        -12    1    4    4    0    0  0.33366197844E+02  0.13562083145E+02  0.75075378262E+01  0.36791254152E+02  0.00000000000E+00 0.  1.
</event>
<event>
12    1  0.1039610E+000  0.1724354E+03  0.7818608E-02  0.1175592E+00
         21   -1    0    0  503  502  0.00000000000E+00  0.00000000000E+00  0.15003720470E+04  0.15003720470E+04  0.00000000000E+00 0. -1.
         21   -1    0    0  501  503 -0.00000000000E+00 -0.00000000000E+00 -0.20116130285E+02  0.20116130285E+02  0.00000000000E+00 0. -1.
          6    2    1    2  501    0 -0.37376626673E+01 -0.24272422351E+01  0.84714354217E+03  0.86431347427E+03  0.17136434615E+03 0.  0.
         24    2    3    3    0    0 -0.50056140368E+02  0.41076321934E+02  0.62774921839E+03  0.63585358549E+03  0.77767728405E+02 0.  0.
         -6    2    1    2    0  502  0.37376626673E+01  0.24272422351E+01  0.63311237450E+03  0.65617470297E+03  0.17237778410E+03 0.  0.
        -24    2    5    5    0    0  0.60536850963E+02  0.41053414686E+00  0.51101412450E+03  0.52141459183E+03  0.84100310766E+02 0.  0.
          5    1    3    3  501    0  0.46318477701E+02 -0.43503564169E+02  0.21939432378E+03  0.22845988877E+03  0.47000000000E+01 0. -1.
        -13    1    4    4    0    0  0.95584949735E+01  0.19044225574E+02  0.36135914520E+03  0.36198684945E+03  0.00000000000E+00 0.  1.
         14    1    4    4    0    0 -0.59614635342E+02  0.22032096360E+02  0.26639007320E+03  0.27386673605E+03  0.00000000000E+00 0. -1.
         -5    1    5    5    0  502 -0.56799188296E+02  0.20167080882E+01  0.12209825000E+03  0.13476011114E+03  0.47000000000E+01 0.  1.
         13    1    6    6    0    0  0.66255937241E+02 -0.68479123828E+00  0.51130876956E+03  0.51558411146E+03  0.00000000000E+00 0. -1.
        -14    1    6    6    0    0 -0.57190862786E+01  0.10953253851E+01 -0.29464506712E+00  0.58304803642E+01  0.00000000000E+00 0.  1.
</event>
<event>
12    1  0.1039610E+000  0.4443537E+03  0.7818608E-02  0.1029438E+00
         21   -1    0    0  501  502  0.00000000000E+00  0.00000000000E+00  0.53347906090E+03  0.53347906090E+03  0.00000000000E+00 0.  1.
         21   -1    0    0  502  503 -0.00000000000E+00 -0.00000000000E+00 -0.38134285232E+03  0.38134285232E+03  0.00000000000E+00 0.  1.
         -6    2    1    2    0  503  0.38441518636E+03  0.14320507730E+03 -0.31378851711E+01  0.44412005923E+03  0.17014714519E+03 0.  0.
        -24    2    3    3    0    0  0.25729114765E+03  0.15365226977E+03 -0.47925160083E+02  0.30885123413E+03  0.57310637674E+02 0.  0.
          6    2    1    2  501    0 -0.38441518636E+03 -0.14320507730E+03  0.15527409375E+03  0.47070185399E+03  0.17078483974E+03 0.  0.
         24    2    5    5    0    0 -0.36020781606E+03 -0.17202893060E+03  0.13947370689E+03  0.42960984113E+03  0.75947856916E+02 0.  0.
          5    1    5    5  501    0 -0.24207370302E+02  0.28823853294E+02  0.15800386863E+02  0.41092012857E+02  0.47000000000E+01 0. -1.
        -13    1    6    6    0    0 -0.23293416504E+03 -0.15023425301E+03  0.92582807415E+02  0.29223318129E+03  0.00000000000E+00 0.  1.
         14    1    6    6    0    0 -0.12727365102E+03 -0.21794677593E+02  0.46890899474E+02  0.13737665984E+03  0.00000000000E+00 0. -1.
         -5    1    3    3    0  503  0.12712403871E+03 -0.10447192471E+02  0.44787274912E+02  0.13526882510E+03  0.47000000000E+01 0.  1.
         13    1    4    4    0    0  0.72832458927E+02  0.39607214226E+02 -0.39465009082E+02  0.91819308612E+02  0.00000000000E+00 0. -1.
        -14    1    4    4    0    0  0.18445868872E+03  0.11404505555E+03 -0.84601510008E+01  0.21703192552E+03  0.00000000000E+00 0.  1.
</event>
<event>
12    1  0.1039610E+000  0.2138074E+03  0.7818608E-02  0.1138752E+00
         21   -1    0    0  501  502  0.00000000000E+00  0.00000000000E+00  0.28808454591E+04  0.28808454591E+04  0.00000000000E+00 0.  1.
         21   -1    0    0  502  503 -0.00000000000E+00 -0.00000000000E+00 -0.20325710992E+02  0.20325710992E+02  0.00000000000E+00 0. -1.
         -6    2    1    2    0  503 -0.10368979981E+03 -0.69887939349E+02  0.74835498640E+03  0.77829866385E+03  0.17342931076E+03 0.  0.
        -24    2    3    3    0    0 -0.71474414465E+02 -0.51286951945E+02  0.23648988605E+03  0.26506207246E+03  0.81188008294E+02 0.  0.
          6    2    1    2  501    0  0.10368979981E+03  0.69887939349E+02  0.21121647617E+04  0.21228725063E+04  0.17237110692E+03 0.  0.
         24    2    5    5    0    0  0.61673492457E+02 -0.24959973875E+02  0.12852153539E+04  0.12894285010E+04  0.80129479177E+02 0.  0.
          5    1    5    5  501    0  0.42016307354E+02  0.94847913224E+02  0.82694940785E+03  0.83344400524E+03  0.47000000000E+01 0. -1.
        -11    1    6    6    0    0  0.77848085008E+02 -0.32647016386E+02  0.11382605729E+04  0.11413865620E+04  0.00000000000E+00 0.  1.
         12    1    6    6    0    0 -0.16174592550E+02  0.76870425106E+01  0.14695478095E+03  0.14804193902E+03  0.00000000000E+00 0. -1.
         -5    1    3    3    0  503 -0.32215385346E+02 -0.18600987404E+02  0.51186510035E+03  0.51323659139E+03  0.47000000000E+01 0.  1.
         11    1    4    4    0    0 -0.49674174485E+02  0.53994518203E+01  0.15864638688E+03  0.16632905266E+03  0.00000000000E+00 0. -1.
        -12    1    4    4    0    0 -0.21800239981E+02 -0.56686403765E+02  0.77843499174E+02  0.98733019799E+02  0.00000000000E+00 0.  1.
</event>
<event>
12    1  0.1039610E+000  0.2088245E+03  0.7818608E-02  0.1143483E+00
         21   -1    0    0  503  502  0.00000000000E+00  0.00000000000E+00  0.92653015812E+03  0.92653015812E+03  0.00000000000E+00 0. -1.
         21   -1    0    0  501  503 -0.00000000000E+00 -0.00000000000E+00 -0.97163370858E+02  0.97163370858E+02  0.00000000000E+00 0. -1.
          6    2    1    2  501    0 -0.63943160482E+02 -0.85433467380E+02  0.78849959893E+03  0.81568331766E+03  0.17949944868E+03 0.  0.
         24    2    3    3    0    0 -0.10497026628E+03 -0.23337383436E+02  0.54360000183E+03  0.55968126745E+03  0.78605145359E+02 0.  0.
         -6    2    1    2    0  502  0.63943160482E+02  0.85433467380E+02  0.40867188336E+02  0.20801021132E+03  0.17381172518E+03 0.  0.
        -24    2    5    5    0    0  0.33017042027E+02 -0.31051035556E+01  0.63304025838E+02  0.11146485916E+03  0.85540916577E+02 0.  0.
          5    1    3    3  501    0  0.41027105800E+02 -0.62096083944E+02  0.24489959710E+03  0.25600205021E+03  0.47000000000E+01 0. -1.
        -13    1    4    4    0    0 -0.63863962664E+02  0.25874441723E+02  0.29576191507E+03  0.30368273390E+03  0.00000000000E+00 0.  1.
         14    1    4    4    0    0 -0.41106303618E+02 -0.49211825159E+02  0.24783808676E+03  0.25599853356E+03  0.00000000000E+00 0. -1.
         -5    1    5    5    0  502  0.30926118455E+02  0.88538570936E+02 -0.22436837502E+02  0.96545352157E+02  0.47000000000E+01 0.  1.
         13    1    6    6    0    0 -0.22425896524E+02  0.20202779193E+02  0.30699365336E+02  0.43052574302E+02  0.00000000000E+00 0. -1.
        -14    1    6    6    0    0  0.55442938552E+02 -0.23307882749E+02  0.32604660503E+02  0.68412284861E+02  0.00000000000E+00 0.  1.
</event>
<event>
12    1  0.1039610E+000  0.2001575E+03  0.7818608E-02  0.1149623E+00
         21   -1    0    0  503  502  0.00000000000E+00  0.00000000000E+00  0.18790546453E+03  0.18790546453E+03  0.00000000000E+00 0.  1.
         21   -1    0    0  501  503 -0.00000000000E+00 -0.00000000000E+00 -0.22479701320E+03  0.22479701320E+03  0.00000000000E+00 0.  1.
          6    2    1    2  501    0  0.34804806089E+02  0.97740684994E+02  0.28572550602E+02  0.20218661088E+03  0.17116780930E+03 0.  0.
         24    2    3    3    0    0  0.60525018375E+02  0.11463733614E+03  0.54832530812E+02  0.16145943689E+03  0.79104656251E+02 0.  0.
         -6    2    1    2    0  502 -0.34804806089E+02 -0.97740684994E+02 -0.65464099274E+02  0.21051586686E+03  0.17107532222E+03 0.  0.
        -24    2    5    5    0    0  0.44521787882E+02 -0.34447430449E+02 -0.24406684731E+02  0.10094148175E+03  0.80154110424E+02 0.  0.
          5    1    3    3  501    0 -0.25720212286E+02 -0.16896651144E+02 -0.26259980211E+02  0.40727173982E+02  0.47000000000E+01 0. -1.
        -13    1    4    4    0    0 -0.17133473041E+02  0.73701947058E+01  0.15541049746E+01  0.18716060235E+02  0.00000000000E+00 0.  1.
         14    1    4    4    0    0  0.77658491416E+02  0.10726714143E+03  0.53278425838E+02  0.14274337666E+03  0.00000000000E+00 0. -1.
         -5    1    5    5    0  502 -0.79326593972E+02 -0.63293254545E+02 -0.41057414543E+02  0.10957438510E+03  0.47000000000E+01 0.  1.
         13    1    6    6    0    0  0.28756294334E+02 -0.60788546048E+02 -0.16582129489E+02  0.69261380386E+02  0.00000000000E+00 0. -1.
        -14    1    6    6    0    0  0.15765493548E+02  0.26341115599E+02 -0.78245552413E+01  0.31680101366E+02  0.00000000000E+00 0.  1.
</event>
<event>
12    1  0.1039610E+000  0.2134771E+03  0.7818608E-02  0.1139328E+00
         21   -1    0    0  501  502  0.00000000000E+00  0.00000000000E+00  0.13100571435E+04  0.13100571435E+04  0.00000000000E+00 0.  1.
         21   -1    0    0  502  503 -0.00000000000E+00 -0.00000000000E+00 -0.41538671132E+02  0.41538671132E+02  0.00000000000E+00 0.  1.
         -6    2    1    2    0  503  0.58769440114E+02 -0.10717278461E+03  0.91786406476E+03  0.94236241740E+03  0.17502180291E+03 0.  0.
        -24    2    3    3    0    0  0.87082665885E+02 -0.58225957213E+02  0.41541027373E+03  0.43671497818E+03  0.84738561801E+02 0.  0.
          6    2    1    2  501    0 -0.58769440114E+02  0.10717278461E+03  0.35065440763E+03  0.40923339725E+03  0.17196978510E+03 0.  0.
         24    2    5    5    0    0  0.26073951552E+02  0.84585446897E+02  0.22672401297E+03  0.25728135991E+03  0.83398868828E+02 0.  0.
          5    1    5    5  501    0 -0.84843391666E+02  0.22587337709E+02  0.12393039466E+03  0.15195203735E+03  0.47000000000E+01 0. -1.
        -11    1    6    6    0    0 -0.23988650869E+02  0.78881969028E+00  0.44792467038E+02  0.50817740115E+02  0.00000000000E+00 0.  1.
         12    1    6    6    0    0  0.50062602421E+02  0.83796627206E+02  0.18193154593E+03  0.20646361979E+03  0.00000000000E+00 0. -1.
         -5    1    3    3    0  503 -0.28313225771E+02 -0.48946827393E+02  0.50245379103E+03  0.50564743922E+03  0.47000000000E+01 0.  1.
         11    1    4    4    0    0  0.53297190325E+02 -0.63612598911E+02  0.37352502695E+03  0.38263311278E+03  0.00000000000E+00 0. -1.
        -12    1    4    4    0    0  0.33785475560E+02  0.53866416978E+01  0.41885246780E+02  0.54081865403E+02  0.00000000000E+00 0.  1.
</event>
<event>
12    1  0.1039610E+000  0.1822707E+03  0.7818608E-02  0.1165742E+00
         21   -1    0    0  503  502  0.00000000000E+00  0.00000000000E+00  0.94940197247E+03  0.94940197247E+03  0.00000000000E+00 0.  1.
         21   -1    0    0  501  503 -0.00000000000E+00 -0.00000000000E+00 -0.36329552105E+02  0.36329552105E+02  0.00000000000E+00 0.  1.
          6    2    1    2  501    0 -0.37051199704E+02  0.48708583867E+02  0.35809867236E+03  0.40159244181E+03  0.17116224067E+03 0.  0.
         24    2    3    3    0    0 -0.38671201241E+02  0.33149177570E+01  0.34370471919E+03  0.35371253772E+03  0.73980908756E+02 0.  0.
         -6    2    1    2    0  502  0.37051199704E+02 -0.48708583867E+02  0.55497374801E+03  0.58413908277E+03  0.17168951481E+03 0.  0.
        -24    2    5    5    0    0  0.82149607982E+01 -0.30179584620E+01  0.50484279774E+03  0.51028541597E+03  0.73813018305E+02 0.  0.
          5    1    3    3  501    0  0.16200015368E+01  0.45393666110E+02  0.14393953165E+02  0.47879904089E+02  0.47000000000E+01 0. -1.
        -11    1    4    4    0    0  0.26280537197E+01 -0.46738257519E+01  0.25978618145E+03  0.25984151205E+03  0.00000000000E+00 0.  1.
         12    1    4    4    0    0 -0.41299254960E+02  0.79887435089E+01  0.83918537746E+02  0.93871025671E+02  0.00000000000E+00 0. -1.
         -5    1    5    5    0  502  0.28836238906E+02 -0.45690625405E+02  0.50130950271E+02  0.73853666795E+02  0.47000000000E+01 0.  1.
         13    1    6    6    0    0 -0.38710766238E+01 -0.37299226589E+02  0.28528050554E+03  0.28773457280E+03  0.00000000000E+00 0. -1.
        -14    1    6    6    0    0  0.12086037422E+02  0.34281268127E+02  0.21956229219E+03  0.22255084318E+03  0.00000000000E+00 0.  1.
</event>
<event>
12    1  0.1039610E+000  0.2862779E+03  0.7818608E-02  0.1092341E+00
         21   -1    0    0  503  502  0.00000000000E+00  0.00000000000E+00  0.28594855663E+03  0.28594855663E+03  0.00000000000E+00 0.  1.
         21   -1    0    0  501  503 -0.00000000000E+00 -0.00000000000E+00 -0.31642833537E+03  0.31642833537E+03  0.00000000000E+00 0.  1.
          6    2    1    2  501    0  0.84329616931E+02 -0.21219842337E+03 -0.10807085580E+03  0.30577044135E+03  0.17226896924E+03 0.  0.
         24    2    3    3    0    0  0.11144589927E+03 -0.16790598647E+03 -0.12734661617E+03  0.25017585823E+03  0.75882742679E+02 0.  0.
         -6    2    1    2    0  502 -0.84329616931E+02  0.21219842337E+03  0.77591077058E+02  0.29660645065E+03  0.17267123720E+03 0.  0.
        -24    2    5    5    0    0 -0.73447164683E+02  0.19611586110E+03  0.58349074111E+01  0.22212078452E+03  0.73808399231E+02 0.  0.
          5    1    3    3  501    0 -0.27116282338E+02 -0.44292436898E+02  0.19275760377E+02  0.55594583120E+02  0.47000000000E+01 0. -1.
        -13    1    4    4    0    0  0.59474548781E+02 -0.38642112578E+02 -0.69571421346E+02  0.99350981300E+02  0.00000000000E+00 0.  1.
         14    1    4    4    0    0  0.51971350488E+02 -0.12926387389E+03 -0.57775194826E+02  0.15082487693E+03  0.00000000000E+00 0. -1.
         -5    1    5    5    0  502 -0.10882452248E+02  0.16082562272E+02  0.71756169647E+02  0.74485666128E+02  0.47000000000E+01 0.  1.
         11    1    6    6    0    0 -0.48479851897E+02  0.69652538196E+02  0.31803052895E+02  0.90626741586E+02  0.00000000000E+00 0. -1.
        -12    1    6    6    0    0 -0.24967312786E+02  0.12646332290E+03 -0.25968145484E+02  0.13149404293E+03  0.00000000000E+00 0.  1.
</event>
<event>
12    1  0.1039610E+000  0.3533376E+03  0.7818608E-02  0.1061502E+00
         21   -1    0    0  503  502  0.00000000000E+00  0.00000000000E+00  0.40857777119E+03  0.40857777119E+03  0.00000000000E+00 0.  1.
         21   -1    0    0  501  503 -0.00000000000E+00 -0.00000000000E+00 -0.47451744179E+03  0.47451744179E+03  0.00000000000E+00 0. -1.
          6    2    1    2  501    0  0.30666768359E+03 -0.36600041828E+02  0.23206741922E+03  0.42273245870E+03  0.17164735174E+03 0.  0.
         24    2    3    3    0    0  0.13978297049E+03 -0.77091948450E+02  0.90518502794E+02  0.20013801199E+03  0.79869751095E+02 0.  0.
         -6    2    1    2    0  502 -0.30666768359E+03  0.36600041828E+02 -0.29800708981E+03  0.46036275428E+03  0.16655632299E+03 0.  0.
        -24    2    5    5    0    0 -0.19335998745E+03  0.86401625413E+02 -0.20786248874E+03  0.30717342425E+03  0.79343384853E+02 0.  0.
          5    1    3    3  501    0  0.16688471310E+03  0.40491906621E+02  0.14154891642E+03  0.22259444671E+03  0.47000000000E+01 0. -1.
        -13    1    4    4    0    0  0.26554342397E+02  0.86945477088E+01  0.41165444440E+02  0.49752608735E+02  0.00000000000E+00 0.  1.
         14    1    4    4    0    0  0.11322862809E+03 -0.85786496158E+02  0.49353058354E+02  0.15038540325E+03  0.00000000000E+00 0. -1.
         -5    1    5    5    0  502 -0.11330769614E+03 -0.49801583585E+02 -0.90144601075E+02  0.15318933003E+03  0.47000000000E+01 0.  1.
         11    1    6    6    0    0 -0.39889726863E+02 -0.12384015203E+02 -0.55248942408E+02  0.69260376688E+02  0.00000000000E+00 0. -1.
        -12    1    6    6    0    0 -0.15347026058E+03  0.98785640616E+02 -0.15261354633E+03  0.23791304756E+03  0.00000000000E+00 0.  1.
</event>
<event>
12    1  0.1039610E+000  0.1971621E+03  0.7818608E-02  0.1153997E+00
         21   -1    0    0  503  502  0.00000000000E+00  0.00000000000E+00  0.21955547060E+03  0.21955547060E+03  0.00000000000E+00 0. -1.
         21   -1    0    0  501  503 -0.00000000000E+00 -0.00000000000E+00 -0.17147587149E+03  0.17147587149E+03  0.00000000000E+00 0. -1.
          6    2    1    2  501    0  0.30689362525E+02  0.66733049587E+02  0.44915106899E+02  0.20221338347E+03  0.18296925629E+03 0.  0.
         24    2    3    3    0    0 -0.19207582581E+01 -0.38346528641E+01 -0.41547690010E+02  0.85847040157E+02  0.75000732554E+02 0.  0.
         -6    2    1    2    0  502 -0.30689362525E+02 -0.66733049587E+02  0.31644922149E+01  0.18881795861E+03  0.17391684969E+03 0.  0.
        -24    2    5    5    0    0  0.16967042378E+00 -0.19371522902E+02 -0.61495313449E+02  0.10280415395E+03  0.80073315190E+02 0.  0.
          5    1    3    3  501    0  0.32610120783E+02  0.70567702451E+02  0.86462796909E+02  0.11636634331E+03  0.47000000000E+01 0. -1.
        -11    1    4    4    0    0  0.27955253221E+02 -0.70360431597E+01 -0.47167402460E+02  0.55278982813E+02  0.00000000000E+00 0.  1.
         12    1    4    4    0    0 -0.29876011479E+02  0.32013902955E+01  0.56197124499E+01  0.30568057343E+02  0.00000000000E+00 0. -1.
         -5    1    5    5    0  502 -0.30859032949E+02 -0.47361526685E+02  0.64659805664E+02  0.86013804665E+02  0.47000000000E+01 0.  1.
         11    1    6    6    0    0 -0.85194456705E+01 -0.45754524511E+02 -0.58663714107E+02  0.74883167805E+02  0.00000000000E+00 0. -1.
        -12    1    6    6    0    0  0.86891160943E+01  0.26383001610E+02 -0.28315993425E+01  0.27920986144E+02  0.00000000000E+00 0.  1.
</event>
<event>
12    1  0.1039610E+000  0.3157693E+03  0.7818608E-02  0.1077772E+00
         21   -1    0    0  501  502  0.00000000000E+00  0.00000000000E+00  0.85402333613E+02  0.85402333613E+02  0.00000000000E+00 0.  1.
         21   -1    0    0  502  503 -0.00000000000E+00 -0.00000000000E+00 -0.11628916551E+04  0.11628916551E+04  0.00000000000E+00 0.  1.
         -6    2    1    2    0  503 -0.26236613970E+03 -0.35766564051E+02 -0.54838064294E+03  0.63212335244E+03  0.16953868226E+03 0.  0.
        -24    2    3    3    0    0 -0.22433869276E+03 -0.16879201487E+02 -0.53748865749E+03  0.58803770248E+03  0.79256079262E+02 0.  0.
          6    2    1    2  501    0  0.26236613970E+03  0.35766564051E+02 -0.52910867853E+03  0.61617063626E+03  0.17203203459E+03 0.  0.
         24    2    5    5    0    0  0.14008077411E+03 -0.34891133633E+02 -0.35568397658E+03  0.39246449391E+03  0.81714584376E+02 0.  0.
          5    1    5    5  501    0  0.12228536558E+03  0.70657697684E+02 -0.17342470195E+03  0.22370614235E+03  0.47000000000E+01 0. -1.
        -11    1    6    6    0    0  0.58149695509E+02 -0.55752107511E+02 -0.15459080632E+03  0.17432154766E+03  0.00000000000E+00 0.  1.
         12    1    6    6    0    0  0.81931078606E+02  0.20860973878E+02 -0.20109317026E+03  0.21814294625E+03  0.00000000000E+00 0. -1.
         -5    1    3    3    0  503 -0.38027446937E+02 -0.18887362564E+02 -0.10891985454E+02  0.44085649959E+02  0.47000000000E+01 0.  1.
         11    1    4    4    0    0 -0.17164878183E+03  0.20965947973E+02 -0.41057640503E+03  0.44550629585E+03  0.00000000000E+00 0. -1.
        -12    1    4    4    0    0 -0.52689910930E+02 -0.37845149460E+02 -0.12691225246E+03  0.14253140663E+03  0.00000000000E+00 0.  1.
</event>
<event>
12    1  0.1039610E+000  0.2328400E+03  0.7818608E-02  0.1124824E+00
         21   -1    0    0  503  502  0.00000000000E+00  0.00000000000E+00  0.10351746807E+04  0.10351746807E+04  0.00000000000E+00 0. -1.
         21   -1    0    0  501  503 -0.00000000000E+00 -0.00000000000E+00 -0.58677432977E+02  0.58677432977E+02  0.00000000000E+00 0. -1.
          6    2    1    2  501    0  0.39359966230E+02  0.15191147913E+03  0.67147573438E+03  0.71069974539E+03  0.17201209784E+03 0.  0.
         24    2    3    3    0    0 -0.15030466215E+02  0.14994667110E+03  0.57518911160E+03  0.59999571051E+03  0.80264683643E+02 0.  0.
         -6    2    1    2    0  502 -0.39359966230E+02 -0.15191147913E+03  0.30502151334E+03  0.38315236828E+03  0.17070825782E+03 0.  0.
        -24    2    5    5    0    0 -0.69947457605E+02 -0.10241878670E+03  0.12205497959E+03  0.19110038650E+03  0.78991676686E+02 0.  0.
          5    1    3    3  501    0  0.54390432445E+02  0.19648080307E+01  0.96286622785E+02  0.11070403488E+03  0.47000000000E+01 0. -1.
        -13    1    4    4    0    0  0.29494779133E+02  0.96267691726E+02  0.35750229300E+03  0.37140988135E+03  0.00000000000E+00 0.  1.
         14    1    4    4    0    0 -0.44525245348E+02  0.53678979370E+02  0.21768681860E+03  0.22858582916E+03  0.00000000000E+00 0. -1.
         -5    1    5    5    0  502  0.30587491375E+02 -0.49492692428E+02  0.18296653375E+03  0.19205198178E+03  0.47000000000E+01 0.  1.
         13    1    6    6    0    0 -0.56892891290E+02 -0.35423196050E+02  0.98010323959E+02  0.11873343042E+03  0.00000000000E+00 0. -1.
        -14    1    6    6    0    0 -0.13054566315E+02 -0.66995590649E+02  0.24044655629E+02  0.72366956081E+02  0.00000000000E+00 0.  1.
</event>
<event>
12    1  0.1039610E+000  0.2159909E+03  0.7818608E-02  0.1137074E+00
         21   -1    0    0  501  502  0.00000000000E+00  0.00000000000E+00  0.44040908646E+03  0.44040908646E+03  0.00000000000E+00 0. -1.
         21   -1    0    0  502  503 -0.00000000000E+00 -0.00000000000E+00 -0.12599570084E+03  0.12599570084E+03  0.00000000000E+00 0. -1.
         -6    2    1    2    0  503 -0.93272124219E+02  0.89030717559E+02  0.43256362416E+02  0.22027973688E+03  0.17327980773E+03 0.  0.
        -24    2    3    3    0    0 -0.20063165863E+02  0.57477231428E+02  0.84169296130E+02  0.13055163529E+03  0.79076521853E+02 0.  0.
          6    2    1    2  501    0  0.93272124219E+02 -0.89030717559E+02  0.27115702320E+03  0.34612505042E+03  0.17219251281E+03 0.  0.
         24    2    5    5    0    0  0.43491701620E+02 -0.50081441310E+02  0.26277640745E+03  0.28219179370E+03  0.78619903607E+02 0.  0.
          5    1    5    5  501    0  0.49780422599E+02 -0.38949276249E+02  0.83806157494E+01  0.63933256719E+02  0.47000000000E+01 0. -1.
        -11    1    6    6    0    0  0.77607512684E+01  0.15396938578E+02  0.13223409641E+02  0.21729094329E+02  0.00000000000E+00 0.  1.
         12    1    6    6    0    0  0.35730950351E+02 -0.65478379888E+02  0.24955299781E+03  0.26046269937E+03  0.00000000000E+00 0. -1.
         -5    1    3    3    0  503 -0.73208958355E+02  0.31553486131E+02 -0.40912933714E+02  0.89728101593E+02  0.47000000000E+01 0.  1.
         13    1    4    4    0    0 -0.46211510917E+02  0.23333340714E+02  0.25227154635E+02  0.57587827369E+02  0.00000000000E+00 0. -1.
        -14    1    4    4    0    0  0.26148345054E+02  0.34143890713E+02  0.58942141495E+02  0.72963807919E+02  0.00000000000E+00 0.  1.
</event>
<event>
12    1  0.1039610E+000  0.2458339E+03  0.7818608E-02  0.1115986E+00
         21   -1    0    0  503  502  0.00000000000E+00  0.00000000000E+00  0.11149749067E+03  0.11149749067E+03  0.00000000000E+00 0. -1.
         21   -1    0    0  501  503 -0.00000000000E+00 -0.00000000000E+00 -0.75110233322E+03  0.75110233322E+03  0.00000000000E+00 0. -1.
          6    2    1    2  501    0 -0.17692467859E+02 -0.17400945289E+03 -0.92159469122E+02  0.26254079903E+03  0.17274834382E+03 0.  0.
         24    2    3    3    0    0 -0.27438163441E+02 -0.14099964503E+03 -0.24949237649E+01  0.16638235326E+03  0.83923239467E+02 0.  0.
         -6    2    1    2    0  502  0.17692467859E+02  0.17400945289E+03 -0.54744537343E+03  0.60005902486E+03  0.17257486291E+03 0.  0.
        -24    2    5    5    0    0  0.31706119844E+02  0.62848745418E+02 -0.14044732817E+03  0.17789485753E+03  0.83461880580E+02 0.  0.
          5    1    3    3  501    0  0.97456955817E+01 -0.33009807864E+02 -0.89664545357E+02  0.96158445764E+02  0.47000000000E+01 0. -1.
        -11    1    4    4    0    0  0.11724495081E+02 -0.11356288261E+03 -0.19121889966E+02  0.11575680873E+03  0.00000000000E+00 0.  1.
         12    1    4    4    0    0 -0.39162658522E+02 -0.27436762419E+02  0.16626966201E+02  0.50625544537E+02  0.00000000000E+00 0. -1.
         -5    1    5    5    0  502 -0.14013651984E+02  0.11116070747E+03 -0.40699804526E+03  0.42216416733E+03  0.47000000000E+01 0.  1.
         11    1    6    6    0    0 -0.13700318393E+02  0.58570245786E+02 -0.57377125465E+02  0.83128255979E+02  0.00000000000E+00 0. -1.
        -12    1    6    6    0    0  0.45406438237E+02  0.42784996329E+01 -0.83070202704E+02  0.94766601552E+02  0.00000000000E+00 0.  1.
</event>
<event>
12    1  0.1039610E+000  0.1859029E+03  0.7818608E-02  0.1162501E+00
         21   -1    0    0  503  502  0.00000000000E+00  0.00000000000E+00  0.39525931850E+02  0.39525931850E+02  0.00000000000E+00 0.  1.
         21   -1    0    0  501  503 -0.00000000000E+00 -0.00000000000E+00 -0.10848624862E+04  0.10848624862E+04  0.00000000000E+00 0.  1.
          6    2    1    2  501    0 -0.67683433826E+02 -0.52287191382E+01 -0.27018274173E+03  0.32725396663E+03  0.17172087243E+03 0.  0.
         24    2    3    3    0    0 -0.43114178111E+02  0.21958196926E+02 -0.27559426487E+03  0.28991563091E+03  0.75880692199E+02 0.  0.
         -6    2    1    2    0  502  0.67683433826E+02  0.52287191382E+01 -0.77515381265E+03  0.79713445145E+03  0.17306505627E+03 0.  0.
        -24    2    5    5    0    0  0.56512501350E+01  0.44266768290E+02 -0.22915627860E+03  0.24621943234E+03  0.78229952292E+02 0.  0.
          5    1    3    3  501    0 -0.24569255716E+02 -0.27186916064E+02  0.54115231459E+01  0.37338335719E+02  0.47000000000E+01 0. -1.
        -11    1    4    4    0    0 -0.57225976741E+02 -0.18288260689E+01 -0.22590263415E+03  0.23304539716E+03  0.00000000000E+00 0.  1.
         12    1    4    4    0    0  0.14111798630E+02  0.23787022995E+02 -0.49691630723E+02  0.56870233756E+02  0.00000000000E+00 0. -1.
         -5    1    5    5    0  502  0.62032183692E+02 -0.39038049152E+02 -0.54599753404E+03  0.55091501911E+03  0.47000000000E+01 0.  1.
         13    1    6    6    0    0  0.24654251071E+02  0.56404514959E+01 -0.17604953088E+03  0.17785692033E+03  0.00000000000E+00 0. -1.
        -14    1    6    6    0    0 -0.19003000936E+02  0.38626316794E+02 -0.53106747728E+02  0.68362512007E+02  0.00000000000E+00 0.  1.
</event>
<event>
12    1  0.1039610E+000  0.2754714E+03  0.7818608E-02  0.1098242E+00
         21   -1    0    0  501  502  0.00000000000E+00  0.00000000000E+00  0.32983679144E+03  0.32983679144E+03  0.00000000000E+00 0.  1.
         21   -1    0    0  502  503 -0.00000000000E+00 -0.00000000000E+00 -0.37094431395E+03  0.37094431395E+03  0.00000000000E+00 0.  1.
         -6    2    1    2    0  503  0.20481168620E+03  0.65828752324E+02  0.19561732652E+03  0.33786182394E+03  0.17205586943E+03 0.  0.
        -24    2    3    3    0    0  0.10894069209E+03  0.77674808469E+02  0.55423731097E+02  0.16754473509E+03  0.84249617346E+02 0.  0.
          6    2    1    2  501    0 -0.20481168620E+03 -0.65828752324E+02 -0.23672484903E+03  0.36291928145E+03  0.17143657505E+03 0.  0.
         24    2    5    5    0    0 -0.10320579731E+03 -0.68002654819E+02 -0.59521739601E+02  0.15858740802E+03  0.79569660276E+02 0.  0.
          5    1    5    5  501    0 -0.10160588889E+03  0.21739024955E+01 -0.17720310943E+03  0.20433187343E+03  0.47000000000E+01 0. -1.
        -13    1    6    6    0    0 -0.57919995414E+02 -0.74479425373E+02 -0.61793344777E+02  0.11278443213E+03  0.00000000000E+00 0.  1.
         14    1    6    6    0    0 -0.45285801894E+02  0.64767705537E+01  0.22716051756E+01  0.45802975886E+02  0.00000000000E+00 0. -1.
         -5    1    3    3    0  503  0.95870994107E+02 -0.11846056145E+02  0.14019359542E+03  0.17031708885E+03  0.47000000000E+01 0.  1.
         11    1    4    4    0    0  0.32045502659E+02 -0.16727657428E+02  0.91267975605E+01  0.37283068508E+02  0.00000000000E+00 0. -1.
        -12    1    4    4    0    0  0.76895189434E+02  0.94402465897E+02  0.46296933537E+02  0.13026166658E+03  0.00000000000E+00 0.  1.
</event>
<event>
12    1  0.1039610E+000  0.1895724E+03  0.7818608E-02  0.1158901E+00
         21   -1    0    0  501  502  0.00000000000E+00  0.00000000000E+00  0.14788721388E+03  0.14788721388E+03  0.00000000000E+00 0. -1.
         21   -1    0    0  502  503 -0.00000000000E+00 -0.00000000000E+00 -0.28183157156E+03  0.28183157156E+03  0.00000000000E+00 0. -1.
         -6    2    1    2    0  503 -0.50487396636E+02  0.57890528300E+02 -0.14699469286E+03  0.23969768091E+03  0.17305273190E+03 0.  0.
        -24    2    3    3    0    0  0.17165509070E+02 -0.17414639040E+02 -0.51362904635E+02  0.10035883924E+03  0.82679043819E+02 0.  0.
          6    2    1    2  501    0  0.50487396636E+02 -0.57890528300E+02  0.13050335181E+02  0.19002110452E+03  0.17331306480E+03 0.  0.
         24    2    5    5    0    0 -0.13729695019E+02 -0.76851335863E+02  0.39098938703E+02  0.11802133487E+03  0.79408287529E+02 0.  0.
          5    1    5    5  501    0  0.64217091655E+02  0.18960807563E+02 -0.26048603522E+02  0.71999769649E+02  0.47000000000E+01 0. -1.
        -13    1    6    6    0    0  0.25944148362E+02 -0.19487457265E+02 -0.85460296327E+01  0.33554350648E+02  0.00000000000E+00 0.  1.
         14    1    6    6    0    0 -0.39673843382E+02 -0.57363878598E+02  0.47644968335E+02  0.84466984226E+02  0.00000000000E+00 0. -1.
         -5    1    3    3    0  503 -0.67652905706E+02  0.75305167340E+02 -0.95631788225E+02  0.13933884167E+03  0.47000000000E+01 0.  1.
         13    1    4    4    0    0  0.20345906595E+01  0.89692629489E+01 -0.65977241482E+02  0.66615190689E+02  0.00000000000E+00 0. -1.
        -14    1    4    4    0    0  0.15130918410E+02 -0.26383901989E+02  0.14614336848E+02  0.33743648552E+02  0.00000000000E+00 0.  1.
</event>
<event>
12    1  0.1039610E+000  0.1812273E+03  0.7818608E-02  0.1166730E+00
         21   -1    0    0  503  502  0.00000000000E+00  0.00000000000E+00  0.83661810595E+02  0.83661810595E+02  0.00000000000E+00 0. -1.
         21   -1    0    0  501  503 -0.00000000000E+00 -0.00000000000E+00 -0.40188070221E+03  0.40188070221E+03  0.00000000000E+00 0. -1.
          6    2    1    2  501    0  0.29108048286E+02 -0.47234757307E+02 -0.12006008989E+03  0.21700898529E+03  0.17204671964E+03 0.  0.
         24    2    3    3    0    0  0.25262309283E+01 -0.71679535949E+02 -0.19104743663E+02  0.10968605136E+03  0.80757048706E+02 0.  0.
         -6    2    1    2    0  502 -0.29108048286E+02  0.47234757307E+02 -0.19815880173E+03  0.26853352752E+03  0.17252519794E+03 0.  0.
        -24    2    5    5    0    0  0.40931510401E+02 -0.16419123529E+01 -0.54907988625E+02  0.10168822769E+03  0.75150010088E+02 0.  0.
          5    1    3    3  501    0  0.26581817358E+02  0.24444778642E+02 -0.10095534622E+03  0.10732293393E+03  0.47000000000E+01 0. -1.
        -13    1    4    4    0    0  0.80270644590E+01 -0.47781769597E+02 -0.50410152004E+02  0.69919344210E+02  0.00000000000E+00 0.  1.
         14    1    4    4    0    0 -0.55008335308E+01 -0.23897766351E+02  0.31305408340E+02  0.39766707149E+02  0.00000000000E+00 0. -1.
         -5    1    5    5    0  502 -0.70039558687E+02  0.48876669660E+02 -0.14325081311E+03  0.16684529983E+03  0.47000000000E+01 0.  1.
         13    1    6    6    0    0  0.28890718402E+02  0.26906661994E+02 -0.97841970369E+00  0.39491763376E+02  0.00000000000E+00 0. -1.
        -14    1    6    6    0    0  0.12040791999E+02 -0.28548574347E+02 -0.53929568921E+02  0.62196464314E+02  0.00000000000E+00 0.  1.
</event>
<event>
12    1  0.1039610E+000  0.1782180E+03  0.7818608E-02  0.1174305E+00
         21   -1    0    0  501  502  0.00000000000E+00  0.00000000000E+00  0.38770562037E+03  0.38770562037E+03  0.00000000000E+00 0.  1.
         21   -1    0    0  502  503 -0.00000000000E+00 -0.00000000000E+00 -0.15061797351E+03  0.15061797351E+03  0.00000000000E+00 0.  1.
         -6    2    1    2    0  503 -0.15694842777E+02  0.17735808604E+02  0.30759899793E+03  0.34666369434E+03  0.15810656675E+03 0.  0.
        -24    2    3    3    0    0 -0.16201915237E+02  0.44191653051E+02  0.10018948831E+03  0.13752029017E+03  0.81599585682E+02 0.  0.
          6    2    1    2  501    0  0.15694842777E+02 -0.17735808604E+02 -0.70511351072E+02  0.19165989955E+03  0.17663742375E+03 0.  0.
         24    2    5    5    0    0  0.56521787699E+02  0.30004146731E+02 -0.18986386573E+02  0.11027897590E+03  0.87783872917E+02 0.  0.
          5    1    5    5  501    0 -0.40826944923E+02 -0.47739955336E+02 -0.51524964499E+02  0.81380923648E+02  0.47000000000E+01 0. -1.
        -13    1    6    6    0    0 -0.71332747262E+00  0.22597788528E+02 -0.42357681568E+02  0.48013977863E+02  0.00000000000E+00 0.  1.
         14    1    6    6    0    0  0.57235115172E+02  0.74063582038E+01  0.23371294995E+02  0.62264998035E+02  0.00000000000E+00 0. -1.
         -5    1    3    3    0  503  0.50707245964E+00 -0.26455844446E+02  0.20740950962E+03  0.20914340417E+03  0.47000000000E+01 0.  1.
         11    1    4    4    0    0 -0.45776867586E+02  0.44154639681E+02  0.77424847124E+02  0.10019860659E+03  0.00000000000E+00 0. -1.
        -12    1    4    4    0    0  0.29574952349E+02  0.37013369710E-01  0.22764641184E+02  0.37321683572E+02  0.00000000000E+00 0.  1.
</event>
<event>
12    1  0.1039610E+000  0.2724071E+03  0.7818608E-02  0.1099947E+00
         21   -1    0    0  501  502  0.00000000000E+00  0.00000000000E+00  0.56964684046E+03  0.56964684046E+03  0.00000000000E+00 0. -1.
         21   -1    0    0  502  503 -0.00000000000E+00 -0.00000000000E+00 -0.13038215808E+03  0.13038215808E+03  0.00000000000E+00 0. -1.
         -6    2    1    2    0  503  0.37276941321E+01 -0.21129178323E+03  0.23459168337E+03  0.35929941466E+03  0.17147798140E+03 0.  0.
        -24    2    3    3    0    0  0.63316029232E+02 -0.16481685486E+03  0.14433719224E+03  0.24149172469E+03  0.79445030221E+02 0.  0.
          6    2    1    2  501    0 -0.37276941321E+01  0.21129178323E+03  0.20467299901E+03  0.34072958387E+03  0.17189386097E+03 0.  0.
         24    2    5    5    0    0  0.16199340488E+02  0.20984987772E+03  0.12258660595E+03  0.25611615867E+03  0.79174623221E+02 0.  0.
          5    1    5    5  501    0 -0.19927034621E+02  0.14419055126E+01  0.82086393055E+02  0.84613425206E+02  0.47000000000E+01 0. -1.
        -11    1    6    6    0    0  0.19805481363E+02  0.15259358484E+03  0.12565981818E+03  0.19866416167E+03  0.00000000000E+00 0.  1.
         12    1    6    6    0    0 -0.36061408740E+01  0.57256292877E+02 -0.30732122262E+01  0.57451997001E+02  0.00000000000E+00 0. -1.
         -5    1    3    3    0  503 -0.59588335100E+02 -0.46474928372E+02  0.90254491135E+02  0.11780768997E+03  0.47000000000E+01 0.  1.
         11    1    4    4    0    0  0.16353599210E+01 -0.22367541704E+02 -0.81807581288E+01  0.23872706749E+02  0.00000000000E+00 0. -1.
        -12    1    4    4    0    0  0.61680669311E+02 -0.14244931315E+03  0.15251795037E+03  0.21761901794E+03  0.00000000000E+00 0.  1.
</event>
<event>
12    1  0.1039610E+000  0.1831094E+03  0.7818608E-02  0.1165292E+00
         21   -1    0    0  501  502  0.00000000000E+00  0.00000000000E+00  0.86056851363E+03  0.86056851363E+03  0.00000000000E+00 0.  1.
         21   -1    0    0  502  503 -0.00000000000E+00 -0.00000000000E+00 -0.44267197376E+02  0.44267197376E+02  0.00000000000E+00 0.  1.
         -6    2    1    2    0  503 -0.48015693390E+02  0.29620330539E+02  0.24361391662E+03  0.30358707604E+03  0.17214674431E+03 0.  0.
        -24    2    3    3    0    0  0.20424475510E+02  0.61917290648E+02  0.16225667995E+03  0.19237448543E+03  0.80186048512E+02 0.  0.
          6    2    1    2  501    0  0.48015693390E+02 -0.29620330539E+02  0.57268739963E+03  0.60124863496E+03  0.17420158596E+03 0.  0.
         24    2    5    5    0    0 -0.18204886076E+02  0.16363246103E+02  0.15553869125E+03  0.17635477837E+03  0.79432673864E+02 0.  0.
          5    1    5    5  501    0  0.66220579467E+02 -0.45983576641E+02  0.41714870839E+03  0.42489385660E+03  0.47000000000E+01 0. -1.
        -13    1    6    6    0    0  0.18388008326E+01 -0.27651704052E+02  0.25678032126E+02  0.37780408406E+02  0.00000000000E+00 0.  1.
         14    1    6    6    0    0 -0.20043686909E+02  0.44014950154E+02  0.12986065912E+03  0.13857436996E+03  0.00000000000E+00 0. -1.
         -5    1    3    3    0  503 -0.68440168901E+02 -0.32296960110E+02  0.81357236664E+02  0.11121259061E+03  0.47000000000E+01 0.  1.
         13    1    4    4    0    0  0.71288563720E+01  0.78195142025E+02  0.14610572801E+03  0.16586797336E+03  0.00000000000E+00 0. -1.
        -14    1    4    4    0    0  0.13295619138E+02 -0.16277851376E+02  0.16150951944E+02  0.26506512075E+02  0.00000000000E+00 0.  1.
</event>
<event>
12    1  0.1039610E+000  0.1822597E+03  0.7818608E-02  0.1165654E+00
         21   -1    0    0  501  502  0.00000000000E+00  0.00000000000E+00  0.74835305936E+03  0.74835305936E+03  0.00000000000E+00 0. -1.
         21   -1    0    0  502  503 -0.00000000000E+00 -0.00000000000E+00 -0.44653622339E+02  0.44653622339E+02  0.00000000000E+00 0. -1.
         -6    2    1    2    0  503  0.41896016364E+02 -0.45539670739E+02  0.32004492760E+03  0.36826040856E+03  0.17134128233E+03 0.  0.
        -24    2    3    3    0    0  0.90099045926E+02 -0.42029076843E+02  0.17918852368E+03  0.21926888915E+03  0.78013058881E+02 0.  0.
          6    2    1    2  501    0 -0.41896016364E+02  0.45539670739E+02  0.38365450942E+03  0.42474627314E+03  0.17143359107E+03 0.  0.
         24    2    5    5    0    0  0.31689252134E+02  0.29010473426E+02  0.11885231629E+03  0.14937325778E+03  0.79628391807E+02 0.  0.
          5    1    5    5  501    0 -0.73585268498E+02  0.16529197312E+02  0.26480219313E+03  0.27537301536E+03  0.47000000000E+01 0. -1.
        -11    1    6    6    0    0  0.44531440726E+01  0.53089200900E+02  0.80468778642E+02  0.96506570141E+02  0.00000000000E+00 0.  1.
         12    1    6    6    0    0  0.27236108061E+02 -0.24078727473E+02  0.38383537649E+02  0.52866687635E+02  0.00000000000E+00 0. -1.
         -5    1    3    3    0  503 -0.48203029562E+02 -0.35105938953E+01  0.14085640392E+03  0.14899151940E+03  0.47000000000E+01 0.  1.
         13    1    4    4    0    0  0.62945291545E+02 -0.47781071876E+02  0.17389897491E+03  0.19101307294E+03  0.00000000000E+00 0. -1.
        -14    1    4    4    0    0  0.27153754381E+02  0.57519950331E+01  0.52895487631E+01  0.28255816215E+02  0.00000000000E+00 0.  1.
</event>
<event>
12    1  0.1039610E+000  0.1988637E+03  0.7818608E-02  0.1150986E+00
         21   -1    0    0  501  502  0.00000000000E+00  0.00000000000E+00  0.60284477554E+02  0.60284477554E+02  0.00000000000E+00 0. -1.
         21   -1    0    0  502  503 -0.00000000000E+00 -0.00000000000E+00 -0.71397034523E+03  0.71397034523E+03  0.00000000000E+00 0. -1.
         -6    2    1    2    0  503  0.96910720564E+02  0.82887426318E+01 -0.21343682923E+03  0.29172254140E+03  0.17345423050E+03 0.  0.
        -24    2    3    3    0    0  0.38429115668E+02  0.12255509247E+02 -0.22780057166E+02  0.92203299019E+02  0.79721533525E+02 0.  0.
          6    2    1    2  501    0 -0.96910720564E+02 -0.82887426318E+01 -0.44024903845E+03  0.48253228138E+03  0.17192380785E+03 0.  0.
         24    2    5    5    0    0 -0.85290248087E+02 -0.68329631494E+02 -0.32454498111E+03  0.35157632466E+03  0.79580791270E+02 0.  0.
          5    1    5    5  501    0 -0.11620472477E+02  0.60040888862E+02 -0.11570405734E+03  0.13095595672E+03  0.47000000000E+01 0. -1.
        -11    1    6    6    0    0 -0.73506834630E+02 -0.72255202334E+02 -0.32301590920E+03  0.33906245235E+03  0.00000000000E+00 0.  1.
         12    1    6    6    0    0 -0.11783413457E+02  0.39255708395E+01 -0.15290719091E+01  0.12513872303E+02  0.00000000000E+00 0. -1.
         -5    1    3    3    0  503  0.58481604896E+02 -0.39667666153E+01 -0.19065677206E+03  0.19951924239E+03  0.47000000000E+01 0.  1.
         13    1    4    4    0    0 -0.10781112657E+02 -0.24910278572E+02 -0.23742661286E+01  0.27246862357E+02  0.00000000000E+00 0. -1.
        -14    1    4    4    0    0  0.49210228325E+02  0.37165787819E+02 -0.20405791038E+02  0.64956436663E+02  0.00000000000E+00 0.  1.
</event>
<event>
12    1  0.1039610E+000  0.2199600E+03  0.7818608E-02  0.1134089E+00
         21   -1    0    0  503  502  0.00000000000E+00  0.00000000000E+00  0.86880214207E+03  0.86880214207E+03  0.00000000000E+00 0.  1.
         21   -1    0    0  501  503 -0.00000000000E+00 -0.00000000000E+00 -0.55451484282E+02  0.55451484282E+02  0.00000000000E+00 0.  1.
          6    2    1    2  501    0  0.71278215716E+02  0.11599763993E+03  0.40530092040E+03  0.46114121725E+03  0.17276096107E+03 0.  0.
         24    2    3    3    0    0  0.15385469303E+02  0.52313355059E+02  0.34154538716E+03  0.35499723363E+03  0.79977400628E+02 0.  0.
         -6    2    1    2    0  502 -0.71278215716E+02 -0.11599763993E+03  0.40804973739E+03  0.46311240909E+03  0.17155896587E+03 0.  0.
        -24    2    5    5    0    0  0.10578665464E+02 -0.10264623218E+03  0.29983656002E+03  0.32669030370E+03  0.78590296229E+02 0.  0.
          5    1    3    3  501    0  0.55892746413E+02  0.63684284871E+02  0.63755533239E+02  0.10614398362E+03  0.47000000000E+01 0. -1.
        -13    1    4    4    0    0  0.35155934392E+02  0.39510796057E+01  0.21809772188E+03  0.22094833569E+03  0.00000000000E+00 0.  1.
         14    1    4    4    0    0 -0.19770465089E+02  0.48362275453E+02  0.12344766528E+03  0.13404889794E+03  0.00000000000E+00 0. -1.
         -5    1    5    5    0  502 -0.81856881180E+02 -0.13351407752E+02  0.10821317737E+03  0.13642210540E+03  0.47000000000E+01 0.  1.
         11    1    6    6    0    0  0.14516063989E+02 -0.11515865668E+03  0.25952314403E+03  0.28429649068E+03  0.00000000000E+00 0. -1.
        -12    1    6    6    0    0 -0.39373985248E+01  0.12512424499E+02  0.40313415986E+02  0.42393813021E+02  0.00000000000E+00 0.  1.
</event>
<event>
12    1  0.1039610E+000  0.1784952E+03  0.7818608E-02  0.1169474E+00
         21   -1    0    0  503  502  0.00000000000E+00  0.00000000000E+00  0.14275618369E+03  0.14275618369E+03  0.00000000000E+00 0. -1.
         21   -1    0    0  501  503 -0.00000000000E+00 -0.00000000000E+00 -0.23926727663E+03  0.23926727663E+03  0.00000000000E+00 0. -1.
          6    2    1    2  501    0 -0.39200885064E+02  0.25437725301E+02  0.29703184402E+01  0.17767796921E+03  0.17139676395E+03 0.  0.
         24    2    3    3    0    0 -0.51247415610E+02 -0.18782724167E+02  0.53312545722E+02  0.10943577627E+03  0.78453000344E+02 0.  0.
         -6    2    1    2    0  502  0.39200885064E+02 -0.25437725301E+02 -0.99481411382E+02  0.20434549110E+03  0.17226938574E+03 0.  0.
        -24    2    5    5    0    0  0.56917344402E+02 -0.25859973161E+02  0.91692936666E+00  0.10228684105E+03  0.80953287687E+02 0.  0.
          5    1    3    3  501    0  0.12046530546E+02  0.44220449468E+02 -0.50342227282E+02  0.68242192939E+02  0.47000000000E+01 0. -1.
        -11    1    4    4    0    0 -0.15164516915E-01  0.20629211415E+02  0.37644144403E+02  0.42926055041E+02  0.00000000000E+00 0.  1.
         12    1    4    4    0    0 -0.51232251093E+02 -0.39411935581E+02  0.15668401319E+02  0.66509721231E+02  0.00000000000E+00 0. -1.
         -5    1    5    5    0  502 -0.17716459338E+02  0.42224785979E+00 -0.10039834075E+03  0.10205865005E+03  0.47000000000E+01 0.  1.
         13    1    6    6    0    0 -0.82640768155E+01  0.46035760485E+01 -0.24276589942E+02  0.26054571523E+02  0.00000000000E+00 0. -1.
        -14    1    6    6    0    0  0.65181421218E+02 -0.30463549210E+02  0.25193519309E+02  0.76232269529E+02  0.00000000000E+00 0.  1.
</event>
<event>
12    1  0.1039610E+000  0.1981616E+03  0.7818608E-02  0.1151400E+00
         21   -1    0    0  503  502  0.00000000000E+00  0.00000000000E+00  0.19514983535E+03  0.19514983535E+03  0.00000000000E+00 0.  1.
         21   -1    0    0  501  503 -0.00000000000E+00 -0.00000000000E+00 -0.20836786499E+03  0.20836786499E+03  0.00000000000E+00 0.  1.
          6    2    1    2  501    0  0.59823673867E+02 -0.77939020518E+02 -0.45210937755E+02  0.20325363720E+03  0.17208907364E+03 0.  0.
         24    2    3    3    0    0  0.42851907127E+02 -0.98893192100E+01  0.34412102520E+02  0.97042897359E+02  0.79366532928E+02 0.  0.
         -6    2    1    2    0  502 -0.59823673867E+02  0.77939020518E+02  0.31992908117E+02  0.20026406314E+03  0.17154820297E+03 0.  0.
        -24    2    5    5    0    0 -0.90468712010E+02  0.10229345924E+03  0.29198056513E+02  0.16073991553E+03  0.79600592238E+02 0.  0.
          5    1    3    3  501    0  0.16971766739E+02 -0.68049701308E+02 -0.79623040275E+02  0.10621073984E+03  0.47000000000E+01 0. -1.
        -11    1    4    4    0    0  0.23764051291E+02  0.69001299837E+01 -0.23294614311E+02  0.33985011158E+02  0.00000000000E+00 0.  1.
         12    1    4    4    0    0  0.19087855836E+02 -0.16789449194E+02  0.57706716831E+02  0.63057886200E+02  0.00000000000E+00 0. -1.
         -5    1    5    5    0  502  0.30645038144E+02 -0.24354438726E+02  0.27948516033E+01  0.39524147606E+02  0.47000000000E+01 0.  1.
         13    1    6    6    0    0 -0.24932675690E+02 -0.10941591396E+02  0.45286017425E+01  0.27601901621E+02  0.00000000000E+00 0. -1.
        -14    1    6    6    0    0 -0.65536036320E+02  0.11323505064E+03  0.24669454771E+02  0.13313801391E+03  0.00000000000E+00 0.  1.
</event>
<event>
12    1  0.1039610E+000  0.1921428E+03  0.7818608E-02  0.1156708E+00
         21   -1    0    0  503  502  0.00000000000E+00  0.00000000000E+00  0.80954574340E+03  0.80954574340E+03  0.00000000000E+00 0.  1.
         21   -1    0    0  501  503 -0.00000000000E+00 -0.00000000000E+00 -0.10528158419E+03  0.10528158419E+03  0.00000000000E+00 0.  1.
          6    2    1    2  501    0 -0.82514013763E+02  0.12465034047E+02  0.69493184853E+01  0.19152459269E+03  0.17224818442E+03 0.  0.
         24    2    3    3    0    0 -0.34150928976E+02 -0.24708530638E+02  0.61637511048E+02  0.10946516125E+03  0.80041497508E+02 0.  0.
         -6    2    1    2    0  502  0.82514013763E+02 -0.12465034047E+02  0.69731484072E+03  0.72330273490E+03  0.17307489615E+03 0.  0.
        -24    2    5    5    0    0  0.10502160597E+03 -0.38520161268E+02  0.66079757313E+03  0.67289378536E+03  0.60160395363E+02 0.  0.
          5    1    3    3  501    0 -0.48363084787E+02  0.37173564684E+02 -0.54688192563E+02  0.82059431434E+02  0.47000000000E+01 0. -1.
        -13    1    4    4    0    0  0.84639000542E+01 -0.10136727246E+02 -0.15364255111E+02  0.20259594727E+02  0.00000000000E+00 0.  1.
         14    1    4    4    0    0 -0.42614829030E+02 -0.14571803392E+02  0.77001766159E+02  0.89205566525E+02  0.00000000000E+00 0. -1.
         -5    1    5    5    0  502 -0.22507592210E+02  0.26055127221E+02  0.36517267592E+02  0.50408949542E+02  0.47000000000E+01 0.  1.
         13    1    6    6    0    0  0.52985340153E+02  0.59563408344E+01  0.38762474800E+03  0.39127467274E+03  0.00000000000E+00 0. -1.
        -14    1    6    6    0    0  0.52036265820E+02 -0.44476502102E+02  0.27317282513E+03  0.28161911262E+03  0.00000000000E+00 0.  1.
</event>
<event>
12    1  0.1039610E+000  0.2396437E+03  0.7818608E-02  0.1121681E+00
         21   -1    0    0  503  502  0.00000000000E+00  0.00000000000E+00  0.11405718839E+03  0.11405718839E+03  0.00000000000E+00 0. -1.
         21   -1    0    0  501  503 -0.00000000000E+00 -0.00000000000E+00 -0.60431624591E+03  0.60431624591E+03  0.00000000000E+00 0. -1.
          6    2    1    2  501    0  0.94730992106E+02 -0.12012302845E+03 -0.40981571144E+03  0.47473994815E+03  0.18446028894E+03 0.  0.
         24    2    3    3    0    0  0.10525828133E+03 -0.14328371436E+03 -0.40365249730E+03  0.44814452751E+03  0.79301011150E+02 0.  0.
         -6    2    1    2    0  502 -0.94730992106E+02  0.12012302845E+03 -0.80443346074E+02  0.24363348615E+03  0.17170509841E+03 0.  0.
        -24    2    5    5    0    0 -0.13138046440E+03  0.96918552243E+02 -0.44378348689E+02  0.18702601693E+03  0.79719890741E+02 0.  0.
          5    1    3    3  501    0 -0.10527289228E+02  0.23160685912E+02 -0.61632141416E+01  0.26595420639E+02  0.47000000000E+01 0. -1.
        -13    1    4    4    0    0 -0.10106541847E+02 -0.34005372654E+02 -0.83576637307E+02  0.90794062917E+02  0.00000000000E+00 0.  1.
         14    1    4    4    0    0  0.11536482318E+03 -0.10927834171E+03 -0.32007586000E+03  0.35735046460E+03  0.00000000000E+00 0. -1.
         -5    1    5    5    0  502  0.36649472298E+02  0.23204476208E+02 -0.36064997385E+02  0.56607469226E+02  0.47000000000E+01 0.  1.
         11    1    6    6    0    0 -0.20027715889E+02  0.21379704208E+02  0.22335493301E+02  0.36838504540E+02  0.00000000000E+00 0. -1.
        -12    1    6    6    0    0 -0.11135274851E+03  0.75538848035E+02 -0.66713841990E+02  0.15018751239E+03  0.00000000000E+00 0.  1.
</event>
<event>
12    1  0.1039610E+000  0.3932274E+03  0.7818608E-02  0.1046171E+00
         21   -1    0    0  503  502  0.00000000000E+00  0.00000000000E+00  0.20650883538E+03  0.20650883538E+03  0.00000000000E+00 0. -1.
         21   -1    0    0  501  503 -0.00000000000E+00 -0.00000000000E+00 -0.87836757311E+03  0.87836757311E+03  0.00000000000E+00 0.  1.
          6    2    1    2  501    0  0.23574698133E+03 -0.26373573744E+03 -0.54455404733E+03  0.67155540071E+03  0.17121438999E+03 0.  0.
         24    2    3    3    0    0  0.75044723725E+02 -0.11497872112E+03 -0.13818258602E+03  0.20991298490E+03  0.78212641435E+02 0.  0.
         -6    2    1    2    0  502 -0.23574698133E+03  0.26373573744E+03 -0.12730469039E+03  0.41332100778E+03  0.17173989888E+03 0.  0.
        -24    2    5    5    0    0 -0.10858614659E+03  0.13681917788E+03  0.13528710654E+01  0.19229488013E+03  0.80405547060E+02 0.  0.
          5    1    3    3  501    0  0.16070225761E+03 -0.14875701632E+03 -0.40637146131E+03  0.46164241581E+03  0.47000000000E+01 0. -1.
        -13    1    4    4    0    0  0.90326646754E+02 -0.10338796574E+03 -0.11049211737E+03  0.17622849535E+03  0.00000000000E+00 0.  1.
         14    1    4    4    0    0 -0.15281923029E+02 -0.11590755378E+02 -0.27690468653E+02  0.33684489545E+02  0.00000000000E+00 0. -1.
         -5    1    5    5    0  502 -0.12716083474E+03  0.12691655956E+03 -0.12865756146E+03  0.22102612765E+03  0.47000000000E+01 0.  1.
         11    1    6    6    0    0 -0.32823970705E+02 -0.15311259238E+01 -0.94431836250E+01  0.34189634634E+02  0.00000000000E+00 0. -1.
        -12    1    6    6    0    0 -0.75762175886E+02  0.13835030380E+03  0.10796054690E+02  0.15810524550E+03  0.00000000000E+00 0.  1.
</event>
<event>
12    1  0.1039610E+000  0.2203005E+03  0.7818608E-02  0.1133945E+00
         21   -1    0    0  503  502  0.00000000000E+00  0.00000000000E+00  0.14610615750E+03  0.14610615750E+03  0.00000000000E+00 0. -1.
         21   -1    0    0  501  503 -0.00000000000E+00 -0.00000000000E+00 -0.37471007078E+03  0.37471007078E+03  0.00000000000E+00 0. -1.
          6    2    1    2  501    0 -0.13530583277E+03  0.30115226189E+02 -0.24570399858E+02  0.22166648860E+03  0.17122421671E+03 0.  0.
         24    2    3    3    0    0 -0.59447654188E+01 -0.24672146661E+01  0.20796776045E+02  0.80683610741E+02  0.77691130538E+02 0.  0.
         -6    2    1    2    0  502  0.13530583277E+03 -0.30115226189E+02 -0.20403351341E+03  0.29914973968E+03  0.16925216963E+03 0.  0.
        -24    2    5    5    0    0  0.13412792861E+03 -0.28197467118E+02 -0.22620553054E+03  0.27637357667E+03  0.80174892865E+02 0.  0.
          5    1    3    3  501    0 -0.12936106735E+03  0.32582440855E+02 -0.45367175903E+02  0.14098287786E+03  0.47000000000E+01 0. -1.
        -13    1    4    4    0    0 -0.14708117951E+02 -0.20941666540E+02 -0.21681232730E+02  0.33540393316E+02  0.00000000000E+00 0.  1.
         14    1    4    4    0    0  0.87633525323E+01  0.18474451874E+02  0.42478008775E+02  0.47143217425E+02  0.00000000000E+00 0. -1.
         -5    1    5    5    0  502  0.11779041644E+01 -0.19177590711E+01  0.22172017131E+02  0.22776163016E+02  0.47000000000E+01 0.  1.
         13    1    6    6    0    0 -0.31710483309E+01  0.11633291338E+02 -0.39018570802E+02  0.40839170930E+02  0.00000000000E+00 0. -1.
        -14    1    6    6    0    0  0.13729897694E+03 -0.39830758456E+02 -0.18718695974E+03  0.23553440574E+03  0.00000000000E+00 0.  1.
</event>
<event>
12    1  0.1039610E+000  0.2557280E+03  0.7818608E-02  0.1110006E+00
         21   -1    0    0  503  502  0.00000000000E+00  0.00000000000E+00  0.50541265176E+03  0.50541265176E+03  0.00000000000E+00 0.  1.
         21   -1    0    0  501  503 -0.00000000000E+00 -0.00000000000E+00 -0.13037544630E+03  0.13037544630E+03  0.00000000000E+00 0.  1.
          6    2    1    2  501    0  0.15574955681E+03  0.10616172037E+03  0.15015385123E+03  0.29655184451E+03  0.17282529365E+03 0.  0.
         24    2    3    3    0    0  0.21644110049E+02  0.56126509489E+02  0.19027800946E+02  0.10237686095E+03  0.80624511664E+02 0.  0.
         -6    2    1    2    0  502 -0.15574955681E+03 -0.10616172037E+03  0.22488335423E+03  0.33923625355E+03  0.17023653367E+03 0.  0.
        -24    2    5    5    0    0 -0.31363739206E+02 -0.63518613799E+02  0.16186107118E+03  0.19334532059E+03  0.78518202952E+02 0.  0.
          5    1    3    3  501    0  0.13410544676E+03  0.50035210882E+02  0.13112605029E+03  0.19417498356E+03  0.47000000000E+01 0. -1.
        -13    1    4    4    0    0  0.23660080915E+02  0.39295416317E+01  0.39550104212E+02  0.46254204885E+02  0.00000000000E+00 0.  1.
         14    1    4    4    0    0 -0.20159708665E+01  0.52196967857E+02 -0.20522303266E+02  0.56122656061E+02  0.00000000000E+00 0. -1.
         -5    1    5    5    0  502 -0.12438581760E+03 -0.42643106571E+02  0.63022283045E+02  0.14589093295E+03  0.47000000000E+01 0.  1.
         11    1    6    6    0    0 -0.15702193484E+02 -0.55546965698E+02  0.40011298834E+02  0.70234808413E+02  0.00000000000E+00 0. -1.
        -12    1    6    6    0    0 -0.15661545722E+02 -0.79716481017E+01  0.12184977235E+03  0.12311051218E+03  0.00000000000E+00 0.  1.
</event>
<event>
12    1  0.1039610E+000  0.2228235E+03  0.7818608E-02  0.1132365E+00
         21   -1    0    0  501  502  0.00000000000E+00  0.00000000000E+00  0.12214893637E+03  0.12214893637E+03  0.00000000000E+00 0.  1.
         21   -1    0    0  502  503 -0.00000000000E+00 -0.00000000000E+00 -0.63191103737E+03  0.63191103737E+03  0.00000000000E+00 0.  1.
         -6    2    1    2    0  503 -0.79355818752E+02 -0.11048800129E+03 -0.25776029191E+02  0.22124401580E+03  0.17256757066E+03 0.  0.
        -24    2    3    3    0    0 -0.89843027966E+02 -0.10923645881E+03 -0.69580714713E+02  0.17593961878E+03  0.78159452325E+02 0.  0.
          6    2    1    2  501    0  0.79355818752E+02  0.11048800129E+03 -0.48398607181E+03  0.53281595795E+03  0.17648054551E+03 0.  0.
         24    2    5    5    0    0  0.74195616204E+02  0.23613526595E+02 -0.14728218265E+03  0.18501515142E+03  0.80473454190E+02 0.  0.
          5    1    5    5  501    0  0.51602025481E+01  0.86874474697E+02 -0.33670388916E+03  0.34780080653E+03  0.47000000000E+01 0. -1.
        -11    1    6    6    0    0 -0.18210625643E+01  0.34770050995E+02 -0.39542959145E+02  0.52686984474E+02  0.00000000000E+00 0.  1.
         12    1    6    6    0    0  0.76016678768E+02 -0.11156524400E+02 -0.10773922350E+03  0.13232816695E+03  0.00000000000E+00 0. -1.
         -5    1    3    3    0  503  0.10487209214E+02 -0.12515424841E+01  0.43804685522E+02  0.45304397020E+02  0.47000000000E+01 0.  1.
         13    1    4    4    0    0 -0.40579088731E+02 -0.99251180873E+02 -0.28306416948E+02  0.11089956081E+03  0.00000000000E+00 0. -1.
        -14    1    4    4    0    0 -0.49263939235E+02 -0.99852779346E+01 -0.41274297764E+02  0.65040057967E+02  0.00000000000E+00 0.  1.
</event>
<event>
12    1  0.1039610E+000  0.2090066E+03  0.7818608E-02  0.1142701E+00
         21   -1    0    0  501  502  0.00000000000E+00  0.00000000000E+00  0.30130956530E+02  0.30130956530E+02  0.00000000000E+00 0. -1.
         21   -1    0    0  502  503 -0.00000000000E+00 -0.00000000000E+00 -0.14398378509E+04  0.14398378509E+04  0.00000000000E+00 0. -1.
         -6    2    1    2    0  503  0.10359836532E+03 -0.53313787144E+02 -0.72941629334E+03  0.75829537149E+03  0.17143150304E+03 0.  0.
        -24    2    3    3    0    0  0.33073060624E+02 -0.75002885383E+02 -0.58711069784E+03  0.59792951448E+03  0.78111923609E+02 0.  0.
          6    2    1    2  501    0 -0.10359836532E+03  0.53313787144E+02 -0.68029060105E+03  0.71167343596E+03  0.17351886462E+03 0.  0.
         24    2    5    5    0    0 -0.65800695811E+02 -0.34352321988E+02 -0.30456345426E+03  0.32397898237E+03  0.81814850433E+02 0.  0.
          5    1    5    5  501    0 -0.37797669505E+02  0.87666109132E+02 -0.37572714679E+03  0.38769445359E+03  0.47000000000E+01 0. -1.
        -13    1    6    6    0    0 -0.76901295670E+02 -0.13156548200E+02 -0.27549838664E+03  0.28633243805E+03  0.00000000000E+00 0.  1.
         14    1    6    6    0    0  0.11100599859E+02 -0.21195773788E+02 -0.29065067614E+02  0.37646544318E+02  0.00000000000E+00 0. -1.
         -5    1    3    3    0  503  0.70525304691E+02  0.21689098239E+02 -0.14230559550E+03  0.16036585701E+03  0.47000000000E+01 0.  1.
         13    1    4    4    0    0 -0.14541394102E+02 -0.24190760773E+02 -0.34074010560E+03  0.34190709939E+03  0.00000000000E+00 0. -1.
        -14    1    4    4    0    0  0.47614454726E+02 -0.50812124610E+02 -0.24637059224E+03  0.25602241509E+03  0.00000000000E+00 0.  1.
</event>
<event>
12    1  0.1039610E+000  0.1758556E+03  0.7818608E-02  0.1172277E+00
         21   -1    0    0  503  502  0.00000000000E+00  0.00000000000E+00  0.10029486910E+03  0.10029486910E+03  0.00000000000E+00 0. -1.
         21   -1    0    0  501  503 -0.00000000000E+00 -0.00000000000E+00 -0.32719377711E+03  0.32719377711E+03  0.00000000000E+00 0.  1.
          6    2    1    2  501    0 -0.32171215145E+02  0.11282009873E+02 -0.16795288730E+03  0.24201670252E+03  0.17088487679E+03 0.  0.
         24    2    3    3    0    0  0.31848472412E+02  0.73835671491E+00 -0.15327003647E+03  0.17532813434E+03  0.78951758983E+02 0.  0.
         -6    2    1    2    0  502  0.32171215145E+02 -0.11282009873E+02 -0.58946020710E+02  0.18547194368E+03  0.17251938357E+03 0.  0.
        -24    2    5    5    0    0  0.77712543271E+02  0.18576766510E+02 -0.67336086773E+02  0.13017237494E+03  0.77629652714E+02 0.  0.
          5    1    3    3  501    0 -0.64019687558E+02  0.10543653158E+02 -0.14682850831E+02  0.66688568176E+02  0.47000000000E+01 0. -1.
        -13    1    4    4    0    0  0.36056367442E+02  0.32721987577E+02 -0.64056615401E+02  0.80461419828E+02  0.00000000000E+00 0.  1.
         14    1    4    4    0    0 -0.42078950296E+01 -0.31983630862E+02 -0.89213421070E+02  0.94866714514E+02  0.00000000000E+00 0. -1.
         -5    1    5    5    0  502 -0.45541328126E+02 -0.29858776383E+02  0.83900660637E+01  0.55299568743E+02  0.47000000000E+01 0.  1.
         13    1    6    6    0    0  0.35029509104E+01  0.34954326000E+02 -0.17069146097E+02  0.39056770471E+02  0.00000000000E+00 0. -1.
        -14    1    6    6    0    0  0.74209592361E+02 -0.16377559489E+02 -0.50266940676E+02  0.91115604471E+02  0.00000000000E+00 0.  1.
</event>
<event>
12    1  0.1039610E+000  0.5759635E+03  0.7818608E-02  0.9959582E-01
         21   -1    0    0  503  502  0.00000000000E+00  0.00000000000E+00  0.72054038254E+03  0.72054038254E+03  0.00000000000E+00 0. -1.
         21   -1    0    0  501  503 -0.00000000000E+00 -0.00000000000E+00 -0.54260529905E+03  0.54260529905E+03  0.00000000000E+00 0. -1.
          6    2    1    2  501    0  0.19866401500E+03  0.51272408385E+03  0.34090329754E+03  0.66457023148E+03  0.15193800473E+03 0.  0.
         24    2    3    3    0    0  0.12273435835E+03  0.43952148047E+03  0.29639790216E+03  0.54999818377E+03  0.80021442253E+02 0.  0.
         -6    2    1    2    0  502 -0.19866401500E+03 -0.51272408385E+03 -0.16296821405E+03  0.59857545010E+03  0.17140756593E+03 0.  0.
        -24    2    5    5    0    0 -0.15183795233E+03 -0.27827344626E+03 -0.14739142381E+03  0.35894133732E+03  0.81386590832E+02 0.  0.
          5    1    3    3  501    0  0.75929656651E+02  0.73202603379E+02  0.44505395373E+02  0.11457204772E+03  0.47000000000E+01 0. -1.
        -11    1    4    4    0    0  0.87314543226E+02  0.16875440400E+03  0.11329435810E+03  0.22121819524E+03  0.00000000000E+00 0.  1.
         12    1    4    4    0    0  0.35419815125E+02  0.27076707647E+03  0.18310354406E+03  0.32877998852E+03  0.00000000000E+00 0. -1.
         -5    1    5    5    0  502 -0.46826062669E+02 -0.23445063759E+03 -0.15576790247E+02  0.23963411278E+03  0.47000000000E+01 0.  1.
         13    1    6    6    0    0 -0.79060071120E+02 -0.70517388175E+02 -0.33629778409E+02  0.11114926395E+03  0.00000000000E+00 0. -1.
        -14    1    6    6    0    0 -0.72777881213E+02 -0.20775605808E+03 -0.11376164540E+03  0.24779207337E+03  0.00000000000E+00 0.  1.
</event>
<event>
12    1  0.1039610E+000  0.1997653E+03  0.7818608E-02  0.1150033E+00
         21   -1    0    0  503  502  0.00000000000E+00  0.00000000000E+00  0.15995501930E+02  0.15995501930E+02  0.00000000000E+00 0.  1.
         21   -1    0    0  501  503 -0.00000000000E+00 -0.00000000000E+00 -0.36852444050E+04  0.36852444050E+04  0.00000000000E+00 0.  1.
          6    2    1    2  501    0  0.96849866455E+02  0.31128801583E+02 -0.28903363188E+04  0.28972314731E+04  0.17192229088E+03 0.  0.
         24    2    3    3    0    0  0.12385547319E+03  0.52038299289E+02 -0.26366805052E+04  0.26412434428E+04  0.77683169436E+02 0.  0.
         -6    2    1    2    0  502 -0.96849866455E+02 -0.31128801583E+02 -0.77891258427E+03  0.80400843382E+03  0.17139384118E+03 0.  0.
        -24    2    5    5    0    0 -0.33541025656E+02 -0.62889638846E+02 -0.22939200067E+03  0.24992204894E+03  0.68994445413E+02 0.  0.
          5    1    3    3  501    0 -0.27005606730E+02 -0.20909497707E+02 -0.25365581361E+03  0.25598803032E+03  0.47000000000E+01 0. -1.
        -11    1    4    4    0    0  0.55080912753E+02 -0.39525961484E+01 -0.15373898959E+04  0.15383813643E+04  0.00000000000E+00 0.  1.
         12    1    4    4    0    0  0.68774560432E+02  0.55990895438E+02 -0.10992906092E+04  0.11028620784E+04  0.00000000000E+00 0. -1.
         -5    1    5    5    0  502 -0.63308840799E+02  0.31760837264E+02 -0.54952058360E+03  0.55408638488E+03  0.47000000000E+01 0.  1.
         13    1    6    6    0    0 -0.21248111713E+02  0.10564981397E+02 -0.71760026591E+02  0.75581760363E+02  0.00000000000E+00 0. -1.
        -14    1    6    6    0    0 -0.12292913943E+02 -0.73454620243E+02 -0.15763197408E+03  0.17434028857E+03  0.00000000000E+00 0.  1.
</event>
<event>
12    1  0.1471205E+000  0.2365335E+03  0.7818608E-02  0.1122251E+00
         21   -1    0    0  501  502  0.00000000000E+00  0.00000000000E+00  0.40495583162E+03  0.40495583162E+03  0.00000000000E+00 0.  1.
         21   -1    0    0  502  503 -0.00000000000E+00 -0.00000000000E+00 -0.34817134983E+03  0.34817134983E+03  0.00000000000E+00 0.  1.
         -6    2    1    2    0  503  0.15894762519E+03 -0.29549207482E+02  0.32117291574E+03  0.39887356846E+03  0.17265740238E+03 0.  0.
        -24    2    3    3    0    0  0.14700178649E+03 -0.56341423548E+02  0.32398395532E+03  0.36903202280E+03  0.80219382369E+02 0.  0.
          6    2    1    2  501    0 -0.15894762519E+03  0.29549207482E+02 -0.26438843395E+03  0.35425361299E+03  0.17163005301E+03 0.  0.
         24    2    5    5    0    0 -0.66987542238E+02 -0.45424065838E+02 -0.10873551843E+03  0.15847933307E+03  0.82107304607E+02 0.  0.
          5    1    5    5  501    0 -0.91960082953E+02  0.74973273320E+02 -0.15565291552E+03  0.19577427992E+03  0.47000000000E+01 0. -1.
        -11    1    6    6    0    0  0.12918899638E+02 -0.11486252385E+01  0.38164245941E+01  0.13519704304E+02  0.00000000000E+00 0.  1.
         12    1    6    6    0    0 -0.79906441876E+02 -0.44275440599E+02 -0.11255194302E+03  0.14495962876E+03  0.00000000000E+00 0. -1.
         -5    1    3    3    0  503  0.11945838701E+02  0.26792216066E+02 -0.28110395817E+01  0.29841545662E+02  0.47000000000E+01 0.  1.
         11    1    4    4    0    0  0.76461085877E+02  0.68124825991E+01  0.19044555811E+03  0.20533440573E+03  0.00000000000E+00 0. -1.
        -12    1    4    4    0    0  0.70540700613E+02 -0.63153906147E+02  0.13353839721E+03  0.16369761707E+03  0.00000000000E+00 0.  1.
</event>
<event>
12    1  0.1039610E+000  0.2117526E+03  0.7818608E-02  0.1140220E+00
         21   -1    0    0  503  502  0.00000000000E+00  0.00000000000E+00  0.10142121176E+03  0.10142121176E+03  0.00000000000E+00 0. -1.
         21   -1    0    0  501  503 -0.00000000000E+00 -0.00000000000E+00 -0.45428247261E+03  0.45428247261E+03  0.00000000000E+00 0. -1.
          6    2    1    2  501    0  0.36425392993E+02 -0.11808917609E+03 -0.13019033471E+03  0.24842287487E+03  0.17173391844E+03 0.  0.
         24    2    3    3    0    0  0.60571757155E+02 -0.12712566119E+02 -0.49108773808E+02  0.11320606250E+03  0.81076468958E+02 0.  0.
         -6    2    1    2    0  502 -0.36425392993E+02  0.11808917609E+03 -0.22267092614E+03  0.30728080950E+03  0.17195142271E+03 0.  0.
        -24    2    5    5    0    0  0.15046384828E+02  0.75055117564E+02 -0.21242698129E+03  0.23924918074E+03  0.79090351721E+02 0.  0.
          5    1    3    3  501    0 -0.24146364162E+02 -0.10537660997E+03 -0.81081560900E+02  0.13521681238E+03  0.47000000000E+01 0. -1.
        -11    1    4    4    0    0  0.69977782384E+02 -0.22946052920E+02 -0.60442246743E+02  0.95271593686E+02  0.00000000000E+00 0.  1.
         12    1    4    4    0    0 -0.94060252290E+01  0.10233486801E+02  0.11333472936E+02  0.17934468810E+02  0.00000000000E+00 0. -1.
         -5    1    5    5    0  502 -0.51471777822E+02  0.43034058525E+02 -0.10243944852E+02  0.68031628758E+02  0.47000000000E+01 0.  1.
         11    1    6    6    0    0  0.15334967915E+02  0.62803184878E+02 -0.66273634662E+02  0.92582913775E+02  0.00000000000E+00 0. -1.
        -12    1    6    6    0    0 -0.28858308641E+00  0.12251932687E+02 -0.14615334663E+03  0.14666626696E+03  0.00000000000E+00 0.  1.
</event>
<event>
12    1  0.1039610E+000  0.2268939E+03  0.7818608E-02  0.1128865E+00
         21   -1    0    0  503  502  0.00000000000E+00  0.00000000000E+00  0.18179513423E+03  0.18179513423E+03  0.00000000000E+00 0.  1.
         21   -1    0    0  501  503 -0.00000000000E+00 -0.00000000000E+00 -0.30740946248E+03  0.30740946248E+03  0.00000000000E+00 0.  1.
          6    2    1    2  501    0 -0.10754433586E+03 -0.10146851523E+03  0.60719023745E+01  0.22686492784E+03  0.17195692405E+03 0.  0.
         24    2    3    3    0    0 -0.34870428208E+02 -0.12044958944E+03 -0.15253330416E+02  0.14864323274E+03  0.78346003036E+02 0.  0.
         -6    2    1    2    0  502  0.10754433586E+03  0.10146851523E+03 -0.13168623062E+03  0.26233966887E+03  0.17210227996E+03 0.  0.
        -24    2    5    5    0    0  0.63269952706E+02  0.12905421997E+02 -0.11994253490E+02  0.10693084712E+03  0.84384282403E+02 0.  0.
          5    1    3    3  501    0 -0.72673907650E+02  0.18981074210E+02  0.21325232791E+02  0.78221695103E+02  0.47000000000E+01 0. -1.
        -13    1    4    4    0    0 -0.50807618211E+01 -0.66188328503E+02 -0.44766082176E+02  0.80066916289E+02  0.00000000000E+00 0.  1.
         14    1    4    4    0    0 -0.29789666387E+02 -0.54261260936E+02  0.29512751759E+02  0.68576316453E+02  0.00000000000E+00 0. -1.
         -5    1    5    5    0  502  0.44274383151E+02  0.88563093232E+02 -0.11969197713E+03  0.15540882175E+03  0.47000000000E+01 0.  1.
         13    1    6    6    0    0  0.34479523085E+02  0.41726457523E+02  0.17218776637E+02  0.56801593627E+02  0.00000000000E+00 0. -1.
        -14    1    6    6    0    0  0.28790429621E+02 -0.28821035527E+02 -0.29213030127E+02  0.50129253493E+02  0.00000000000E+00 0.  1.
</event>
<event>
12    1  0.1039610E+000  0.7231663E+03  0.7818608E-02  0.9678860E-01
         21   -1    0    0  501  502  0.00000000000E+00  0.00000000000E+00  0.11598435730E+04  0.11598435730E+04  0.00000000000E+00 0.  1.
         21   -1    0    0  502  503 -0.00000000000E+00 -0.00000000000E+00 -0.47641669310E+03  0.47641669310E+03  0.00000000000E+00 0. -1.
         -6    2    1    2    0  503 -0.62884231383E+03  0.31065183261E+03  0.15011475571E+03  0.73858240637E+03  0.17613152572E+03 0.  0.
        -24    2    3    3    0    0 -0.14690298420E+03  0.88996252168E+02  0.75050403208E+01  0.18925888174E+03  0.79131403513E+02 0.  0.
          6    2    1    2  501    0  0.62884231383E+03 -0.31065183261E+03  0.53331212424E+03  0.89767785977E+03  0.17162896403E+03 0.  0.
         24    2    5    5    0    0  0.19336708140E+03 -0.15177039328E+03  0.19799044964E+03  0.32553740038E+03  0.79682497755E+02 0.  0.
          5    1    5    5  501    0  0.43547523243E+03 -0.15888143933E+03  0.33532167460E+03  0.57214045940E+03  0.47000000000E+01 0. -1.
        -11    1    6    6    0    0  0.49846537877E+02 -0.68684128828E+02  0.31434185130E+02  0.90500247989E+02  0.00000000000E+00 0.  1.
         12    1    6    6    0    0  0.14352054353E+03 -0.83086264448E+02  0.16655626451E+03  0.23503715239E+03  0.00000000000E+00 0. -1.
         -5    1    3    3    0  503 -0.48193932964E+03  0.22165558044E+03  0.14260971539E+03  0.54932352463E+03  0.47000000000E+01 0.  1.
         13    1    4    4    0    0 -0.10637364722E+03  0.49126181243E+02 -0.30250041129E+02  0.12101156760E+03  0.00000000000E+00 0. -1.
        -14    1    4    4    0    0 -0.40529336978E+02  0.39870070925E+02  0.37755081450E+02  0.68247314136E+02  0.00000000000E+00 0.  1.
</event>
<event>
12    1  0.1039610E+000  0.1846270E+03  0.7818608E-02  0.1163526E+00
         21   -1    0    0  503  502  0.00000000000E+00  0.00000000000E+00  0.48935692202E+03  0.48935692202E+03  0.00000000000E+00 0.  1.
         21   -1    0    0  501  503 -0.00000000000E+00 -0.00000000000E+00 -0.13301506160E+03  0.13301506160E+03  0.00000000000E+00 0.  1.
          6    2    1    2  501    0 -0.26776936419E+02  0.58636142129E+02 -0.37082393256E+02  0.18778049497E+03  0.17242740186E+03 0.  0.
         24    2    3    3    0    0 -0.65671712359E+02 -0.10997616652E+02 -0.21737061696E+02  0.10642182513E+03  0.80121056137E+02 0.  0.
         -6    2    1    2    0  502  0.26776936419E+02 -0.58636142129E+02  0.39342425368E+03  0.43459148866E+03  0.17300843084E+03 0.  0.
        -24    2    5    5    0    0  0.22667235625E+02 -0.23291614438E+02  0.67627855958E+02  0.10682402834E+03  0.76036460033E+02 0.  0.
          5    1    3    3  501    0  0.38894775940E+02  0.69633758781E+02 -0.15345331559E+02  0.81358669839E+02  0.47000000000E+01 0. -1.
        -11    1    4    4    0    0 -0.23248339719E+02  0.74812635381E+01 -0.47535912499E+02  0.53442656941E+02  0.00000000000E+00 0.  1.
         12    1    4    4    0    0 -0.42423372640E+02 -0.18478880190E+02  0.25798850802E+02  0.52979168189E+02  0.00000000000E+00 0. -1.
         -5    1    5    5    0  502  0.41097007941E+01 -0.35344527691E+02  0.32579639772E+03  0.32776746032E+03  0.47000000000E+01 0.  1.
         13    1    6    6    0    0 -0.12373751914E+02 -0.30661381931E+02  0.33344643294E+01  0.33231742818E+02  0.00000000000E+00 0. -1.
        -14    1    6    6    0    0  0.35040987538E+02  0.73697674932E+01  0.64293391629E+02  0.73592285517E+02  0.00000000000E+00 0.  1.
</event>
<event>
12    1  0.1039610E+000  0.2153994E+03  0.7818608E-02  0.1137373E+00
         21   -1    0    0  501  502  0.00000000000E+00  0.00000000000E+00  0.75435533414E+03  0.75435533414E+03  0.00000000000E+00 0. -1.
         21   -1    0    0  502  503 -0.00000000000E+00 -0.00000000000E+00 -0.84812411860E+02  0.84812411860E+02  0.00000000000E+00 0. -1.
         -6    2    1    2    0  503  0.15050009764E+02 -0.12894685896E+03  0.55485281352E+03  0.59519621943E+03  0.17188106271E+03 0.  0.
        -24    2    3    3    0    0 -0.18160675381E+02 -0.22594144665E+02  0.36636064436E+03  0.37618654548E+03  0.80348551714E+02 0.  0.
          6    2    1    2  501    0 -0.15050009764E+02  0.12894685896E+03  0.11469010876E+03  0.24397152657E+03  0.17179781576E+03 0.  0.
         24    2    5    5    0    0 -0.55750081430E+02  0.12721775913E+03  0.44074654267E+02  0.16231298120E+03  0.71487753488E+02 0.  0.
          5    1    5    5  501    0  0.40700071666E+02  0.17290998305E+01  0.70615454490E+02  0.81658545374E+02  0.47000000000E+01 0. -1.
        -11    1    6    6    0    0  0.14721775847E+02  0.24058032902E+02  0.21245819047E+02  0.35311534350E+02  0.00000000000E+00 0.  1.
         12    1    6    6    0    0 -0.70471857277E+02  0.10315972623E+03  0.22828835221E+02  0.12700144685E+03  0.00000000000E+00 0. -1.
         -5    1    3    3    0  503  0.33210685145E+02 -0.10635271430E+03  0.18849216917E+03  0.21900967395E+03  0.47000000000E+01 0.  1.
         13    1    4    4    0    0  0.23276132183E+01 -0.40981015679E+02  0.31718327586E+03  0.31982822252E+03  0.00000000000E+00 0. -1.
        -14    1    4    4    0    0 -0.20488288599E+02  0.18386871015E+02  0.49177368493E+02  0.56358322964E+02  0.00000000000E+00 0.  1.
</event>
<event>
12    1  0.1039610E+000  0.2002255E+03  0.7818608E-02  0.1149658E+00
         21   -1    0    0  503  502  0.00000000000E+00  0.00000000000E+00  0.16607874313E+04  0.16607874313E+04  0.00000000000E+00 0. -1.
         21   -1    0    0  501  503 -0.00000000000E+00 -0.00000000000E+00 -0.31074162971E+02  0.31074162971E+02  0.00000000000E+00 0. -1.
          6    2    1    2  501    0  0.14596571261E+02  0.10086872546E+03  0.12170867136E+04  0.12334465241E+04  0.17234471127E+03 0.  0.
         24    2    3    3    0    0 -0.33013419859E+02  0.10763050077E+03  0.59462433922E+03  0.60911173371E+03  0.69027449348E+02 0.  0.
         -6    2    1    2    0  502 -0.14596571261E+02 -0.10086872546E+03  0.41262655464E+03  0.45841507017E+03  0.17174441272E+03 0.  0.
        -24    2    5    5    0    0 -0.74843436514E+02 -0.59505353407E+02  0.33035390880E+03  0.34827201967E+03  0.54929660061E+02 0.  0.
          5    1    3    3  501    0  0.47609991120E+02 -0.67617753157E+01  0.62246237443E+03  0.62433479035E+03  0.47000000000E+01 0. -1.
        -13    1    4    4    0    0 -0.21865473467E+02  0.10746315390E+02  0.24285645653E+03  0.24407548156E+03  0.00000000000E+00 0.  1.
         14    1    4    4    0    0 -0.11147946391E+02  0.96884185382E+02  0.35176788270E+03  0.36503625215E+03  0.00000000000E+00 0. -1.
         -5    1    5    5    0  502  0.60246865252E+02 -0.41363372049E+02  0.82272645844E+02  0.11014305050E+03  0.47000000000E+01 0.  1.
         11    1    6    6    0    0 -0.35944759196E+02  0.30639936071E+01  0.93231086039E+02  0.99967240507E+02  0.00000000000E+00 0. -1.
        -12    1    6    6    0    0 -0.38898677318E+02 -0.62569347014E+02  0.23712282276E+03  0.24830477916E+03  0.00000000000E+00 0.  1.
</event>
<event>
12    1  0.1039610E+000  0.2782660E+03  0.7818608E-02  0.1096657E+00
         21   -1    0    0  503  502  0.00000000000E+00  0.00000000000E+00  0.48843478627E+03  0.48843478627E+03  0.00000000000E+00 0. -1.
         21   -1    0    0  501  503 -0.00000000000E+00 -0.00000000000E+00 -0.16052242395E+03  0.16052242395E+03  0.00000000000E+00 0. -1.
          6    2    1    2  501    0  0.21864924252E+03  0.12448038020E+02  0.20076808803E+03  0.34313233938E+03  0.17166692241E+03 0.  0.
         24    2    3    3    0    0  0.85676292073E+02 -0.42163397325E+02  0.13771500946E+03  0.18609095904E+03  0.80908850624E+02 0.  0.
         -6    2    1    2    0  502 -0.21864924252E+03 -0.12448038020E+02  0.12714427428E+03  0.30582487084E+03  0.17146644056E+03 0.  0.
        -24    2    5    5    0    0 -0.26996998604E+02  0.11400203967E+02  0.37224556188E+02  0.92735765197E+02  0.79721088673E+02 0.  0.
          5    1    3    3  501    0  0.13297295044E+03  0.54611435345E+02  0.63053078578E+02  0.15704138034E+03  0.47000000000E+01 0. -1.
        -11    1    4    4    0    0  0.10662551275E+02 -0.34087952609E+02  0.89983887150E+02  0.96813110990E+02  0.00000000000E+00 0.  1.
         12    1    4    4    0    0  0.75013740798E+02 -0.80754447156E+01  0.47731122306E+02  0.89277848050E+02  0.00000000000E+00 0. -1.
         -5    1    5    5    0  502 -0.19165224391E+03 -0.23848241987E+02  0.89919718093E+02  0.21308910565E+03  0.47000000000E+01 0.  1.
         11    1    6    6    0    0  0.24725998712E+02 -0.12078061750E+02  0.17475292155E+02  0.32598165958E+02  0.00000000000E+00 0. -1.
        -12    1    6    6    0    0 -0.51722997316E+02  0.23478265717E+02  0.19749264032E+02  0.60137599239E+02  0.00000000000E+00 0.  1.
</event>
<event>
12    1  0.1039610E+000  0.2086186E+03  0.7818608E-02  0.1145402E+00
         21   -1    0    0  501  502  0.00000000000E+00  0.00000000000E+00  0.21531007241E+04  0.21531007241E+04  0.00000000000E+00 0. -1.
         21   -1    0    0  502  503 -0.00000000000E+00 -0.00000000000E+00 -0.20225219694E+02  0.20225219694E+02  0.00000000000E+00 0. -1.
         -6    2    1    2    0  503 -0.71482769714E+02  0.91848320337E+02  0.76108501872E+03  0.78576301748E+03  0.15693060124E+03 0.  0.
        -24    2    3    3    0    0 -0.14438329463E+02  0.11046507405E+03  0.53094139936E+03  0.54787895493E+03  0.76560967593E+02 0.  0.
          6    2    1    2  501    0  0.71482769714E+02 -0.91848320337E+02  0.13717904857E+04  0.13875629263E+04  0.17313531572E+03 0.  0.
         24    2    5    5    0    0  0.50135744880E+02 -0.13194683849E+03  0.10301654698E+04  0.10428988462E+04  0.80458356815E+02 0.  0.
          5    1    5    5  501    0  0.21347024833E+02  0.40098518149E+02  0.34162501588E+03  0.34466408009E+03  0.47000000000E+01 0. -1.
        -13    1    6    6    0    0  0.45134544148E+02 -0.89607099921E+02  0.90762249843E+03  0.91315122465E+03  0.00000000000E+00 0.  1.
         14    1    6    6    0    0  0.50012007325E+01 -0.42339738564E+02  0.12254297140E+03  0.12974762159E+03  0.00000000000E+00 0. -1.
         -5    1    3    3    0  503 -0.57044440251E+02 -0.18616753717E+02  0.23014361935E+03  0.23788406254E+03  0.47000000000E+01 0.  1.
         11    1    4    4    0    0 -0.14330871957E+02  0.18156933566E+02  0.27001392719E+02  0.35554512179E+02  0.00000000000E+00 0. -1.
        -12    1    4    4    0    0 -0.10745750560E+00  0.92308140488E+02  0.50394000664E+03  0.51232444275E+03  0.00000000000E+00 0.  1.
</event>
<event>
12    1  0.1039610E+000  0.2267692E+03  0.7818608E-02  0.1130027E+00
         21   -1    0    0  503  502  0.00000000000E+00  0.00000000000E+00  0.36627195541E+03  0.36627195541E+03  0.00000000000E+00 0.  1.
         21   -1    0    0  501  503 -0.00000000000E+00 -0.00000000000E+00 -0.17511228820E+03  0.17511228820E+03  0.00000000000E+00 0.  1.
          6    2    1    2  501    0 -0.12599320456E+03  0.54209287710E+02  0.22134237091E+03  0.31261517498E+03  0.17298227654E+03 0.  0.
         24    2    3    3    0    0 -0.27801751846E+02  0.87773960785E+01  0.24874613403E+02  0.88277732934E+02  0.79525037896E+02 0.  0.
         -6    2    1    2    0  502  0.12599320456E+03 -0.54209287710E+02 -0.30182703705E+02  0.22876906864E+03  0.18058614757E+03 0.  0.
        -24    2    5    5    0    0  0.13680203015E+03 -0.76386520530E+02 -0.63680725725E+02  0.18690180403E+03  0.79544663855E+02 0.  0.
          5    1    3    3  501    0 -0.98191452713E+02  0.45431891631E+02  0.19646775751E+03  0.22433744205E+03  0.47000000000E+01 0. -1.
        -13    1    4    4    0    0 -0.39885100157E+02 -0.11756079727E+02 -0.12970606289E+02  0.43557585477E+02  0.00000000000E+00 0.  1.
         14    1    4    4    0    0  0.12083348311E+02  0.20533475806E+02  0.37845219692E+02  0.44720147457E+02  0.00000000000E+00 0. -1.
         -5    1    5    5    0  502 -0.10808825595E+02  0.22177232821E+02  0.33498022020E+02  0.41867264606E+02  0.47000000000E+01 0.  1.
         11    1    6    6    0    0  0.96902614466E+02 -0.27647309140E+02 -0.71316815387E+02  0.12345273812E+03  0.00000000000E+00 0. -1.
        -12    1    6    6    0    0  0.39899415688E+02 -0.48739211390E+02  0.76360896619E+01  0.63449065907E+02  0.00000000000E+00 0.  1.
</event>
<event>
12    1  0.1039610E+000  0.3773861E+03  0.7818608E-02  0.1051960E+00
         21   -1    0    0  503  502  0.00000000000E+00  0.00000000000E+00  0.69620367423E+02  0.69620367423E+02  0.00000000000E+00 0.  1.
         21   -1    0    0  501  503 -0.00000000000E+00 -0.00000000000E+00 -0.25721588336E+04  0.25721588336E+04  0.00000000000E+00 0.  1.
          6    2    1    2  501    0 -0.67570693463E+02  0.32873844820E+03 -0.65260876759E+03  0.75386897789E+03  0.17258466427E+03 0.  0.
         24    2    3    3    0    0  0.26596862962E+02  0.18014238818E+03 -0.30455889617E+03  0.36385728481E+03  0.80481857192E+02 0.  0.
         -6    2    1    2    0  502  0.67570693463E+02 -0.32873844820E+03 -0.18499296986E+04  0.18879102231E+04  0.17126107255E+03 0.  0.
        -24    2    5    5    0    0  0.40891879523E+02 -0.33681794333E+03 -0.16894739317E+04  0.17249833056E+04  0.78273658987E+02 0.  0.
          5    1    3    3  501    0 -0.94167556425E+02  0.14859606002E+03 -0.34804987142E+03  0.39001169308E+03  0.47000000000E+01 0. -1.
        -11    1    4    4    0    0  0.20038837053E+02  0.55343322366E+02 -0.17147009079E+03  0.18129101013E+03  0.00000000000E+00 0.  1.
         12    1    4    4    0    0  0.65580259090E+01  0.12479906581E+03 -0.13308880538E+03  0.18256627468E+03  0.00000000000E+00 0. -1.
         -5    1    5    5    0  502  0.26678813940E+02  0.80794951304E+01 -0.16045576683E+03  0.16292691755E+03  0.47000000000E+01 0.  1.
         13    1    6    6    0    0  0.52366972878E+02 -0.15570119570E+03 -0.70124606428E+03  0.72022996665E+03  0.00000000000E+00 0. -1.
        -14    1    6    6    0    0 -0.11475093355E+02 -0.18111674763E+03 -0.98822786746E+03  0.10047533389E+04  0.00000000000E+00 0.  1.
</event>
<event>
12    1  0.1039610E+000  0.1875233E+03  0.7818608E-02  0.1162438E+00
         21   -1    0    0  501  502  0.00000000000E+00  0.00000000000E+00  0.78042135861E+02  0.78042135861E+02  0.00000000000E+00 0.  1.
         21   -1    0    0  502  503 -0.00000000000E+00 -0.00000000000E+00 -0.44678625068E+03  0.44678625068E+03  0.00000000000E+00 0.  1.
         -6    2    1    2    0  503  0.40059277593E+01  0.59922137636E+02 -0.14201081208E+03  0.23522769340E+03  0.17764652250E+03 0.  0.
        -24    2    3    3    0    0  0.17995376491E+02 -0.68306169123E+01 -0.14564475925E+03  0.16676653296E+03  0.78918880615E+02 0.  0.
          6    2    1    2  501    0 -0.40059277593E+01 -0.59922137636E+02 -0.22673330273E+03  0.28960069314E+03  0.16986424246E+03 0.  0.
         24    2    5    5    0    0  0.23823591860E+02  0.10874466092E+02 -0.18149698275E+03  0.20097193987E+03  0.82235930866E+02 0.  0.
          5    1    5    5  501    0 -0.27829519619E+02 -0.70796603729E+02 -0.45236319988E+02  0.88628753279E+02  0.47000000000E+01 0. -1.
        -11    1    6    6    0    0  0.46537057969E+02 -0.14407980562E+02 -0.13389533288E+03  0.14248244746E+03  0.00000000000E+00 0.  1.
         12    1    6    6    0    0 -0.22713466109E+02  0.25282446654E+02 -0.47601649869E+02  0.58489492405E+02  0.00000000000E+00 0. -1.
         -5    1    3    3    0  503 -0.13989448731E+02  0.66752754548E+02  0.36339471653E+01  0.68461160431E+02  0.47000000000E+01 0.  1.
         11    1    4    4    0    0 -0.24844166861E+02  0.15171473735E+02 -0.81586680616E+02  0.86624434753E+02  0.00000000000E+00 0. -1.
        -12    1    4    4    0    0  0.42839543352E+02 -0.22002090648E+02 -0.64058078634E+02  0.80142098211E+02  0.00000000000E+00 0.  1.
</event>
<event>
12    1  0.1039610E+000  0.2053880E+03  0.7818608E-02  0.1145557E+00
         21   -1    0    0  503  502  0.00000000000E+00  0.00000000000E+00  0.69367063391E+03  0.69367063391E+03  0.00000000000E+00 0. -1.
         21   -1    0    0  501  503 -0.00000000000E+00 -0.00000000000E+00 -0.60445895834E+02  0.60445895834E+02  0.00000000000E+00 0. -1.
          6    2    1    2  501    0 -0.81598970569E+02 -0.69961668139E+02  0.30730502977E+03  0.36962228341E+03  0.17501778213E+03 0.  0.
         24    2    3    3    0    0 -0.87469196531E+02 -0.52531736929E+02  0.32088025543E+03  0.34628478555E+03  0.80861428699E+02 0.  0.
         -6    2    1    2    0  502  0.81598970569E+02  0.69961668139E+02  0.32591970830E+03  0.38449424633E+03  0.17337572551E+03 0.  0.
        -24    2    5    5    0    0  0.89004706805E+02  0.44985653429E+02  0.33289182834E+03  0.35712004867E+03  0.82293456207E+02 0.  0.
          5    1    3    3  501    0  0.58702259624E+01 -0.17429931210E+02 -0.13575225657E+02  0.23337497862E+02  0.47000000000E+01 0. -1.
        -13    1    4    4    0    0  0.49945331280E+01 -0.15892167599E+02  0.90093752114E+01  0.18938722076E+02  0.00000000000E+00 0.  1.
         14    1    4    4    0    0 -0.92463729659E+02 -0.36639569330E+02  0.31187088022E+03  0.32734606347E+03  0.00000000000E+00 0. -1.
         -5    1    5    5    0  502 -0.74057362358E+01  0.24976014709E+02 -0.69721200412E+01  0.27374197665E+02  0.47000000000E+01 0.  1.
         11    1    6    6    0    0  0.20295846754E+01 -0.53994749823E+01  0.13537863194E+03  0.13550146689E+03  0.00000000000E+00 0. -1.
        -12    1    6    6    0    0  0.86975122129E+02  0.50385128412E+02  0.19751319640E+03  0.22161858178E+03  0.00000000000E+00 0.  1.
</event>
<event>
12    1  0.1039610E+000  0.2194961E+03  0.7818608E-02  0.1134726E+00
         21   -1    0    0  503  502  0.00000000000E+00  0.00000000000E+00  0.19088412750E+03  0.19088412750E+03  0.00000000000E+00 0.  1.
         21   -1    0    0  501  503 -0.00000000000E+00 -0.00000000000E+00 -0.26958057839E+03  0.26958057839E+03  0.00000000000E+00 0. -1.
          6    2    1    2  501    0 -0.76521047877E+02  0.10836675171E+03 -0.10189356298E+03  0.23974625309E+03  0.17174732618E+03 0.  0.
         24    2    3    3    0    0 -0.91845504082E+02  0.10582679270E+03 -0.26337694306E+02  0.16246708617E+03  0.77890777844E+02 0.  0.
         -6    2    1    2    0  502  0.76521047877E+02 -0.10836675171E+03  0.23197112085E+02  0.22071845279E+03  0.17487053997E+03 0.  0.
        -24    2    5    5    0    0  0.28075500754E+02  0.13515602783E+02 -0.69829710239E+01  0.86051430880E+02  0.79907331397E+02 0.  0.
          5    1    3    3  501    0  0.15324456205E+02  0.25399590104E+01 -0.75555868670E+02  0.77279166922E+02  0.47000000000E+01 0. -1.
        -11    1    4    4    0    0 -0.95687981610E+01  0.12241391058E+02  0.23573124046E+02  0.28233060949E+02  0.00000000000E+00 0.  1.
         12    1    4    4    0    0 -0.82276705921E+02  0.93585401646E+02 -0.49910818351E+02  0.13423402522E+03  0.00000000000E+00 0. -1.
         -5    1    5    5    0  502  0.48445547123E+02 -0.12188235450E+03  0.30180083109E+02  0.13466702191E+03  0.47000000000E+01 0.  1.
         13    1    6    6    0    0  0.26633868619E+02 -0.30789400422E+02 -0.89368465303E+01  0.41679939562E+02  0.00000000000E+00 0. -1.
        -14    1    6    6    0    0  0.14416321350E+01  0.44305003206E+02  0.19538755065E+01  0.44371491318E+02  0.00000000000E+00 0.  1.
</event>
<event>
12    1  0.1039610E+000  0.2446317E+03  0.7818608E-02  0.1117014E+00
         21   -1    0    0  503  502  0.00000000000E+00  0.00000000000E+00  0.15310390426E+03  0.15310390426E+03  0.00000000000E+00 0. -1.
         21   -1    0    0  501  503 -0.00000000000E+00 -0.00000000000E+00 -0.43917698079E+03  0.43917698079E+03  0.00000000000E+00 0. -1.
          6    2    1    2  501    0  0.10010961011E+03  0.14469369463E+03 -0.41763135249E+02  0.24654682512E+03  0.16757976669E+03 0.  0.
         24    2    3    3    0    0  0.87080575888E+02  0.15731921756E+03  0.42648509497E+01  0.19684949042E+03  0.79994812439E+02 0.  0.
         -6    2    1    2    0  502 -0.10010961011E+03 -0.14469369463E+03 -0.24430994128E+03  0.34573405993E+03  0.16996027031E+03 0.  0.
        -24    2    5    5    0    0 -0.18096232872E+02 -0.11661182145E+03 -0.11569605885E+03  0.19056187685E+03  0.94881295993E+02 0.  0.
          5    1    3    3  501    0  0.13029034226E+02 -0.12625522924E+02 -0.46027986198E+02  0.49697334692E+02  0.47000000000E+01 0. -1.
        -11    1    4    4    0    0  0.55573900720E+02  0.27837563468E+02 -0.95107192785E+01  0.62879584622E+02  0.00000000000E+00 0.  1.
         12    1    4    4    0    0  0.31506675168E+02  0.12948165409E+03  0.13775570228E+02  0.13396990580E+03  0.00000000000E+00 0. -1.
         -5    1    5    5    0  502 -0.82013377242E+02 -0.28081873179E+02 -0.12861388243E+03  0.15517218308E+03  0.47000000000E+01 0.  1.
         13    1    6    6    0    0 -0.46336232434E+02 -0.30946411696E+02 -0.20374576377E+02  0.59328325407E+02  0.00000000000E+00 0. -1.
        -14    1    6    6    0    0  0.28239999562E+02 -0.85665409756E+02 -0.95321482471E+02  0.13123355144E+03  0.00000000000E+00 0.  1.
</event>
<event>
12    1  0.1039610E+000  0.6789315E+03  0.7818608E-02  0.9754054E-01
         21   -1    0    0  501  502  0.00000000000E+00  0.00000000000E+00  0.10209217239E+04  0.10209217239E+04  0.00000000000E+00 0.  1.
         21   -1    0    0  502  503 -0.00000000000E+00 -0.00000000000E+00 -0.45186388856E+03  0.45186388856E+03  0.00000000000E+00 0.  1.
         -6    2    1    2    0  503  0.15323350973E+03 -0.63823494840E+03  0.25979267318E+03  0.72673407838E+03  0.17270156274E+03 0.  0.
        -24    2    3    3    0    0  0.13203488634E+03 -0.37052388587E+03  0.21214083412E+03  0.45394958028E+03  0.79657559132E+02 0.  0.
          6    2    1    2  501    0 -0.15323350973E+03  0.63823494840E+03  0.30926516221E+03  0.74605153412E+03  0.17356149670E+03 0.  0.
         24    2    5    5    0    0 -0.11454189576E+02  0.26361332792E+03  0.95401248330E+02  0.29195617209E+03  0.80708259314E+02 0.  0.
          5    1    5    5  501    0 -0.14177932015E+03  0.37462162048E+03  0.21386391388E+03  0.45409536203E+03  0.47000000000E+01 0. -1.
        -11    1    6    6    0    0  0.21741762554E+02  0.13760780971E+03  0.80245193118E+02  0.16077283523E+03  0.00000000000E+00 0.  1.
         12    1    6    6    0    0 -0.33195952130E+02  0.12600551822E+03  0.15156055212E+02  0.13118333686E+03  0.00000000000E+00 0. -1.
         -5    1    3    3    0  503  0.21198623390E+02 -0.26771106254E+03  0.47651839060E+02  0.27278449810E+03  0.47000000000E+01 0.  1.
         11    1    4    4    0    0  0.88633921651E+02 -0.28752347384E+03  0.12429577212E+03  0.32553826049E+03  0.00000000000E+00 0. -1.
        -12    1    4    4    0    0  0.43400964689E+02 -0.83000412029E+02  0.87845061999E+02  0.12841131979E+03  0.00000000000E+00 0.  1.
</event>
<event>
12    1  0.1039610E+000  0.2527134E+03  0.7818608E-02  0.1111635E+00
         21   -1    0    0  503  502  0.00000000000E+00  0.00000000000E+00  0.48012097011E+03  0.48012097011E+03  0.00000000000E+00 0. -1.
         21   -1    0    0  501  503 -0.00000000000E+00 -0.00000000000E+00 -0.15945877355E+03  0.15945877355E+03  0.00000000000E+00 0. -1.
          6    2    1    2  501    0 -0.84455084233E+02  0.16462699395E+03  0.29088774454E+03  0.38533071552E+03  0.17213184485E+03 0.  0.
         24    2    3    3    0    0 -0.89051127273E+02  0.32832822147E+02  0.14296195034E+03  0.18710115687E+03  0.74569606273E+02 0.  0.
         -6    2    1    2    0  502  0.84455084233E+02 -0.16462699395E+03  0.29774452021E+02  0.25424902814E+03  0.17181775789E+03 0.  0.
        -24    2    5    5    0    0  0.12131467399E+02 -0.16106608384E+02  0.35192560118E+02  0.88899530480E+02  0.79107615923E+02 0.  0.
          5    1    3    3  501    0  0.45960430397E+01  0.13179417180E+03  0.14792579421E+03  0.19822955865E+03  0.47000000000E+01 0. -1.
        -11    1    4    4    0    0 -0.23719085572E+00  0.58266002258E+01  0.66724176349E+02  0.66978513265E+02  0.00000000000E+00 0.  1.
         12    1    4    4    0    0 -0.88813936417E+02  0.27006221921E+02  0.76237773988E+02  0.12012264361E+03  0.00000000000E+00 0. -1.
         -5    1    5    5    0  502  0.72323616834E+02 -0.14852038556E+03 -0.54181080969E+01  0.16534949765E+03  0.47000000000E+01 0.  1.
         13    1    6    6    0    0 -0.27503535901E+02 -0.28955442692E+02  0.15909592114E+02  0.42988106143E+02  0.00000000000E+00 0. -1.
        -14    1    6    6    0    0  0.39635003300E+02  0.12848834307E+02  0.19282968003E+02  0.45911424337E+02  0.00000000000E+00 0.  1.
</event>
<event>
12    1  0.1039610E+000  0.1926842E+03  0.7818608E-02  0.1157277E+00
         21   -1    0    0  503  502  0.00000000000E+00  0.00000000000E+00  0.73600779326E+02  0.73600779326E+02  0.00000000000E+00 0. -1.
         21   -1    0    0  501  503 -0.00000000000E+00 -0.00000000000E+00 -0.92421056481E+03  0.92421056481E+03  0.00000000000E+00 0. -1.
          6    2    1    2  501    0 -0.13950175333E+02 -0.72447082728E+02 -0.86720685034E+02  0.21129994306E+03  0.17800000432E+03 0.  0.
         24    2    3    3    0    0  0.17498106228E+02 -0.36210948201E+02 -0.12255745895E+03  0.15122984881E+03  0.78947577138E+02 0.  0.
         -6    2    1    2    0  502  0.13950175333E+02  0.72447082728E+02 -0.76388910045E+03  0.78651140108E+03  0.17213494430E+03 0.  0.
        -24    2    5    5    0    0  0.68748015682E+01 -0.21516757080E+02 -0.49125210663E+03  0.49801134127E+03  0.78590266832E+02 0.  0.
          5    1    3    3  501    0 -0.31448281560E+02 -0.36236134527E+02  0.35836773914E+02  0.60070094249E+02  0.47000000000E+01 0. -1.
        -11    1    4    4    0    0  0.45761481024E+02 -0.25764256964E+02 -0.49354625782E+02  0.72067948274E+02  0.00000000000E+00 0.  1.
         12    1    4    4    0    0 -0.28263374797E+02 -0.10446691237E+02 -0.73202833167E+02  0.79161900535E+02  0.00000000000E+00 0. -1.
         -5    1    5    5    0  502  0.70753737643E+01  0.93963839808E+02 -0.27263699382E+03  0.28850005980E+03  0.47000000000E+01 0.  1.
         11    1    6    6    0    0  0.42512537681E+02 -0.17093982575E+02 -0.28314325021E+03  0.28682681228E+03  0.00000000000E+00 0. -1.
        -12    1    6    6    0    0 -0.35637736113E+02 -0.44227745057E+01 -0.20810885641E+03  0.21118452900E+03  0.00000000000E+00 0.  1.
</event>
<event>
12    1  0.1039610E+000  0.1951478E+03  0.7818608E-02  0.1155038E+00
         21   -1    0    0  503  502  0.00000000000E+00  0.00000000000E+00  0.29414173331E+02  0.29414173331E+02  0.00000000000E+00 0. -1.
         21   -1    0    0  501  503 -0.00000000000E+00 -0.00000000000E+00 -0.16735911394E+04  0.16735911394E+04  0.00000000000E+00 0. -1.
          6    2    1    2  501    0 -0.44855985848E+02  0.78030979173E+02 -0.39090022825E+03  0.43462632781E+03  0.16732054028E+03 0.  0.
         24    2    3    3    0    0  0.25111335133E+02  0.24315585304E+02 -0.11417840307E+03  0.14414770884E+03  0.80746686593E+02 0.  0.
         -6    2    1    2    0  502  0.44855985848E+02 -0.78030979173E+02 -0.12532767379E+04  0.12683789850E+04  0.17315246075E+03 0.  0.
        -24    2    5    5    0    0 -0.41129899792E+02 -0.46379208933E+02 -0.58271475181E+03  0.59156965123E+03  0.80965860758E+02 0.  0.
          5    1    3    3  501    0 -0.69967320981E+02  0.53715393869E+02 -0.27672182518E+03  0.29047861897E+03  0.47000000000E+01 0. -1.
        -13    1    4    4    0    0 -0.26559363345E+02 -0.44689701243E+01 -0.50531029364E+02  0.57260426159E+02  0.00000000000E+00 0.  1.
         14    1    4    4    0    0  0.51670698478E+02  0.28784555428E+02 -0.63647373703E+02  0.86887282681E+02  0.00000000000E+00 0. -1.
         -5    1    5    5    0  502  0.85985885640E+02 -0.31651770240E+02 -0.67056198605E+03  0.67680933373E+03  0.47000000000E+01 0.  1.
         11    1    6    6    0    0 -0.58427553725E+02 -0.29835565017E+02 -0.26672409380E+03  0.27467377412E+03  0.00000000000E+00 0. -1.
        -12    1    6    6    0    0  0.17297653932E+02 -0.16543643916E+02 -0.31599065801E+03  0.31689587712E+03  0.00000000000E+00 0.  1.
</event>
<event>
12    1  0.1039610E+000  0.1859677E+03  0.7818608E-02  0.1163477E+00
         21   -1    0    0  503  502  0.00000000000E+00  0.00000000000E+00  0.10953870656E+03  0.10953870656E+03  0.00000000000E+00 0.  1.
         21   -1    0    0  501  503 -0.00000000000E+00 -0.00000000000E+00 -0.36371756354E+03  0.36371756354E+03  0.00000000000E+00 0.  1.
          6    2    1    2  501    0 -0.11337818108E+02  0.57476498710E+02 -0.31380076013E+02  0.18304379166E+03  0.17055270878E+03 0.  0.
         24    2    3    3    0    0 -0.33663803492E+02 -0.26914909588E+02 -0.22541343125E+02  0.95177002618E+02  0.81810058390E+02 0.  0.
         -6    2    1    2    0  502  0.11337818108E+02 -0.57476498710E+02 -0.22279878096E+03  0.29021247844E+03  0.17649898532E+03 0.  0.
        -24    2    5    5    0    0  0.12131848258E+02  0.22513766121E+02 -0.41633379686E+02  0.92116376580E+02  0.78089929716E+02 0.  0.
          5    1    3    3  501    0  0.22325985384E+02  0.84391408298E+02 -0.88387328885E+01  0.87866789044E+02  0.47000000000E+01 0. -1.
        -13    1    4    4    0    0 -0.23778576195E+02  0.15599005170E+02 -0.39224707144E+02  0.48449223923E+02  0.00000000000E+00 0.  1.
         14    1    4    4    0    0 -0.98852272969E+01 -0.42513914758E+02  0.16683364020E+02  0.46727778695E+02  0.00000000000E+00 0. -1.
         -5    1    5    5    0  502 -0.79403015014E+00 -0.79990264831E+02 -0.18116540128E+03  0.19809610186E+03  0.47000000000E+01 0.  1.
         11    1    6    6    0    0  0.40248660322E+02  0.20414485616E+02 -0.44987271304E+02  0.63722527100E+02  0.00000000000E+00 0. -1.
        -12    1    6    6    0    0 -0.28116812064E+02  0.20992805049E+01  0.33538916183E+01  0.28393849479E+02  0.00000000000E+00 0.  1.
</event>
<event>
12    1  0.1039610E+000  0.3020529E+03  0.7818608E-02  0.1084238E+00
         21   -1    0    0  503  502  0.00000000000E+00  0.00000000000E+00  0.81112039054E+02  0.81112039054E+02  0.00000000000E+00 0. -1.
         21   -1    0    0  501  503 -0.00000000000E+00 -0.00000000000E+00 -0.11875097010E+04  0.11875097010E+04  0.00000000000E+00 0. -1.
          6    2    1    2  501    0 -0.21594594460E+03 -0.12275588967E+03 -0.40666605103E+03  0.50647982687E+03  0.17158927277E+03 0.  0.
         24    2    3    3    0    0 -0.49338793661E+02 -0.40161907897E+02 -0.22774503109E+03  0.24838191920E+03  0.76016335039E+02 0.  0.
         -6    2    1    2    0  502  0.21594594460E+03  0.12275588967E+03 -0.69973161095E+03  0.76214191321E+03  0.17185548896E+03 0.  0.
        -24    2    5    5    0    0  0.62106367267E+02  0.10760949299E+03 -0.39114210250E+03  0.41696716963E+03  0.73705307570E+02 0.  0.
          5    1    3    3  501    0 -0.16660715094E+03 -0.82593981774E+02 -0.17892101995E+03  0.25809790768E+03  0.47000000000E+01 0. -1.
        -13    1    4    4    0    0 -0.49150388478E+02 -0.59464686782E+02 -0.15526594158E+03  0.17337624485E+03  0.00000000000E+00 0.  1.
         14    1    4    4    0    0 -0.18840518326E+00  0.19302778885E+02 -0.72479089503E+02  0.75005674348E+02  0.00000000000E+00 0. -1.
         -5    1    5    5    0  502  0.15383957733E+03  0.15146396677E+02 -0.30858950845E+03  0.34517474359E+03  0.47000000000E+01 0.  1.
         13    1    6    6    0    0  0.26314745809E+02  0.80195438403E+02 -0.15433275456E+03  0.17590444372E+03  0.00000000000E+00 0. -1.
        -14    1    6    6    0    0  0.35791621458E+02  0.27414054592E+02 -0.23680934793E+03  0.24106272591E+03  0.00000000000E+00 0.  1.
</event>
<event>
12    1  0.1039610E+000  0.1864048E+03  0.7818608E-02  0.1161946E+00
         21   -1    0    0  501  502  0.00000000000E+00  0.00000000000E+00  0.22242259507E+02  0.22242259507E+02  0.00000000000E+00 0. -1.
         21   -1    0    0  502  503 -0.00000000000E+00 -0.00000000000E+00 -0.15961495914E+04  0.15961495914E+04  0.00000000000E+00 0. -1.
         -6    2    1    2    0  503 -0.58843196466E+02 -0.41930984722E+02 -0.65509773108E+03  0.68086434379E+03  0.17088735508E+03 0.  0.
        -24    2    3    3    0    0 -0.63339652482E+02 -0.63506789274E+02 -0.28263444641E+03  0.30771997241E+03  0.82245530370E+02 0.  0.
          6    2    1    2  501    0  0.58843196466E+02  0.41930984722E+02 -0.91880960079E+03  0.93752750709E+03  0.17183135572E+03 0.  0.
         24    2    5    5    0    0  0.95869641911E+02  0.44521214464E+02 -0.58603298238E+03  0.60265434497E+03  0.92652448945E+02 0.  0.
          5    1    5    5  501    0 -0.37026445446E+02 -0.25902297413E+01 -0.33277661840E+03  0.33487316212E+03  0.47000000000E+01 0. -1.
        -13    1    6    6    0    0  0.74629603822E+02 -0.14687873925E+02 -0.36522760429E+03  0.37306368671E+03  0.00000000000E+00 0.  1.
         14    1    6    6    0    0  0.21240038089E+02  0.59209088389E+02 -0.22080537809E+03  0.22959065826E+03  0.00000000000E+00 0. -1.
         -5    1    3    3    0  503  0.44964560160E+01  0.21575804552E+02 -0.37246328467E+03  0.37314437137E+03  0.47000000000E+01 0.  1.
         13    1    4    4    0    0 -0.10654400178E+01  0.11195279667E+02 -0.29755369761E+01  0.11632853028E+02  0.00000000000E+00 0. -1.
        -14    1    4    4    0    0 -0.62274212464E+02 -0.74702068942E+02 -0.27965890943E+03  0.29608711939E+03  0.00000000000E+00 0.  1.
</event>
<event>
12    1  0.1039610E+000  0.5844803E+03  0.7818608E-02  0.9938835E-01
         21   -1    0    0  501  502  0.00000000000E+00  0.00000000000E+00  0.13087222146E+04  0.13087222146E+04  0.00000000000E+00 0.  1.
         21   -1    0    0  502  503 -0.00000000000E+00 -0.00000000000E+00 -0.27288490401E+03  0.27288490401E+03  0.00000000000E+00 0.  1.
         -6    2    1    2    0  503 -0.51212220014E+03  0.21914225837E+03  0.68616994748E+03  0.90051645880E+03  0.17265056750E+03 0.  0.
        -24    2    3    3    0    0 -0.35858161694E+03  0.21795476716E+03  0.46603343388E+03  0.63207969633E+03  0.79072906123E+02 0.  0.
          6    2    1    2  501    0  0.51212220014E+03 -0.21914225837E+03  0.34966736310E+03  0.68109065980E+03  0.17698797917E+03 0.  0.
         24    2    5    5    0    0  0.41558280752E+03 -0.22664065075E+03  0.33117067269E+03  0.58239771288E+03  0.73742979579E+02 0.  0.
          5    1    5    5  501    0  0.96539392622E+02  0.74983923769E+01  0.18496690403E+02  0.98692946921E+02  0.47000000000E+01 0. -1.
        -13    1    6    6    0    0  0.15549137156E+03 -0.92174969344E+02  0.17017083688E+03  0.24825773972E+03  0.00000000000E+00 0.  1.
         14    1    6    6    0    0  0.26009143595E+03 -0.13446568141E+03  0.16099983581E+03  0.33413997316E+03  0.00000000000E+00 0. -1.
         -5    1    3    3    0  503 -0.15354058320E+03  0.11874912177E+01  0.22013651360E+03  0.26843676246E+03  0.47000000000E+01 0.  1.
         13    1    4    4    0    0 -0.32186763918E+03  0.16794837891E+03  0.37528765233E+03  0.52215539557E+03  0.00000000000E+00 0. -1.
        -14    1    4    4    0    0 -0.36713977761E+02  0.50006388248E+02  0.90745781548E+02  0.10992430076E+03  0.00000000000E+00 0.  1.
</event>
<event>
12    1  0.1039610E+000  0.2221050E+03  0.7818608E-02  0.1132603E+00
         21   -1    0    0  503  502  0.00000000000E+00  0.00000000000E+00  0.28522440426E+03  0.28522440426E+03  0.00000000000E+00 0. -1.
         21   -1    0    0  501  503 -0.00000000000E+00 -0.00000000000E+00 -0.17977913468E+03  0.17977913468E+03  0.00000000000E+00 0. -1.
          6    2    1    2  501    0  0.12928933232E+03  0.35562375678E+02  0.34925160020E+01  0.22061654286E+03  0.17515435279E+03 0.  0.
         24    2    3    3    0    0  0.11723674685E+03  0.78504411670E+02  0.61513610427E+01  0.17568946051E+03  0.10450621908E+03 0.  0.
         -6    2    1    2    0  502 -0.12928933232E+03 -0.35562375678E+02  0.10195275358E+03  0.24438699608E+03  0.17705994995E+03 0.  0.
        -24    2    5    5    0    0 -0.82767231033E+02 -0.23120943966E+02 -0.14103998558E+02  0.11864776256E+03  0.80581487959E+02 0.  0.
          5    1    3    3  501    0  0.12052585468E+02 -0.42942035992E+02 -0.26588450407E+01  0.44927082350E+02  0.47000000000E+01 0. -1.
        -13    1    4    4    0    0  0.73591647364E+02  0.16658725972E+02  0.47773081718E+02  0.89305716780E+02  0.00000000000E+00 0.  1.
         14    1    4    4    0    0  0.43645099490E+02  0.61845685698E+02 -0.41621720675E+02  0.86383743730E+02  0.00000000000E+00 0. -1.
         -5    1    5    5    0  502 -0.46522101288E+02 -0.12441431712E+02  0.11605675214E+03  0.12573923353E+03  0.47000000000E+01 0.  1.
         13    1    6    6    0    0 -0.13293354661E+02 -0.43177655651E+02 -0.96691756282E+01  0.46200824484E+02  0.00000000000E+00 0. -1.
        -14    1    6    6    0    0 -0.69473876372E+02  0.20056711685E+02 -0.44348229302E+01  0.72446938073E+02  0.00000000000E+00 0.  1.
</event>
<event>
12    1  0.1039610E+000  0.2855753E+03  0.7818608E-02  0.1092692E+00
         21   -1    0    0  501  502  0.00000000000E+00  0.00000000000E+00  0.86596464018E+02  0.86596464018E+02  0.00000000000E+00 0.  1.
         21   -1    0    0  502  503 -0.00000000000E+00 -0.00000000000E+00 -0.97022026604E+03  0.97022026604E+03  0.00000000000E+00 0.  1.
         -6    2    1    2    0  503 -0.22238617303E+03  0.48578393796E+02 -0.53265134910E+03  0.60434029561E+03  0.17232023358E+03 0.  0.
        -24    2    3    3    0    0 -0.11424575093E+03 -0.11474384177E+02 -0.39808689154E+03  0.42150055629E+03  0.77497049257E+02 0.  0.
          6    2    1    2  501    0  0.22238617303E+03 -0.48578393796E+02 -0.35097245292E+03  0.45247643445E+03  0.17244648654E+03 0.  0.
         24    2    5    5    0    0  0.15307564605E+03 -0.96759179327E+02 -0.21278024794E+03  0.29047485186E+03  0.79408522517E+02 0.  0.
          5    1    5    5  501    0  0.69310526979E+02  0.48180785531E+02 -0.13819220498E+03  0.16200158259E+03  0.47000000000E+01 0. -1.
        -13    1    6    6    0    0 -0.37912884784E+01 -0.16699571246E+02 -0.41104831702E+02  0.44529279552E+02  0.00000000000E+00 0.  1.
         14    1    6    6    0    0  0.15686693453E+03 -0.80059608080E+02 -0.17167541624E+03  0.24594557231E+03  0.00000000000E+00 0. -1.
         -5    1    3    3    0  503 -0.10814042210E+03  0.60052777972E+02 -0.13456445756E+03  0.18283973932E+03  0.47000000000E+01 0.  1.
         11    1    4    4    0    0 -0.90879651261E+02 -0.28952569271E+02 -0.20356565737E+03  0.22480288953E+03  0.00000000000E+00 0. -1.
        -12    1    4    4    0    0 -0.23366099668E+02  0.17478185094E+02 -0.19452123416E+03  0.19669766676E+03  0.00000000000E+00 0.  1.
</event>
<event>
12    1  0.1039610E+000  0.4009363E+03  0.7818608E-02  0.1043690E+00
         21   -1    0    0  501  502  0.00000000000E+00  0.00000000000E+00  0.12221149387E+04  0.12221149387E+04  0.00000000000E+00 0.  1.
         21   -1    0    0  502  503 -0.00000000000E+00 -0.00000000000E+00 -0.16344601649E+03  0.16344601649E+03  0.00000000000E+00 0.  1.
         -6    2    1    2    0  503 -0.30191247708E+03  0.19477173749E+03  0.84109484136E+03  0.93176739247E+03  0.17794034942E+03 0.  0.
        -24    2    3    3    0    0 -0.29377118605E+03  0.12715118084E+03  0.65265076221E+03  0.73133765098E+03  0.80204799087E+02 0.  0.
          6    2    1    2  501    0  0.30191247708E+03 -0.19477173749E+03  0.21757408084E+03  0.45379356272E+03  0.17176420864E+03 0.  0.
         24    2    5    5    0    0  0.55285119048E+02 -0.25685521096E+02  0.27624895763E+01  0.85579885563E+02  0.60000792347E+02 0.  0.
          5    1    5    5  501    0  0.24662735803E+03 -0.16908621639E+03  0.21481159126E+03  0.36821367716E+03  0.47000000000E+01 0. -1.
        -13    1    6    6    0    0  0.34907292063E+02  0.12861740292E+02 -0.12711780444E+02  0.39313264487E+02  0.00000000000E+00 0.  1.
         14    1    6    6    0    0  0.20377826984E+02 -0.38547261389E+02  0.15474270020E+02  0.46266621076E+02  0.00000000000E+00 0. -1.
         -5    1    3    3    0  503 -0.81412910357E+01  0.67620556648E+02  0.18844407916E+03  0.20042974148E+03  0.47000000000E+01 0.  1.
         13    1    4    4    0    0 -0.18471225832E+03  0.11716029521E+03  0.46926087893E+03  0.51773634761E+03  0.00000000000E+00 0. -1.
        -14    1    4    4    0    0 -0.10905892772E+03  0.99908856286E+01  0.18338988328E+03  0.21360130337E+03  0.00000000000E+00 0.  1.
</event>
<event>
12    1  0.1039610E+000  0.1784997E+03  0.7818608E-02  0.1169327E+00
         21   -1    0    0  503  502  0.00000000000E+00  0.00000000000E+00  0.31897102344E+03  0.31897102344E+03  0.00000000000E+00 0. -1.
         21   -1    0    0  501  503 -0.00000000000E+00 -0.00000000000E+00 -0.16620203171E+03  0.16620203171E+03  0.00000000000E+00 0. -1.
          6    2    1    2  501    0  0.42230257308E+02  0.20286035287E+02 -0.77047574981E+02  0.19417855700E+03  0.17197111772E+03 0.  0.
         24    2    3    3    0    0 -0.19411702467E+02 -0.73122596339E+01  0.76189528889E+01  0.85772339336E+02  0.82876790590E+02 0.  0.
         -6    2    1    2    0  502 -0.42230257308E+02 -0.20286035287E+02  0.22981656670E+03  0.29099449814E+03  0.17224176543E+03 0.  0.
        -24    2    5    5    0    0  0.31422583049E+02  0.19919131482E+02  0.78257059575E+02  0.11769253471E+03  0.79644301927E+02 0.  0.
          5    1    3    3  501    0  0.61641959775E+02  0.27598294921E+02 -0.84666527870E+02  0.10840621767E+03  0.47000000000E+01 0. -1.
        -11    1    4    4    0    0  0.15383383278E+02  0.26526824220E+02  0.18794441798E+02  0.35965982911E+02  0.00000000000E+00 0.  1.
         12    1    4    4    0    0 -0.34795085745E+02 -0.33839083854E+02 -0.11175488909E+02  0.49806356426E+02  0.00000000000E+00 0. -1.
         -5    1    5    5    0  502 -0.73652840357E+02 -0.40205166769E+02  0.15155950713E+03  0.17330196343E+03  0.47000000000E+01 0.  1.
         11    1    6    6    0    0  0.47982543865E+02 -0.30268634167E+01  0.18390795709E+02  0.51475312381E+02  0.00000000000E+00 0. -1.
        -12    1    6    6    0    0 -0.16559960816E+02  0.22945994898E+02  0.59866263865E+02  0.66217222331E+02  0.00000000000E+00 0.  1.
</event>
<event>
12    1  0.1039610E+000  0.3206674E+03  0.7818608E-02  0.1075416E+00
         21   -1    0    0  501  502  0.00000000000E+00  0.00000000000E+00  0.35234581728E+03  0.35234581728E+03  0.00000000000E+00 0. -1.
         21   -1    0    0  502  503 -0.00000000000E+00 -0.00000000000E+00 -0.32796378144E+03  0.32796378144E+03  0.00000000000E+00 0. -1.
         -6    2    1    2    0  503 -0.23907043208E+03  0.12529478860E+03  0.12597939678E+03  0.34393245002E+03  0.17194553270E+03 0.  0.
        -24    2    3    3    0    0 -0.13566333855E+03  0.71114602309E+02  0.47884721325E+01  0.17559395235E+03  0.85723267262E+02 0.  0.
          6    2    1    2  501    0  0.23907043208E+03 -0.12529478860E+03 -0.10159736094E+03  0.33637714870E+03  0.17313031760E+03 0.  0.
         24    2    5    5    0    0  0.15709663685E+03 -0.66437324539E+02  0.71677009595E+01  0.18793243553E+03  0.78574505939E+02 0.  0.
          5    1    5    5  501    0  0.81973795228E+02 -0.58857464063E+02 -0.10876506190E+03  0.14844471317E+03  0.47000000000E+01 0. -1.
        -13    1    6    6    0    0  0.61110209637E+02 -0.10014095341E+02 -0.32249298459E+02  0.69819460600E+02  0.00000000000E+00 0.  1.
         14    1    6    6    0    0  0.95986427216E+02 -0.56423229198E+02  0.39416999419E+02  0.11811297493E+03  0.00000000000E+00 0. -1.
         -5    1    3    3    0  503 -0.10340709353E+03  0.54180186293E+02  0.12119092465E+03  0.16833849766E+03  0.47000000000E+01 0.  1.
         11    1    4    4    0    0 -0.13230371503E+03  0.71125070050E+02 -0.19145595953E+02  0.15142523714E+03  0.00000000000E+00 0. -1.
        -12    1    4    4    0    0 -0.33596235222E+01 -0.10467741393E-01  0.23934068086E+02  0.24168715210E+02  0.00000000000E+00 0.  1.
</event>
<event>
12    1  0.1039610E+000  0.2078040E+03  0.7818608E-02  0.1143379E+00
         21   -1    0    0  503  502  0.00000000000E+00  0.00000000000E+00  0.32166278142E+03  0.32166278142E+03  0.00000000000E+00 0. -1.
         21   -1    0    0  501  503 -0.00000000000E+00 -0.00000000000E+00 -0.14397777888E+03  0.14397777888E+03  0.00000000000E+00 0. -1.
          6    2    1    2  501    0 -0.11010604148E+03 -0.35150664130E+02  0.15005179797E+03  0.25631633058E+03  0.17269513510E+03 0.  0.
         24    2    3    3    0    0 -0.11171386117E+03 -0.42854462193E+02  0.49323374609E+02  0.15517168731E+03  0.85609377720E+02 0.  0.
         -6    2    1    2    0  502  0.11010604148E+03  0.35150664130E+02  0.27633204574E+02  0.20932422973E+03  0.17231984679E+03 0.  0.
        -24    2    5    5    0    0 -0.12574178649E+02  0.20799904808E+02  0.23413034671E+01  0.83157074868E+02  0.79491329024E+02 0.  0.
          5    1    3    3  501    0  0.16078196918E+01  0.77037980636E+01  0.10072842336E+03  0.10114464326E+03  0.47000000000E+01 0. -1.
        -11    1    4    4    0    0 -0.64066983550E+02 -0.64998902727E+02  0.46810365364E+02  0.10257020056E+03  0.00000000000E+00 0.  1.
         12    1    4    4    0    0 -0.47646877620E+02  0.22144440534E+02  0.25130092448E+01  0.52601486756E+02  0.00000000000E+00 0. -1.
         -5    1    5    5    0  502  0.12268022013E+03  0.14350759322E+02  0.25291901106E+02  0.12616715486E+03  0.47000000000E+01 0.  1.
         11    1    6    6    0    0 -0.28043332633E+02 -0.34448299500E+00  0.32685087467E+02  0.43068110203E+02  0.00000000000E+00 0. -1.
        -12    1    6    6    0    0  0.15469153984E+02  0.21144387803E+02 -0.30343784000E+02  0.40088964666E+02  0.00000000000E+00 0.  1.
</event>
<event>
12    1  0.1039610E+000  0.2206174E+03  0.7818608E-02  0.1133447E+00
         21   -1    0    0  503  502  0.00000000000E+00  0.00000000000E+00  0.70500853543E+02  0.70500853543E+02  0.00000000000E+00 0.  1.
         21   -1    0    0  501  503 -0.00000000000E+00 -0.00000000000E+00 -0.74192777822E+03  0.74192777822E+03  0.00000000000E+00 0.  1.
          6    2    1    2  501    0 -0.94977333680E+02 -0.10061884642E+03 -0.44310592696E+03  0.49493452119E+03  0.17167548337E+03 0.  0.
         24    2    3    3    0    0 -0.10150891997E+03 -0.11246437683E+03 -0.44951684560E+03  0.47924477651E+03  0.68248549046E+02 0.  0.
         -6    2    1    2    0  502  0.94977333680E+02  0.10061884642E+03 -0.22832099772E+03  0.31749411058E+03  0.17183476390E+03 0.  0.
        -24    2    5    5    0    0  0.51706298882E+02  0.47919584104E+02 -0.35386187125E+02  0.11281014481E+03  0.80648116215E+02 0.  0.
          5    1    3    3  501    0  0.65315862898E+01  0.11845530411E+02  0.64109186411E+01  0.15689744676E+02  0.47000000000E+01 0. -1.
        -11    1    4    4    0    0 -0.72021109110E+02 -0.11378591122E+03 -0.33671321495E+03  0.36264316190E+03  0.00000000000E+00 0.  1.
         12    1    4    4    0    0 -0.29487810860E+02  0.13215343945E+01 -0.11280363065E+03  0.11660161461E+03  0.00000000000E+00 0. -1.
         -5    1    5    5    0  502  0.43271034798E+02  0.52699262315E+02 -0.19293481059E+03  0.20468396576E+03  0.47000000000E+01 0.  1.
         13    1    6    6    0    0  0.10054576074E+02  0.61281569321E+02 -0.12147410956E+02  0.63277838390E+02  0.00000000000E+00 0. -1.
        -14    1    6    6    0    0  0.41651722808E+02 -0.13361985217E+02 -0.23238776170E+02  0.49532306424E+02  0.00000000000E+00 0.  1.
</event>
<event>
12    1  0.1039610E+000  0.1824713E+03  0.7818608E-02  0.1166333E+00
         21   -1    0    0  501  502  0.00000000000E+00  0.00000000000E+00  0.17252772740E+04  0.17252772740E+04  0.00000000000E+00 0.  1.
         21   -1    0    0  502  503 -0.00000000000E+00 -0.00000000000E+00 -0.22526530490E+02  0.22526530490E+02  0.00000000000E+00 0. -1.
         -6    2    1    2    0  503 -0.19378388503E+02 -0.48664476749E+02  0.49357040137E+03  0.52493305449E+03  0.17087778486E+03 0.  0.
        -24    2    3    3    0    0  0.40315203031E+02  0.14699824925E+02  0.20483084774E+03  0.22331909688E+03  0.77938067715E+02 0.  0.
          6    2    1    2  501    0  0.19378388503E+02  0.48664476749E+02  0.12091803421E+04  0.12228707500E+04  0.17479135600E+03 0.  0.
         24    2    5    5    0    0 -0.44629798337E+02  0.58793606498E+02  0.88148927362E+03  0.88880013823E+03  0.86566963415E+02 0.  0.
          5    1    5    5  501    0  0.64008186841E+02 -0.10129129749E+02  0.32769106851E+03  0.33407061175E+03  0.47000000000E+01 0. -1.
        -13    1    6    6    0    0 -0.37669110843E+02  0.28267738927E+02  0.80178371562E+03  0.80316570744E+03  0.00000000000E+00 0.  1.
         14    1    6    6    0    0 -0.69606874946E+01  0.30525867570E+02  0.79705557999E+02  0.85634430793E+02  0.00000000000E+00 0. -1.
         -5    1    3    3    0  503 -0.59693591534E+02 -0.63364301674E+02  0.28873955363E+03  0.30161395761E+03  0.47000000000E+01 0.  1.
         11    1    4    4    0    0  0.47151340235E+01 -0.29336262064E+02  0.98043357106E+02  0.10244680880E+03  0.00000000000E+00 0. -1.
        -12    1    4    4    0    0  0.35600069007E+02  0.44036086990E+02  0.10678749063E+03  0.12087228808E+03  0.00000000000E+00 0.  1.
</event>
<event>
12    1  0.1039610E+000  0.2413159E+03  0.7818608E-02  0.1119173E+00
         21   -1    0    0  501  502  0.00000000000E+00  0.00000000000E+00  0.39215891843E+03  0.39215891843E+03  0.00000000000E+00 0.  1.
         21   -1    0    0  502  503 -0.00000000000E+00 -0.00000000000E+00 -0.19320028873E+03  0.19320028873E+03  0.00000000000E+00 0.  1.
         -6    2    1    2    0  503  0.78051306794E+02  0.14795803664E+03 -0.42540482683E+02  0.24503682430E+03  0.17392459717E+03 0.  0.
        -24    2    3    3    0    0  0.59306919063E+02  0.81475068984E+01 -0.14034372904E+02  0.10104715595E+03  0.80186480069E+02 0.  0.
          6    2    1    2  501    0 -0.78051306794E+02 -0.14795803664E+03  0.24149911238E+03  0.34032238286E+03  0.17179614634E+03 0.  0.
         24    2    5    5    0    0  0.16862704750E+02 -0.11012917776E+03  0.12551913176E+03  0.18568364885E+03  0.79439149076E+02 0.  0.
          5    1    5    5  501    0 -0.94914011544E+02 -0.37828858874E+02  0.11597998062E+03  0.15463873401E+03  0.47000000000E+01 0. -1.
        -11    1    6    6    0    0  0.13648173232E+02 -0.19042939735E+02  0.80863247064E+02  0.84188900171E+02  0.00000000000E+00 0.  1.
         12    1    6    6    0    0  0.32145315185E+01 -0.91086238029E+02  0.44655884694E+02  0.10149474868E+03  0.00000000000E+00 0. -1.
         -5    1    3    3    0  503  0.18744387731E+02  0.13981052974E+03 -0.28506109779E+02  0.14398966835E+03  0.47000000000E+01 0.  1.
         11    1    4    4    0    0  0.11854948959E+02  0.34012519027E+02  0.15781165337E+02  0.39324756131E+02  0.00000000000E+00 0. -1.
        -12    1    4    4    0    0  0.47451970104E+02 -0.25865012128E+02 -0.29815538241E+02  0.61722399821E+02  0.00000000000E+00 0.  1.
</event>
<event>
12    1  0.1039610E+000  0.1750767E+03  0.7818608E-02  0.1172802E+00
         21   -1    0    0  503  502  0.00000000000E+00  0.00000000000E+00  0.37903992240E+02  0.37903992240E+02  0.00000000000E+00 0. -1.
         21   -1    0    0  501  503 -0.00000000000E+00 -0.00000000000E+00 -0.80681695595E+03  0.80681695595E+03  0.00000000000E+00 0. -1.
          6    2    1    2  501    0  0.32276594268E+02  0.36622379403E+01 -0.37006169241E+03  0.40913604832E+03  0.17143937506E+03 0.  0.
         24    2    3    3    0    0  0.44993201378E+02 -0.40461866395E+02 -0.33854969348E+03  0.35324557725E+03  0.80653531157E+02 0.  0.
         -6    2    1    2    0  502 -0.32276594268E+02 -0.36622379403E+01 -0.39885127130E+03  0.43558489987E+03  0.17203685028E+03 0.  0.
        -24    2    5    5    0    0 -0.54097354573E+02 -0.55958085769E+02 -0.20045007199E+03  0.22919660764E+03  0.79328572786E+02 0.  0.
          5    1    3    3  501    0 -0.12716607109E+02  0.44124104335E+02 -0.31511998925E+02  0.55890471066E+02  0.47000000000E+01 0. -1.
        -13    1    4    4    0    0 -0.20296152559E+02 -0.24782933559E+02 -0.81457903204E+02  0.87530095389E+02  0.00000000000E+00 0.  1.
         14    1    4    4    0    0  0.65289353937E+02 -0.15678932836E+02 -0.25709179028E+03  0.26571548186E+03  0.00000000000E+00 0. -1.
         -5    1    5    5    0  502  0.21820760304E+02  0.52295847829E+02 -0.19840119931E+03  0.20638829222E+03  0.47000000000E+01 0.  1.
         11    1    6    6    0    0 -0.61695956603E+02 -0.37501009574E+02 -0.19582087481E+03  0.20870680821E+03  0.00000000000E+00 0. -1.
        -12    1    6    6    0    0  0.75986020299E+01 -0.18457076195E+02 -0.46291971786E+01  0.20489799437E+02  0.00000000000E+00 0.  1.
</event>
<event>
12    1  0.1039610E+000  0.2122764E+03  0.7818608E-02  0.1140021E+00
         21   -1    0    0  503  502  0.00000000000E+00  0.00000000000E+00  0.15562420288E+03  0.15562420288E+03  0.00000000000E+00 0. -1.
         21   -1    0    0  501  503 -0.00000000000E+00 -0.00000000000E+00 -0.32181997159E+03  0.32181997159E+03  0.00000000000E+00 0. -1.
          6    2    1    2  501    0 -0.10407109260E+03  0.68117456797E+02 -0.53120929895E+01  0.21108947910E+03  0.17046926297E+03 0.  0.
         24    2    3    3    0    0 -0.12688621641E+03  0.39322213712E+02  0.31697574807E+02  0.15873013027E+03  0.80896041948E+02 0.  0.
         -6    2    1    2    0  502  0.10407109260E+03 -0.68117456797E+02 -0.16088367572E+03  0.26635469538E+03  0.17201885478E+03 0.  0.
        -24    2    5    5    0    0  0.94471624914E+02 -0.80566225600E+02 -0.18536423797E+03  0.23688420925E+03  0.79614215161E+02 0.  0.
          5    1    3    3  501    0  0.22815123808E+02  0.28795243085E+02 -0.37009667796E+02  0.52359348822E+02  0.47000000000E+01 0. -1.
        -11    1    4    4    0    0 -0.12325075706E+03  0.88742848534E+01  0.17027672242E+02  0.12473749905E+03  0.00000000000E+00 0.  1.
         12    1    4    4    0    0 -0.36354593515E+01  0.30447928859E+02  0.14669902564E+02  0.33992631227E+02  0.00000000000E+00 0. -1.
         -5    1    5    5    0  502  0.95994676861E+01  0.12448768803E+02  0.24480562242E+02  0.29470486122E+02  0.47000000000E+01 0.  1.
         13    1    6    6    0    0  0.36146768533E+02 -0.76831614721E+02 -0.81436081264E+02  0.11764999459E+03  0.00000000000E+00 0. -1.
        -14    1    6    6    0    0  0.58324856381E+02 -0.37346108786E+01 -0.10392815670E+03  0.11923421466E+03  0.00000000000E+00 0.  1.
</event>
<event>
12    1  0.1039610E+000  0.2113257E+03  0.7818608E-02  0.1141010E+00
         21   -1    0    0  503  502  0.00000000000E+00  0.00000000000E+00  0.18136745511E+03  0.18136745511E+03  0.00000000000E+00 0.  1.
         21   -1    0    0  501  503 -0.00000000000E+00 -0.00000000000E+00 -0.91277696250E+03  0.91277696250E+03  0.00000000000E+00 0.  1.
          6    2    1    2  501    0  0.95522590052E+02 -0.70778357536E+02 -0.83478079895E+03  0.86111412372E+03  0.17471236550E+03 0.  0.
         24    2    3    3    0    0  0.13123870574E+03 -0.68624167372E+02 -0.75324032443E+03  0.77194450759E+03  0.81206294173E+02 0.  0.
         -6    2    1    2    0  502 -0.95522590052E+02  0.70778357536E+02  0.10337129156E+03  0.23303029389E+03  0.17170717179E+03 0.  0.
        -24    2    5    5    0    0 -0.35863615813E+02  0.10673979038E+03  0.69417495571E+02  0.15539416749E+03  0.81541258335E+02 0.  0.
          5    1    3    3  501    0 -0.35716115693E+02 -0.21541901648E+01 -0.81540474519E+02  0.89169616127E+02  0.47000000000E+01 0. -1.
        -13    1    4    4    0    0  0.83098889070E+02 -0.79980885334E+02 -0.59780451566E+03  0.60882888099E+03  0.00000000000E+00 0.  1.
         14    1    4    4    0    0  0.48139816674E+02  0.11356717963E+02 -0.15543580878E+03  0.16311562660E+03  0.00000000000E+00 0. -1.
         -5    1    5    5    0  502 -0.59658974239E+02 -0.35961432840E+02  0.33953795992E+02  0.77636126394E+02  0.47000000000E+01 0.  1.
         11    1    6    6    0    0  0.46569132760E+01  0.59984180043E+02 -0.28839741675E+01  0.60233761328E+02  0.00000000000E+00 0. -1.
        -12    1    6    6    0    0 -0.40520529089E+02  0.46755610333E+02  0.72301469739E+02  0.95160406166E+02  0.00000000000E+00 0.  1.
</event>
<event>
12    1  0.1039610E+000  0.2108754E+03  0.7818608E-02  0.1140882E+00
         21   -1    0    0  501  502  0.00000000000E+00  0.00000000000E+00  0.70813642216E+03  0.70813642216E+03  0.00000000000E+00 0. -1.
         21   -1    0    0  502  503 -0.00000000000E+00 -0.00000000000E+00 -0.72449470785E+02  0.72449470785E+02  0.00000000000E+00 0. -1.
         -6    2    1    2    0  503  0.12233615735E+03 -0.39004402289E+01  0.46041862046E+03  0.50641262580E+03  0.17171806160E+03 0.  0.
        -24    2    3    3    0    0  0.13848007346E+03  0.39398941106E+02  0.35447309456E+03  0.39073200119E+03  0.79317808109E+02 0.  0.
          6    2    1    2  501    0 -0.12233615735E+03  0.39004402289E+01  0.17526833092E+03  0.27417326714E+03  0.17167015980E+03 0.  0.
         24    2    5    5    0    0 -0.11279635329E+03  0.58249058945E+02  0.97538504012E+02  0.17873325348E+03  0.79472296754E+02 0.  0.
          5    1    5    5  501    0 -0.95398040596E+01 -0.54348618717E+02  0.77729826904E+02  0.95440013665E+02  0.47000000000E+01 0. -1.
        -11    1    6    6    0    0 -0.13892714979E+02  0.20806271919E+02  0.62507550972E+02  0.67328318033E+02  0.00000000000E+00 0.  1.
         12    1    6    6    0    0 -0.98903638306E+02  0.37442787026E+02  0.35030953040E+02  0.11140493544E+03  0.00000000000E+00 0. -1.
         -5    1    3    3    0  503 -0.16143916119E+02 -0.43299381335E+02  0.10594552590E+03  0.11568062461E+03  0.47000000000E+01 0.  1.
         11    1    4    4    0    0  0.18677293391E+02 -0.13892933354E+02  0.11860937068E+03  0.12087198890E+03  0.00000000000E+00 0. -1.
        -12    1    4    4    0    0  0.11980278007E+03  0.53291874461E+02  0.23586372387E+03  0.26986001229E+03  0.00000000000E+00 0.  1.
</event>
<event>
12    1  0.1039610E+000  0.2366974E+03  0.7818608E-02  0.1122079E+00
         21   -1    0    0  501  502  0.00000000000E+00  0.00000000000E+00  0.25281053729E+03  0.25281053729E+03  0.00000000000E+00 0.  1.
         21   -1    0    0  502  503 -0.00000000000E+00 -0.00000000000E+00 -0.23222890554E+03  0.23222890554E+03  0.00000000000E+00 0.  1.
         -6    2    1    2    0  503 -0.11547925866E+03  0.11224555684E+03  0.63028312544E+02  0.24456621356E+03  0.17293218446E+03 0.  0.
        -24    2    3    3    0    0 -0.11766767246E+03  0.14484558953E+03  0.58921275708E+02  0.21130198295E+03  0.79692442049E+02 0.  0.
          6    2    1    2  501    0  0.11547925866E+03 -0.11224555684E+03 -0.42446680793E+02  0.24047322927E+03  0.17346794827E+03 0.  0.
         24    2    5    5    0    0  0.18971302431E+02 -0.43636161577E+02  0.33537777893E+02  0.99701205435E+02  0.80941478279E+02 0.  0.
          5    1    5    5  501    0  0.96507956229E+02 -0.68609395265E+02 -0.75984458686E+02  0.14077202384E+03  0.47000000000E+01 0. -1.
        -11    1    6    6    0    0 -0.11310840945E+02  0.18485711023E+02 -0.24034540193E+01  0.21804431342E+02  0.00000000000E+00 0.  1.
         12    1    6    6    0    0  0.30282143376E+02 -0.62121872599E+02  0.35941231912E+02  0.77896774093E+02  0.00000000000E+00 0. -1.
         -5    1    3    3    0  503  0.21884138013E+01 -0.32600032689E+02  0.41070368360E+01  0.33264230607E+02  0.47000000000E+01 0.  1.
         11    1    4    4    0    0 -0.51485454516E+02  0.10425257385E+03  0.42599877893E+01  0.11635075710E+03  0.00000000000E+00 0. -1.
        -12    1    4    4    0    0 -0.66182217946E+02  0.40593015677E+02  0.54661287919E+02  0.94951225853E+02  0.00000000000E+00 0.  1.
</event>
<event>
12    1  0.1039610E+000  0.2355637E+03  0.7818608E-02  0.1122838E+00
         21   -1    0    0  501  502  0.00000000000E+00  0.00000000000E+00  0.56817699690E+03  0.56817699690E+03  0.00000000000E+00 0. -1.
         21   -1    0    0  502  503 -0.00000000000E+00 -0.00000000000E+00 -0.13786574630E+03  0.13786574630E+03  0.00000000000E+00 0. -1.
         -6    2    1    2    0  503  0.10010521447E+03  0.12223079066E+03  0.24314916391E+02  0.23681531555E+03  0.17472509371E+03 0.  0.
        -24    2    3    3    0    0  0.58518036099E+02 -0.74167419990E+01  0.10251695383E+02  0.99856050389E+02  0.79917238004E+02 0.  0.
          6    2    1    2  501    0 -0.10010521447E+03 -0.12223079066E+03  0.40599633421E+03  0.46922742766E+03  0.17429840885E+03 0.  0.
         24    2    5    5    0    0 -0.55434309290E+01  0.64120876999E+01  0.14751115604E+03  0.16537285983E+03  0.74275144672E+02 0.  0.
          5    1    5    5  501    0 -0.94561783543E+02 -0.12864287836E+03  0.25848517816E+03  0.30385456783E+03  0.47000000000E+01 0. -1.
        -13    1    6    6    0    0 -0.23425360262E+01  0.11658195112E+02 -0.48830635020E+01  0.12854777224E+02  0.00000000000E+00 0.  1.
         14    1    6    6    0    0 -0.32008949028E+01 -0.52461074122E+01  0.15239421955E+03  0.15251808261E+03  0.00000000000E+00 0. -1.
         -5    1    3    3    0  503  0.41587178373E+02  0.12964753266E+03  0.14063221008E+02  0.13695926516E+03  0.47000000000E+01 0.  1.
         11    1    4    4    0    0 -0.50045149801E+01  0.76666202804E+01 -0.24314814771E+02  0.25981386684E+02  0.00000000000E+00 0. -1.
        -12    1    4    4    0    0  0.63522551079E+02 -0.15083362279E+02  0.34566510153E+02  0.73874663704E+02  0.00000000000E+00 0.  1.
</event>
<event>
12    1  0.1039610E+000  0.2112391E+03  0.7818608E-02  0.1140595E+00
         21   -1    0    0  503  502  0.00000000000E+00  0.00000000000E+00  0.19626028107E+03  0.19626028107E+03  0.00000000000E+00 0.  1.
         21   -1    0    0  501  503 -0.00000000000E+00 -0.00000000000E+00 -0.22770307545E+03  0.22770307545E+03  0.00000000000E+00 0. -1.
          6    2    1    2  501    0  0.70611037550E+01  0.12211082690E+03 -0.71113137307E+01  0.21132759429E+03  0.17218556297E+03 0.  0.
         24    2    3    3    0    0 -0.22475583990E+00  0.13602744360E+03 -0.49625551618E+02  0.16576108912E+03  0.80687839012E+02 0.  0.
         -6    2    1    2    0  502 -0.70611037550E+01 -0.12211082690E+03 -0.24331480651E+02  0.21263576223E+03  0.17222378812E+03 0.  0.
        -24    2    5    5    0    0  0.21876241393E+02 -0.57879533625E+02  0.48210561133E+02  0.11140598990E+03  0.79110214449E+02 0.  0.
          5    1    3    3  501    0  0.72858595949E+01 -0.13916616702E+02  0.42514237888E+02  0.45566505172E+02  0.47000000000E+01 0. -1.
        -13    1    4    4    0    0  0.24413113437E+02  0.10990869512E+03 -0.11156148679E+02  0.11313876888E+03  0.00000000000E+00 0.  1.
         14    1    4    4    0    0 -0.24637869277E+02  0.26118748485E+02 -0.38469402939E+02  0.52622320240E+02  0.00000000000E+00 0. -1.
         -5    1    5    5    0  502 -0.28937345148E+02 -0.64231293277E+02 -0.72542041784E+02  0.10122977233E+03  0.47000000000E+01 0.  1.
         11    1    6    6    0    0  0.19179105664E+02 -0.43808625283E+02 -0.12171457617E+02  0.49347523988E+02  0.00000000000E+00 0. -1.
        -12    1    6    6    0    0  0.26971357293E+01 -0.14070908342E+02  0.60382018750E+02  0.62058465910E+02  0.00000000000E+00 0.  1.
</event>
<event>
12    1  0.1039610E+000  0.4030030E+03  0.7818608E-02  0.1042759E+00
         21   -1    0    0  503  502  0.00000000000E+00  0.00000000000E+00  0.38229182417E+03  0.38229182417E+03  0.00000000000E+00 0. -1.
         21   -1    0    0  501  503 -0.00000000000E+00 -0.00000000000E+00 -0.63857639558E+03  0.63857639558E+03  0.00000000000E+00 0.  1.
          6    2    1    2  501    0  0.34012557027E+03  0.12948283866E+03  0.16726839647E+03  0.43633717373E+03  0.17309016048E+03 0.  0.
         24    2    3    3    0    0  0.18675545056E+03  0.13903925181E+03  0.75712527733E+02  0.25740063259E+03  0.79455565850E+02 0.  0.
         -6    2    1    2    0  502 -0.34012557027E+03 -0.12948283866E+03 -0.42355296789E+03  0.58453104602E+03  0.17270847718E+03 0.  0.
        -24    2    5    5    0    0 -0.33761318296E+03 -0.10636281470E+03 -0.33877037053E+03  0.49649113227E+03  0.80264380712E+02 0.  0.
          5    1    3    3  501    0  0.15337011971E+03 -0.95564131473E+01  0.91555868739E+02  0.17893654113E+03  0.47000000000E+01 0. -1.
        -11    1    4    4    0    0  0.10771951378E+02 -0.38136526106E+01 -0.98870280590E+01  0.15110665325E+02  0.00000000000E+00 0.  1.
         12    1    4    4    0    0  0.17598349919E+03  0.14285290442E+03  0.85599555792E+02  0.24228996727E+03  0.00000000000E+00 0. -1.
         -5    1    5    5    0  502 -0.25123873098E+01 -0.23120023968E+02 -0.84782597360E+02  0.88039913751E+02  0.47000000000E+01 0.  1.
         11    1    6    6    0    0 -0.22426665675E+03 -0.10608418901E+03 -0.21093791404E+03  0.32564427228E+03  0.00000000000E+00 0. -1.
        -12    1    6    6    0    0 -0.11334652622E+03 -0.27862569011E+00 -0.12783245648E+03  0.17084685999E+03  0.00000000000E+00 0.  1.
</event>
<event>
12    1  0.1039610E+000  0.1824723E+03  0.7818608E-02  0.1165835E+00
         21   -1    0    0  503  502  0.00000000000E+00  0.00000000000E+00  0.27251353457E+03  0.27251353457E+03  0.00000000000E+00 0.  1.
         21   -1    0    0  501  503 -0.00000000000E+00 -0.00000000000E+00 -0.14265502256E+03  0.14265502256E+03  0.00000000000E+00 0.  1.
          6    2    1    2  501    0 -0.74507385115E+01 -0.60652232646E+02 -0.15593900099E+02  0.18313745262E+03  0.17193588923E+03 0.  0.
         24    2    3    3    0    0 -0.18720272158E+02 -0.74875355818E+02  0.44659785632E+02  0.12003518432E+03  0.80356589789E+02 0.  0.
         -6    2    1    2    0  502  0.74507385115E+01  0.60652232646E+02  0.14545241211E+03  0.23203110451E+03  0.17014059610E+03 0.  0.
        -24    2    5    5    0    0 -0.42851162757E+02  0.26434466028E+02  0.14491460372E+03  0.17101048454E+03  0.75560176732E+02 0.  0.
          5    1    3    3  501    0  0.11269533647E+02  0.14223123172E+02 -0.60253685731E+02  0.63102268308E+02  0.47000000000E+01 0. -1.
        -13    1    4    4    0    0 -0.32041101479E+02 -0.23692983374E-01  0.27197548760E+02  0.42027840819E+02  0.00000000000E+00 0.  1.
         14    1    4    4    0    0  0.13320829321E+02 -0.74851662835E+02  0.17462236872E+02  0.78007343497E+02  0.00000000000E+00 0. -1.
         -5    1    5    5    0  502  0.50301901269E+02  0.34217766618E+02  0.53780839447E+00  0.61020619969E+02  0.47000000000E+01 0.  1.
         11    1    6    6    0    0 -0.33743742051E+02  0.52861706000E+02  0.95895385360E+02  0.11458152129E+03  0.00000000000E+00 0. -1.
        -12    1    6    6    0    0 -0.91074207062E+01 -0.26427239972E+02  0.49019218357E+02  0.56428963244E+02  0.00000000000E+00 0.  1.
</event>
<event>
12    1  0.1039610E+000  0.1878804E+03  0.7818608E-02  0.1161560E+00
         21   -1    0    0  503  502  0.00000000000E+00  0.00000000000E+00  0.24985481499E+03  0.24985481499E+03  0.00000000000E+00 0. -1.
         21   -1    0    0  501  503 -0.00000000000E+00 -0.00000000000E+00 -0.42640638254E+03  0.42640638254E+03  0.00000000000E+00 0. -1.
          6    2    1    2  501    0 -0.40688683068E+02 -0.46838438997E+02  0.19042577338E+03  0.26398532058E+03  0.17197926043E+03 0.  0.
         24    2    3    3    0    0  0.22006563157E+02  0.53227078583E+01  0.38941591327E+02  0.91877718910E+02  0.80077760059E+02 0.  0.
         -6    2    1    2    0  502  0.40688683068E+02  0.46838438997E+02 -0.36697734093E+03  0.41227587695E+03  0.17734041181E+03 0.  0.
        -24    2    5    5    0    0  0.88769984774E+02  0.31321760977E+01 -0.24080856084E+03  0.27028045427E+03  0.84692622268E+02 0.  0.
          5    1    3    3  501    0 -0.62695246225E+02 -0.52161146855E+02  0.15148418205E+03  0.17210760167E+03  0.47000000000E+01 0. -1.
        -11    1    4    4    0    0  0.19532006740E+02 -0.15931988767E+02  0.57988933334E+02  0.63230087321E+02  0.00000000000E+00 0.  1.
         12    1    4    4    0    0  0.24745564170E+01  0.21254696626E+02 -0.19047342007E+02  0.28647631589E+02  0.00000000000E+00 0. -1.
         -5    1    5    5    0  502 -0.48081301706E+02  0.43706262899E+02 -0.12616878009E+03  0.14199542268E+03  0.47000000000E+01 0.  1.
         11    1    6    6    0    0 -0.11276120053E+00 -0.22688035089E+02 -0.94246712211E+02  0.96939168626E+02  0.00000000000E+00 0. -1.
        -12    1    6    6    0    0  0.88882745975E+02  0.25820211187E+02 -0.14656184863E+03  0.17334128565E+03  0.00000000000E+00 0.  1.
</event>
<event>
12    1  0.1039610E+000  0.1952334E+03  0.7818608E-02  0.1155237E+00
         21   -1    0    0  501  502  0.00000000000E+00  0.00000000000E+00  0.60319607971E+02  0.60319607971E+02  0.00000000000E+00 0. -1.
         21   -1    0    0  502  503 -0.00000000000E+00 -0.00000000000E+00 -0.63523325414E+03  0.63523325414E+03  0.00000000000E+00 0. -1.
         -6    2    1    2    0  503 -0.54184311540E+02 -0.72480208021E+02 -0.21554686836E+03  0.28657786622E+03  0.16576218138E+03 0.  0.
        -24    2    3    3    0    0 -0.87067632607E+02 -0.13080167250E+02 -0.11678101812E+03  0.16663429273E+03  0.79858111033E+02 0.  0.
          6    2    1    2  501    0  0.54184311540E+02  0.72480208021E+02 -0.35936677781E+03  0.40897499589E+03  0.17299348571E+03 0.  0.
         24    2    5    5    0    0  0.99769967139E+02  0.77044962903E+02 -0.27240485185E+03  0.31057095354E+03  0.79749239628E+02 0.  0.
          5    1    5    5  501    0 -0.45585655599E+02 -0.45647548816E+01 -0.86961925962E+02  0.98404042348E+02  0.47000000000E+01 0. -1.
        -11    1    6    6    0    0  0.21093083356E+02  0.30230747858E+02 -0.19705529722E+02  0.41798614608E+02  0.00000000000E+00 0.  1.
         12    1    6    6    0    0  0.78676883783E+02  0.46814215044E+02 -0.25269932213E+03  0.26877233893E+03  0.00000000000E+00 0. -1.
         -5    1    3    3    0  503  0.32883321068E+02 -0.59400040771E+02 -0.98765850240E+02  0.11994357349E+03  0.47000000000E+01 0.  1.
         13    1    4    4    0    0 -0.91627486165E+00 -0.74440431802E+01  0.10458064436E+02  0.12869516317E+02  0.00000000000E+00 0. -1.
        -14    1    4    4    0    0 -0.86151357746E+02 -0.56361240696E+01 -0.12723908255E+03  0.15376477641E+03  0.00000000000E+00 0.  1.
</event>
<event>
12    1  0.1039610E+000  0.2129936E+03  0.7818608E-02  0.1139281E+00
         21   -1    0    0  503  502  0.00000000000E+00  0.00000000000E+00  0.57931226344E+02  0.57931226344E+02  0.00000000000E+00 0.  1.
         21   -1    0    0  501  503 -0.00000000000E+00 -0.00000000000E+00 -0.79571845086E+03  0.79571845086E+03  0.00000000000E+00 0.  1.
          6    2    1    2  501    0  0.96503232478E+02  0.79886427511E+02 -0.31234159043E+03  0.37786584074E+03  0.17184472440E+03 0.  0.
         24    2    3    3    0    0  0.23563897359E+02  0.46018637210E+01 -0.59526470105E+02  0.10414063690E+03  0.82008762955E+02 0.  0.
         -6    2    1    2    0  502 -0.96503232478E+02 -0.79886427511E+02 -0.42544563408E+03  0.47578383646E+03  0.17225433609E+03 0.  0.
        -24    2    5    5    0    0 -0.38405298349E+01  0.14203427464E+02 -0.16158689868E+03  0.18068588744E+03  0.79502057041E+02 0.  0.
          5    1    3    3  501    0  0.72939335119E+02  0.75284563790E+02 -0.25281512033E+03  0.27372520384E+03  0.47000000000E+01 0. -1.
        -13    1    4    4    0    0 -0.22926972044E+02  0.20694565404E+02 -0.41528610453E+02  0.51754580188E+02  0.00000000000E+00 0.  1.
         14    1    4    4    0    0  0.46490869403E+02 -0.16092701683E+02 -0.17997859653E+02  0.52386056708E+02  0.00000000000E+00 0. -1.
         -5    1    5    5    0  502 -0.92662702643E+02 -0.94089854975E+02 -0.26385873540E+03  0.29509794902E+03  0.47000000000E+01 0.  1.
         13    1    6    6    0    0 -0.23108280791E+02 -0.22260144021E+02 -0.34681121393E+02  0.47247082809E+02  0.00000000000E+00 0. -1.
        -14    1    6    6    0    0  0.19267750956E+02  0.36463571485E+02 -0.12690577728E+03  0.13343880463E+03  0.00000000000E+00 0.  1.
</event>
<event>
12    1  0.1039610E+000  0.2958084E+03  0.7818608E-02  0.1087593E+00
         21   -1    0    0  503  502  0.00000000000E+00  0.00000000000E+00  0.74017085427E+03  0.74017085427E+03  0.00000000000E+00 0.  1.
         21   -1    0    0  501  503 -0.00000000000E+00 -0.00000000000E+00 -0.13652579648E+03  0.13652579648E+03  0.00000000000E+00 0.  1.
          6    2    1    2  501    0  0.85025144684E+02 -0.22429752532E+03  0.13726566994E+03  0.32441745098E+03  0.16990045103E+03 0.  0.
         24    2    3    3    0    0  0.30490221393E+01 -0.17266722339E+03  0.50556049728E+02  0.19431587150E+03  0.73344919270E+02 0.  0.
         -6    2    1    2    0  502 -0.85025144684E+02  0.22429752532E+03  0.46637938784E+03  0.55227919977E+03  0.17310091275E+03 0.  0.
        -24    2    5    5    0    0 -0.12228906278E+03  0.20856280312E+03  0.41322749716E+03  0.48532104449E+03  0.79539261331E+02 0.  0.
          5    1    3    3  501    0  0.81976122544E+02 -0.51630301932E+02  0.86709620214E+02  0.13010157948E+03  0.47000000000E+01 0. -1.
        -13    1    4    4    0    0  0.28089201234E+02 -0.13844225419E+03  0.21452646826E+02  0.14288273873E+03  0.00000000000E+00 0.  1.
         14    1    4    4    0    0 -0.25040179095E+02 -0.34224969200E+02  0.29103402902E+02  0.51433132768E+02  0.00000000000E+00 0. -1.
         -5    1    5    5    0  502  0.37263918099E+02  0.15734722200E+02  0.53151890689E+02  0.66958155281E+02  0.47000000000E+01 0.  1.
         11    1    6    6    0    0 -0.68449516518E+02  0.18044009597E+03  0.29731851739E+03  0.35446052718E+03  0.00000000000E+00 0. -1.
        -12    1    6    6    0    0 -0.53839546264E+02  0.28122707153E+02  0.11590897976E+03  0.13086051731E+03  0.00000000000E+00 0.  1.
</event>
<event>
12    1  0.1039610E+000  0.2673036E+03  0.7818608E-02  0.1102887E+00
         21   -1    0    0  501  502  0.00000000000E+00  0.00000000000E+00  0.18744293212E+03  0.18744293212E+03  0.00000000000E+00 0.  1.
         21   -1    0    0  502  503 -0.00000000000E+00 -0.00000000000E+00 -0.41194611988E+03  0.41194611988E+03  0.00000000000E+00 0. -1.
         -6    2    1    2    0  503  0.19714420878E+03 -0.61146469538E+02 -0.29725026654E+02  0.26895124156E+03  0.16984246622E+03 0.  0.
        -24    2    3    3    0    0  0.10419858258E+03 -0.10345417894E+02 -0.77723069470E+02  0.15256594011E+03  0.79190392547E+02 0.  0.
          6    2    1    2  501    0 -0.19714420878E+03  0.61146469538E+02 -0.19477816111E+03  0.33043781045E+03  0.16925095195E+03 0.  0.
         24    2    5    5    0    0 -0.16276696133E+03  0.65031295558E+02 -0.76873375265E+02  0.20747230496E+03  0.80081760704E+02 0.  0.
          5    1    5    5  501    0 -0.34377247447E+02 -0.38848260200E+01 -0.11790478584E+03  0.12296550549E+03  0.47000000000E+01 0. -1.
        -13    1    6    6    0    0 -0.46471247767E+02  0.24389588123E+01  0.12278942062E+02  0.48127931674E+02  0.00000000000E+00 0.  1.
         14    1    6    6    0    0 -0.11629571357E+03  0.62592336746E+02 -0.89152317327E+02  0.15934437329E+03  0.00000000000E+00 0. -1.
         -5    1    3    3    0  503  0.92945626198E+02 -0.50801051644E+02  0.47998042817E+02  0.11638530144E+03  0.47000000000E+01 0.  1.
         13    1    4    4    0    0  0.42683752221E+02 -0.37158190099E+02 -0.10453615896E+02  0.57549212683E+02  0.00000000000E+00 0. -1.
        -14    1    4    4    0    0  0.61514830361E+02  0.26812772205E+02 -0.67269453575E+02  0.95016727432E+02  0.00000000000E+00 0.  1.
</event>
<event>
12    1  0.1039610E+000  0.2443051E+03  0.7818608E-02  0.1116969E+00
         21   -1    0    0  503  502  0.00000000000E+00  0.00000000000E+00  0.32491213621E+03  0.32491213621E+03  0.00000000000E+00 0. -1.
         21   -1    0    0  501  503 -0.00000000000E+00 -0.00000000000E+00 -0.18500030029E+03  0.18500030029E+03  0.00000000000E+00 0. -1.
          6    2    1    2  501    0 -0.16371342391E+03 -0.60393897105E+02  0.48095135517E+02  0.24892337621E+03  0.17088065189E+03 0.  0.
         24    2    3    3    0    0 -0.10075260984E+03 -0.33290649050E+02 -0.38634234190E+02  0.13827653381E+03  0.79802506529E+02 0.  0.
         -6    2    1    2    0  502  0.16371342391E+03  0.60393897105E+02  0.91816700401E+02  0.26098906028E+03  0.17098384467E+03 0.  0.
        -24    2    5    5    0    0  0.85962130800E+02 -0.72285615521E+01 -0.75792169883E+01  0.11774207467E+03  0.79774755297E+02 0.  0.
          5    1    3    3  501    0 -0.62960814075E+02 -0.27103248055E+02  0.86729369707E+02  0.11064684240E+03  0.47000000000E+01 0. -1.
        -11    1    4    4    0    0 -0.17857028923E+02  0.25446028721E+02 -0.69385988231E+01  0.31851499388E+02  0.00000000000E+00 0.  1.
         12    1    4    4    0    0 -0.82895580913E+02 -0.58736677771E+02 -0.31695635367E+02  0.10642503442E+03  0.00000000000E+00 0. -1.
         -5    1    5    5    0  502  0.77751293110E+02  0.67622458657E+02  0.99395917389E+02  0.14324698562E+03  0.47000000000E+01 0.  1.
         13    1    6    6    0    0  0.34755393357E+02 -0.40113361393E+02  0.10814958236E+02  0.54166248266E+02  0.00000000000E+00 0. -1.
        -14    1    6    6    0    0  0.51206737443E+02  0.32884799841E+02 -0.18394175224E+02  0.63575826399E+02  0.00000000000E+00 0.  1.
</event>
<event>
12    1  0.1039610E+000  0.1763304E+03  0.7818608E-02  0.1171745E+00
         21   -1    0    0  503  502  0.00000000000E+00  0.00000000000E+00  0.88575352035E+03  0.88575352035E+03  0.00000000000E+00 0.  1.
         21   -1    0    0  501  503 -0.00000000000E+00 -0.00000000000E+00 -0.34843604083E+02  0.34843604083E+02  0.00000000000E+00 0.  1.
          6    2    1    2  501    0 -0.18845908803E+02 -0.31856256164E+02  0.41793704534E+03  0.45361193412E+03  0.17240192449E+03 0.  0.
         24    2    3    3    0    0  0.20913295202E+02 -0.74188491867E+02  0.20318009414E+03  0.23109125964E+03  0.78611203924E+02 0.  0.
         -6    2    1    2    0  502  0.18845908803E+02  0.31856256164E+02  0.43297287092E+03  0.46698519031E+03  0.17099611599E+03 0.  0.
        -24    2    5    5    0    0  0.69743094303E+02  0.44343412761E+02  0.36693848541E+03  0.38255129522E+03  0.69794010756E+02 0.  0.
          5    1    3    3  501    0 -0.39759204005E+02  0.42332235703E+02  0.21475695120E+03  0.22252067448E+03  0.47000000000E+01 0. -1.
        -13    1    4    4    0    0  0.32838291325E+02 -0.31258551437E+02  0.16888773898E+03  0.17486714612E+03  0.00000000000E+00 0.  1.
         14    1    4    4    0    0 -0.11924996123E+02 -0.42929940430E+02  0.34292355165E+02  0.56224113516E+02  0.00000000000E+00 0. -1.
         -5    1    5    5    0  502 -0.50897185500E+02 -0.12487156597E+02  0.66034385509E+02  0.84433895097E+02  0.47000000000E+01 0.  1.
         13    1    6    6    0    0 -0.63569222072E+01  0.74898710001E+01  0.14046943494E+03  0.14081253772E+03  0.00000000000E+00 0. -1.
        -14    1    6    6    0    0  0.76100016510E+02  0.36853541761E+02  0.22646905047E+03  0.24173875749E+03  0.00000000000E+00 0.  1.
</event>
<event>
12    1  0.1039610E+000  0.2002403E+03  0.7818608E-02  0.1149577E+00
         21   -1    0    0  503  502  0.00000000000E+00  0.00000000000E+00  0.57294132329E+03  0.57294132329E+03  0.00000000000E+00 0. -1.
         21   -1    0    0  501  503 -0.00000000000E+00 -0.00000000000E+00 -0.12945796934E+03  0.12945796934E+03  0.00000000000E+00 0. -1.
          6    2    1    2  501    0  0.21988609224E+02  0.98741569997E+02  0.45997702805E+03  0.50167224664E+03  0.17280850711E+03 0.  0.
         24    2    3    3    0    0  0.66302626635E+02  0.92082038483E+02  0.23382087443E+03  0.27107134178E+03  0.77021626223E+02 0.  0.
         -6    2    1    2    0  502 -0.21988609224E+02 -0.98741569997E+02 -0.16493674101E+02  0.20072704600E+03  0.17258594708E+03 0.  0.
        -24    2    5    5    0    0  0.55223073496E+02 -0.57638041732E+02  0.13477541270E+01  0.11133157326E+03  0.77596205209E+02 0.  0.
          5    1    3    3  501    0 -0.44314017411E+02  0.66595315141E+01  0.22615615362E+03  0.23060090486E+03  0.47000000000E+01 0. -1.
        -11    1    4    4    0    0  0.38546748652E+02  0.16895514570E+02  0.28952168511E+02  0.51083640294E+02  0.00000000000E+00 0.  1.
         12    1    4    4    0    0  0.27755877984E+02  0.75186523913E+02  0.20486870592E+03  0.21998770149E+03  0.00000000000E+00 0. -1.
         -5    1    5    5    0  502 -0.77211682720E+02 -0.41103528265E+02 -0.17841428228E+02  0.89395472735E+02  0.47000000000E+01 0.  1.
         11    1    6    6    0    0  0.26481796289E+02 -0.26253463561E+02 -0.38094591969E+02  0.53307858903E+02  0.00000000000E+00 0. -1.
        -12    1    6    6    0    0  0.28741277207E+02 -0.31384578172E+02  0.39442346096E+02  0.58023714359E+02  0.00000000000E+00 0.  1.
</event>
<event>
12    1  0.1039610E+000  0.2164840E+03  0.7818608E-02  0.1137411E+00
         21   -1    0    0  501  502  0.00000000000E+00  0.00000000000E+00  0.97797832194E+02  0.97797832194E+02  0.00000000000E+00 0. -1.
         21   -1    0    0  502  503 -0.00000000000E+00 -0.00000000000E+00 -0.65283337034E+03  0.65283337034E+03  0.00000000000E+00 0. -1.
         -6    2    1    2    0  503 -0.46514578959E+02 -0.11782391818E+03 -0.76315520828E+02  0.22523785238E+03  0.16988805041E+03 0.  0.
        -24    2    3    3    0    0  0.96436183718E+01 -0.53765311191E+02 -0.97714552937E+02  0.13727617418E+03  0.79453798387E+02 0.  0.
          6    2    1    2  501    0  0.46514578959E+02  0.11782391818E+03 -0.47872001732E+03  0.52539335016E+03  0.17555408187E+03 0.  0.
         24    2    5    5    0    0 -0.39297573638E+02  0.70448817691E+02 -0.30935163504E+03  0.32964896431E+03  0.80390735505E+02 0.  0.
          5    1    5    5  501    0  0.85812152597E+02  0.47375100486E+02 -0.16936838228E+03  0.19574438586E+03  0.47000000000E+01 0. -1.
        -13    1    6    6    0    0  0.85698435305E+01 -0.11365076207E+01 -0.13414396085E+03  0.13442223068E+03  0.00000000000E+00 0.  1.
         14    1    6    6    0    0 -0.47867417169E+02  0.71585325312E+02 -0.17520767419E+03  0.19522673363E+03  0.00000000000E+00 0. -1.
         -5    1    3    3    0  503 -0.56158197330E+02 -0.64058606985E+02  0.21399032109E+02  0.87961678198E+02  0.47000000000E+01 0.  1.
         13    1    4    4    0    0  0.25108931073E+02  0.82658466123E+01 -0.89957277396E+01  0.27923211804E+02  0.00000000000E+00 0. -1.
        -14    1    4    4    0    0 -0.15465312702E+02 -0.62031157804E+02 -0.88718825197E+02  0.10935296237E+03  0.00000000000E+00 0.  1.
</event>
<event>
12    1  0.1039610E+000  0.3701932E+03  0.7818608E-02  0.1054639E+00
         21   -1    0    0  503  502  0.00000000000E+00  0.00000000000E+00  0.13022050016E+04  0.13022050016E+04  0.00000000000E+00 0.  1.
         21   -1    0    0  501  503 -0.00000000000E+00 -0.00000000000E+00 -0.13453182426E+03  0.13453182426E+03  0.00000000000E+00 0.  1.
          6    2    1    2  501    0  0.29887993066E+03  0.13417203304E+03  0.91925011898E+03  0.99091507442E+03  0.17193183556E+03 0.  0.
         24    2    3    3    0    0  0.19943821432E+03  0.71961106419E+02  0.76077447720E+03  0.79369572097E+03  0.78873887706E+02 0.  0.
         -6    2    1    2    0  502 -0.29887993066E+03 -0.13417203304E+03  0.24842305832E+03  0.44582175140E+03  0.17237073625E+03 0.  0.
        -24    2    5    5    0    0 -0.27127666995E+03 -0.14666391326E+03  0.16930686832E+03  0.36097218692E+03  0.80837917791E+02 0.  0.
          5    1    3    3  501    0  0.99441716334E+02  0.62210926625E+02  0.15847564178E+03  0.19721935345E+03  0.47000000000E+01 0. -1.
        -13    1    4    4    0    0  0.75343625788E+02  0.43914971136E+02  0.44103952209E+03  0.44957874359E+03  0.00000000000E+00 0.  1.
         14    1    4    4    0    0  0.12409458854E+03  0.28046135283E+02  0.31973495511E+03  0.34411697739E+03  0.00000000000E+00 0. -1.
         -5    1    5    5    0  502 -0.27603260705E+02  0.12491880220E+02  0.79116189997E+02  0.84849564481E+02  0.47000000000E+01 0.  1.
         11    1    6    6    0    0 -0.13609928675E+03 -0.63180898495E+02  0.37822396783E+02  0.15474293356E+03  0.00000000000E+00 0. -1.
        -12    1    6    6    0    0 -0.13517738320E+03 -0.83483014769E+02  0.13148447153E+03  0.20622925335E+03  0.00000000000E+00 0.  1.
</event>
<event>
12    1  0.1039610E+000  0.2287662E+03  0.7818608E-02  0.1127556E+00
         21   -1    0    0  501  502  0.00000000000E+00  0.00000000000E+00  0.49115844740E+02  0.49115844740E+02  0.00000000000E+00 0.  1.
         21   -1    0    0  502  503 -0.00000000000E+00 -0.00000000000E+00 -0.10760449930E+04  0.10760449930E+04  0.00000000000E+00 0.  1.
         -6    2    1    2    0  503  0.14829356482E+03 -0.23147111489E+02 -0.45507648391E+03  0.50934133257E+03  0.17264766639E+03 0.  0.
        -24    2    3    3    0    0  0.17898795108E+03 -0.19572539409E+02 -0.39950832940E+03  0.44558529200E+03  0.80743892976E+02 0.  0.
          6    2    1    2  501    0 -0.14829356482E+03  0.23147111489E+02 -0.57185266430E+03  0.61581950513E+03  0.17231199346E+03 0.  0.
         24    2    5    5    0    0 -0.14095758401E+03  0.10596522068E+02 -0.57750146099E+03  0.59953046547E+03  0.77120132319E+02 0.  0.
          5    1    5    5  501    0 -0.73359808102E+01  0.12550589420E+02  0.56487966832E+01  0.16289039665E+02  0.47000000000E+01 0. -1.
        -13    1    6    6    0    0 -0.25399856456E+02 -0.29163293796E+02 -0.14993606178E+03  0.15484338228E+03  0.00000000000E+00 0.  1.
         14    1    6    6    0    0 -0.11555772756E+03  0.39759815864E+02 -0.42756539920E+03  0.44468708318E+03  0.00000000000E+00 0. -1.
         -5    1    3    3    0  503 -0.30694386256E+02 -0.35745720790E+01 -0.55568154507E+02  0.63756040565E+02  0.47000000000E+01 0.  1.
         11    1    4    4    0    0  0.77259631793E+02 -0.19890087634E+02 -0.26618684753E+03  0.27788505554E+03  0.00000000000E+00 0. -1.
        -12    1    4    4    0    0  0.10172831928E+03  0.31754822462E+00 -0.13332148187E+03  0.16770023646E+03  0.00000000000E+00 0.  1.
</event>
<event>
12    1  0.1039610E+000  0.1932505E+03  0.7818608E-02  0.1155689E+00
         21   -1    0    0  501  502  0.00000000000E+00  0.00000000000E+00  0.16891016856E+04  0.16891016856E+04  0.00000000000E+00 0.  1.
         21   -1    0    0  502  503 -0.00000000000E+00 -0.00000000000E+00 -0.31459442485E+02  0.31459442485E+02  0.00000000000E+00 0.  1.
         -6    2    1    2    0  503 -0.81882584047E+02 -0.28658834541E+02  0.35731330230E+03  0.40595049931E+03  0.17203757010E+03 0.  0.
        -24    2    3    3    0    0 -0.45683117305E+02 -0.82112533012E+02  0.19116451141E+03  0.22763838535E+03  0.80286666249E+02 0.  0.
          6    2    1    2  501    0  0.81882584047E+02  0.28658834541E+02  0.13003289408E+04  0.13146106288E+04  0.17268371259E+03 0.  0.
         24    2    5    5    0    0  0.79983239719E+02  0.63819971030E+02  0.62440225463E+03  0.63775105092E+03  0.79861880951E+02 0.  0.
          5    1    5    5  501    0  0.18993443280E+01 -0.35161136489E+02  0.67592668622E+03  0.67685957788E+03  0.47000000000E+01 0. -1.
        -13    1    6    6    0    0  0.10637381105E+02  0.56198218334E+02  0.34867602335E+03  0.35333604809E+03  0.00000000000E+00 0.  1.
         14    1    6    6    0    0  0.69345858613E+02  0.76217526966E+01  0.27572623128E+03  0.28441500283E+03  0.00000000000E+00 0. -1.
         -5    1    3    3    0  503 -0.36199466741E+02  0.53453698471E+02  0.16614879088E+03  0.17831211396E+03  0.47000000000E+01 0.  1.
         11    1    4    4    0    0 -0.36971990439E+02 -0.64223686586E+02  0.19387724627E+03  0.20755721287E+03  0.00000000000E+00 0. -1.
        -12    1    4    4    0    0 -0.87111268666E+01 -0.17888846425E+02 -0.27127348536E+01  0.20081172478E+02  0.00000000000E+00 0.  1.
</event>
<event>
12    1  0.1039610E+000  0.1994701E+03  0.7818608E-02  0.1150428E+00
         21   -1    0    0  501  502  0.00000000000E+00  0.00000000000E+00  0.48041454055E+03  0.48041454055E+03  0.00000000000E+00 0.  1.
         21   -1    0    0  502  503 -0.00000000000E+00 -0.00000000000E+00 -0.82387232790E+02  0.82387232790E+02  0.00000000000E+00 0.  1.
         -6    2    1    2    0  503 -0.52802557830E+02 -0.83336575725E+02  0.20553184718E+03  0.28641168386E+03  0.17336440662E+03 0.  0.
        -24    2    3    3    0    0  0.57949525338E+01 -0.30378361192E+02  0.18685013955E+03  0.20511385543E+03  0.78754636289E+02 0.  0.
          6    2    1    2  501    0  0.52802557830E+02  0.83336575725E+02  0.19249546058E+03  0.27639008948E+03  0.17205779334E+03 0.  0.
         24    2    5    5    0    0  0.47154930530E+02  0.79606502497E+02  0.49019751697E+02  0.13267795297E+03  0.81484479710E+02 0.  0.
          5    1    5    5  501    0  0.56476273000E+01  0.37300732276E+01  0.14347570888E+03  0.14371213651E+03  0.47000000000E+01 0. -1.
        -11    1    6    6    0    0 -0.18721447909E+02  0.13978372746E+02  0.29554877474E+02  0.37674637343E+02  0.00000000000E+00 0.  1.
         12    1    6    6    0    0  0.65876378439E+02  0.65628129752E+02  0.19464874223E+02  0.95003315623E+02  0.00000000000E+00 0. -1.
         -5    1    3    3    0  503 -0.58597510364E+02 -0.52958214533E+02  0.18681707626E+02  0.81297828429E+02  0.47000000000E+01 0.  1.
         13    1    4    4    0    0 -0.26291783767E+02 -0.55956808328E+01  0.14254818422E+03  0.14506051965E+03  0.00000000000E+00 0. -1.
        -14    1    4    4    0    0  0.32086736301E+02 -0.24782680359E+02  0.44301955331E+02  0.60053335780E+02  0.00000000000E+00 0.  1.
</event>
<event>
12    1  0.1039610E+000  0.1804970E+03  0.7818608E-02  0.1167374E+00
         21   -1    0    0  501  502  0.00000000000E+00  0.00000000000E+00  0.21118252685E+02  0.21118252685E+02  0.00000000000E+00 0. -1.
         21   -1    0    0  502  503 -0.00000000000E+00 -0.00000000000E+00 -0.15667416050E+04  0.15667416050E+04  0.00000000000E+00 0. -1.
         -6    2    1    2    0  503  0.54370188882E+02 -0.13315761191E+02 -0.87525153243E+03  0.89366908257E+03  0.17159766075E+03 0.  0.
        -24    2    3    3    0    0  0.64586916339E+02  0.12200383915E+02 -0.28714691586E+03  0.30490377685E+03  0.78693346097E+02 0.  0.
          6    2    1    2  501    0 -0.54370188882E+02  0.13315761191E+02 -0.67037181989E+03  0.69419077512E+03  0.17137394327E+03 0.  0.
         24    2    5    5    0    0  0.30048652218E+02 -0.25370721228E+02 -0.28835935879E+03  0.30102567610E+03  0.76933366464E+02 0.  0.
          5    1    5    5  501    0 -0.84418841100E+02  0.38686482418E+02 -0.38201246110E+03  0.39316509902E+03  0.47000000000E+01 0. -1.
        -11    1    6    6    0    0  0.38866967684E+02  0.10478550021E+02 -0.81517687406E+02  0.90915205260E+02  0.00000000000E+00 0.  1.
         12    1    6    6    0    0 -0.88183154657E+01 -0.35849271249E+02 -0.20684167138E+03  0.21011047084E+03  0.00000000000E+00 0. -1.
         -5    1    3    3    0  503 -0.10216727457E+02 -0.25516145105E+02 -0.58810461657E+03  0.58876530571E+03  0.47000000000E+01 0.  1.
         11    1    4    4    0    0  0.25471518917E+02 -0.20166158959E+02 -0.35235400357E+02  0.47927087137E+02  0.00000000000E+00 0. -1.
        -12    1    4    4    0    0  0.39115397423E+02  0.32366542874E+02 -0.25191151551E+03  0.25697668972E+03  0.00000000000E+00 0.  1.
</event>
<event>
12    1  0.1039610E+000  0.2619685E+03  0.7818608E-02  0.1106028E+00
         21   -1    0    0  501  502  0.00000000000E+00  0.00000000000E+00  0.79693709971E+03  0.79693709971E+03  0.00000000000E+00 0.  1.
         21   -1    0    0  502  503 -0.00000000000E+00 -0.00000000000E+00 -0.10854873119E+03  0.10854873119E+03  0.00000000000E+00 0. -1.
         -6    2    1    2    0  503  0.18373570879E+03  0.72957987546E+02  0.55086575832E+03  0.60998408603E+03  0.17188898421E+03 0.  0.
        -24    2    3    3    0    0  0.13637784855E+03  0.11225658424E+02  0.23025646276E+03  0.28003551764E+03  0.81712419596E+02 0.  0.
          6    2    1    2  501    0 -0.18373570879E+03 -0.72957987546E+02  0.13752261021E+03  0.29550174486E+03  0.17125166939E+03 0.  0.
         24    2    5    5    0    0 -0.13633285332E+03  0.17313418723E+02  0.92827536951E+02  0.18407599797E+03  0.79878783492E+02 0.  0.
          5    1    5    5  501    0 -0.47402855476E+02 -0.90271406269E+02  0.44695073256E+02  0.11142574689E+03  0.47000000000E+01 0. -1.
        -13    1    6    6    0    0 -0.41765739161E+02  0.90992548202E+01  0.76679527086E+02  0.87789084060E+02  0.00000000000E+00 0.  1.
         14    1    6    6    0    0 -0.94567114155E+02  0.82141639027E+01  0.16148009865E+02  0.96286913912E+02  0.00000000000E+00 0. -1.
         -5    1    3    3    0  503  0.47357860246E+02  0.61732329121E+02  0.32060929556E+03  0.32994856840E+03  0.47000000000E+01 0.  1.
         11    1    4    4    0    0  0.73945192249E+01  0.21664918400E+02  0.10902658216E+02  0.25355779617E+02  0.00000000000E+00 0. -1.
        -12    1    4    4    0    0  0.12898332932E+03 -0.10439259975E+02  0.21935380454E+03  0.25467973802E+03  0.00000000000E+00 0.  1.
</event>
<event>
12    1  0.1039610E+000  0.2039279E+03  0.7818608E-02  0.1146570E+00
         21   -1    0    0  503  502  0.00000000000E+00  0.00000000000E+00  0.39634190300E+03  0.39634190300E+03  0.00000000000E+00 0.  1.
         21   -1    0    0  501  503 -0.00000000000E+00 -0.00000000000E+00 -0.12383297116E+03  0.12383297116E+03  0.00000000000E+00 0.  1.
          6    2    1    2  501    0  0.10798972903E+03 -0.13080968724E+02  0.23871363500E+03  0.31395984686E+03  0.17249258705E+03 0.  0.
         24    2    3    3    0    0  0.31786656846E+02  0.39920221661E+02  0.18449306579E+03  0.20635875710E+03  0.77085858993E+02 0.  0.
         -6    2    1    2    0  502 -0.10798972903E+03  0.13080968724E+02  0.33795296848E+02  0.20621502730E+03  0.17190003512E+03 0.  0.
        -24    2    5    5    0    0 -0.14241764270E+01  0.23976325922E+02 -0.21232449882E+02  0.85695034265E+02  0.79472822314E+02 0.  0.
          5    1    3    3  501    0  0.76203072185E+02 -0.53001190385E+02  0.54220569214E+02  0.10760108976E+03  0.47000000000E+01 0. -1.
        -11    1    4    4    0    0 -0.16473178781E+02  0.35753527914E+02  0.11577100308E+03  0.12228084696E+03  0.00000000000E+00 0.  1.
         12    1    4    4    0    0  0.48259835627E+02  0.41666937466E+01  0.68722062703E+02  0.84077910141E+02  0.00000000000E+00 0. -1.
         -5    1    5    5    0  502 -0.10656555260E+03 -0.10895357197E+02  0.55027746730E+02  0.12051999303E+03  0.47000000000E+01 0.  1.
         13    1    6    6    0    0 -0.34226083280E+02 -0.56766626766E-01  0.85659221198E+01  0.35281766125E+02  0.00000000000E+00 0. -1.
        -14    1    6    6    0    0  0.32801906853E+02  0.24033092548E+02 -0.29798372002E+02  0.50413268140E+02  0.00000000000E+00 0.  1.
</event>
<event>
12    1  0.1039610E+000  0.2899464E+03  0.7818608E-02  0.1090397E+00
         21   -1    0    0  503  502  0.00000000000E+00  0.00000000000E+00  0.57494278578E+03  0.57494278578E+03  0.00000000000E+00 0. -1.
         21   -1    0    0  501  503 -0.00000000000E+00 -0.00000000000E+00 -0.18957919588E+03  0.18957919588E+03  0.00000000000E+00 0. -1.
          6    2    1    2  501    0 -0.21629536868E+03 -0.87629858029E+02  0.96668050754E+01  0.28995165040E+03  0.17180172850E+03 0.  0.
         24    2    3    3    0    0 -0.80065007565E+02 -0.65970704430E+02 -0.49673567450E+02  0.13971450440E+03  0.79310403844E+02 0.  0.
         -6    2    1    2    0  502  0.21629536868E+03  0.87629858029E+02  0.37569678483E+03  0.47457033127E+03  0.17206465837E+03 0.  0.
        -24    2    5    5    0    0  0.78256459636E+02  0.90828858847E+02  0.11228030075E+03  0.17712233900E+03  0.66268408490E+02 0.  0.
          5    1    3    3  501    0 -0.13623036112E+03 -0.21659153599E+02  0.59340372525E+02  0.15023714599E+03  0.47000000000E+01 0. -1.
        -11    1    4    4    0    0 -0.46122537863E+02 -0.12083376442E+02  0.13965107694E+02  0.49682197194E+02  0.00000000000E+00 0.  1.
         12    1    4    4    0    0 -0.33942469702E+02 -0.53887327988E+02 -0.63638675144E+02  0.90032307208E+02  0.00000000000E+00 0. -1.
         -5    1    5    5    0  502  0.13803890905E+03 -0.31990008185E+01  0.26341648408E+03  0.29744799227E+03  0.47000000000E+01 0.  1.
         11    1    6    6    0    0  0.24105924231E+02  0.69804414561E+02  0.38697712784E+02  0.83374245724E+02  0.00000000000E+00 0. -1.
        -12    1    6    6    0    0  0.54150535405E+02  0.21024444286E+02  0.73582587961E+02  0.93748093278E+02  0.00000000000E+00 0.  1.
</event>
<event>
12    1  0.1039610E+000  0.2862096E+03  0.7818608E-02  0.1092586E+00
         21   -1    0    0  503  502  0.00000000000E+00  0.00000000000E+00  0.84636206229E+03  0.84636206229E+03  0.00000000000E+00 0.  1.
         21   -1    0    0  501  503 -0.00000000000E+00 -0.00000000000E+00 -0.97366690329E+02  0.97366690329E+02  0.00000000000E+00 0.  1.
          6    2    1    2  501    0 -0.18740062946E+03 -0.12785513207E+03  0.42784746458E+03  0.51475176571E+03  0.17449927404E+03 0.  0.
         24    2    3    3    0    0 -0.19070224465E+02 -0.13069562505E+02  0.10806206262E+03  0.13554780274E+03  0.78494015859E+02 0.  0.
         -6    2    1    2    0  502  0.18740062946E+03  0.12785513207E+03  0.32114790739E+03  0.42897698691E+03  0.17152068726E+03 0.  0.
        -24    2    5    5    0    0  0.19353322896E+03  0.11430030792E+03  0.21142709914E+03  0.31815240571E+03  0.77458788438E+02 0.  0.
          5    1    3    3  501    0 -0.16833040500E+03 -0.11478556957E+03  0.31978540196E+03  0.37920396297E+03  0.47000000000E+01 0. -1.
        -13    1    4    4    0    0 -0.40828893370E+02 -0.11625933439E+02  0.24132730649E+02  0.48831849758E+02  0.00000000000E+00 0.  1.
         14    1    4    4    0    0  0.21758668905E+02 -0.14436290655E+01  0.83929331966E+02  0.86715952982E+02  0.00000000000E+00 0. -1.
         -5    1    5    5    0  502 -0.61325995012E+01  0.13554824151E+02  0.10972080825E+03  0.11082458120E+03  0.47000000000E+01 0.  1.
         13    1    6    6    0    0  0.49960864494E+02  0.68346502723E+02  0.97960258919E+02  0.12947410839E+03  0.00000000000E+00 0. -1.
        -14    1    6    6    0    0  0.14357236447E+03  0.45953805199E+02  0.11346684022E+03  0.18867829732E+03  0.00000000000E+00 0.  1.
</event>
<event>
12    1  0.1039610E+000  0.3198404E+03  0.7818608E-02  0.1075829E+00
         21   -1    0    0  501  502  0.00000000000E+00  0.00000000000E+00  0.30182581153E+03  0.30182581153E+03  0.00000000000E+00 0.  1.
         21   -1    0    0  502  503 -0.00000000000E+00 -0.00000000000E+00 -0.44419359623E+03  0.44419359623E+03  0.00000000000E+00 0.  1.
         -6    2    1    2    0  503  0.20330138390E+03  0.17649568875E+03 -0.25368086577E+03  0.40823015973E+03  0.17267223520E+03 0.  0.
        -24    2    3    3    0    0  0.10347567855E+03  0.48633049583E+02 -0.18608118696E+03  0.23242961217E+03  0.79529409109E+02 0.  0.
          6    2    1    2  501    0 -0.20330138390E+03 -0.17649568875E+03  0.11131308108E+03  0.33778924803E+03  0.17096430395E+03 0.  0.
         24    2    5    5    0    0 -0.13777188883E+03 -0.38941600479E+02  0.58266396258E+02  0.17638515052E+03  0.84965915468E+02 0.  0.
          5    1    5    5  501    0 -0.65529495067E+02 -0.13755408827E+03  0.53046684817E+02  0.16140409751E+03  0.47000000000E+01 0. -1.
        -11    1    6    6    0    0 -0.14051918181E+03 -0.39694478906E+02  0.31384652151E+02  0.14935289921E+03  0.00000000000E+00 0.  1.
         12    1    6    6    0    0  0.27472929783E+01  0.75287842700E+00  0.26881744108E+02  0.27032251310E+02  0.00000000000E+00 0. -1.
         -5    1    3    3    0  503  0.99825705349E+02  0.12786263917E+03 -0.67599678815E+02  0.17580054755E+03  0.47000000000E+01 0.  1.
         13    1    4    4    0    0  0.18299172005E+02  0.16618118274E+02 -0.11314001182E+03  0.11580882447E+03  0.00000000000E+00 0. -1.
        -14    1    4    4    0    0  0.85176506543E+02  0.32014931309E+02 -0.72941175134E+02  0.11662078770E+03  0.00000000000E+00 0.  1.
</event>
<event>
12    1  0.1039610E+000  0.2129690E+03  0.7818608E-02  0.1140727E+00
         21   -1    0    0  501  502  0.00000000000E+00  0.00000000000E+00  0.12207381559E+03  0.12207381559E+03  0.00000000000E+00 0. -1.
         21   -1    0    0  502  503 -0.00000000000E+00 -0.00000000000E+00 -0.35853581533E+03  0.35853581533E+03  0.00000000000E+00 0. -1.
         -6    2    1    2    0  503  0.58679718870E+02 -0.95946869793E+02 -0.12024837751E+03  0.24457202901E+03  0.18084992079E+03 0.  0.
        -24    2    3    3    0    0  0.79594878544E+01 -0.12844941411E+03 -0.97457889063E+02  0.17999297989E+03  0.79604191091E+02 0.  0.
          6    2    1    2  501    0 -0.58679718870E+02  0.95946869793E+02 -0.11621362224E+03  0.23603760191E+03  0.17192740413E+03 0.  0.
         24    2    5    5    0    0 -0.34292604931E+02  0.34039076653E+02  0.93495500277E+01  0.93856356991E+02  0.79918459504E+02 0.  0.
          5    1    5    5  501    0 -0.24387113939E+02  0.61907793140E+02 -0.12556317226E+03  0.14218124492E+03  0.47000000000E+01 0. -1.
        -11    1    6    6    0    0 -0.13714867190E+02  0.50799716070E+02 -0.18128823465E+02  0.55653957407E+02  0.00000000000E+00 0.  1.
         12    1    6    6    0    0 -0.20577737741E+02 -0.16760639417E+02  0.27478373493E+02  0.38202399584E+02  0.00000000000E+00 0. -1.
         -5    1    3    3    0  503  0.50720231015E+02  0.32502544313E+02 -0.22790488444E+02  0.64579049115E+02  0.47000000000E+01 0.  1.
         11    1    4    4    0    0  0.41549193397E+02 -0.57796861609E+02 -0.60738026355E+02  0.93573075878E+02  0.00000000000E+00 0. -1.
        -12    1    4    4    0    0 -0.33589705542E+02 -0.70652552497E+02 -0.36719862708E+02  0.86419904015E+02  0.00000000000E+00 0.  1.
</event>
<event>
12    1  0.1039610E+000  0.1847290E+03  0.7818608E-02  0.1163978E+00
         21   -1    0    0  503  502  0.00000000000E+00  0.00000000000E+00  0.11966339966E+04  0.11966339966E+04  0.00000000000E+00 0.  1.
         21   -1    0    0  501  503 -0.00000000000E+00 -0.00000000000E+00 -0.28581482422E+02  0.28581482422E+02  0.00000000000E+00 0.  1.
          6    2    1    2  501    0  0.20829233610E+02  0.59988805979E+02  0.66092118749E+03  0.68548685015E+03  0.17041975188E+03 0.  0.
         24    2    3    3    0    0  0.30600308851E+02 -0.32707477375E+02  0.27391434517E+03  0.28738578149E+03  0.74534293691E+02 0.  0.
         -6    2    1    2    0  502 -0.20829233610E+02 -0.59988805979E+02  0.50713132669E+03  0.53972862888E+03  0.17347131321E+03 0.  0.
        -24    2    5    5    0    0  0.34608397769E+02 -0.83958035690E+02  0.31117660985E+03  0.33462329984E+03  0.83037204492E+02 0.  0.
          5    1    3    3  501    0 -0.97710752411E+01  0.92696283354E+02  0.38700684232E+03  0.39810106865E+03  0.47000000000E+01 0. -1.
        -13    1    4    4    0    0  0.38897325135E+00 -0.36539781352E+02  0.52964202819E+02  0.64346823556E+02  0.00000000000E+00 0.  1.
         14    1    4    4    0    0  0.30211335600E+02  0.38323039772E+01  0.22095014235E+03  0.22303895794E+03  0.00000000000E+00 0. -1.
         -5    1    5    5    0  502 -0.55437631379E+02  0.23969229711E+02  0.19595471684E+03  0.20510532904E+03  0.47000000000E+01 0.  1.
         11    1    6    6    0    0  0.29321387916E+01 -0.71598580162E+02  0.11483257345E+03  0.13535683967E+03  0.00000000000E+00 0. -1.
        -12    1    6    6    0    0  0.31676258977E+02 -0.12359455528E+02  0.19634403639E+03  0.19926646017E+03  0.00000000000E+00 0.  1.
</event>
<event>
12    1  0.1039610E+000  0.2382859E+03  0.7818608E-02  0.1121359E+00
         21   -1    0    0  503  502  0.00000000000E+00  0.00000000000E+00  0.37198193394E+03  0.37198193394E+03  0.00000000000E+00 0. -1.
         21   -1    0    0  501  503 -0.00000000000E+00 -0.00000000000E+00 -0.15114204861E+03  0.15114204861E+03  0.00000000000E+00 0. -1.
          6    2    1    2  501    0  0.10304617004E+03  0.12789906064E+03  0.10491665353E+03  0.26036063432E+03  0.17263682356E+03 0.  0.
         24    2    3    3    0    0  0.20308164968E+02  0.12753460114E+03  0.45025366451E+02  0.15811208137E+03  0.79338834117E+02 0.  0.
         -6    2    1    2    0  502 -0.10304617004E+03 -0.12789906064E+03  0.11592323181E+03  0.26276334822E+03  0.16920312830E+03 0.  0.
        -24    2    5    5    0    0 -0.44851738915E+02 -0.83764628123E+02  0.13855472365E+03  0.18615581354E+03  0.80177204118E+02 0.  0.
          5    1    3    3  501    0  0.82738005070E+02  0.36445949744E+00  0.59891287075E+02  0.10224855295E+03  0.47000000000E+01 0. -1.
        -13    1    4    4    0    0  0.12994899587E+02  0.12203564034E+03  0.11388410882E+02  0.12325283295E+03  0.00000000000E+00 0.  1.
         14    1    4    4    0    0  0.73132653812E+01  0.54989608005E+01  0.33636955569E+02  0.34859248419E+02  0.00000000000E+00 0. -1.
         -5    1    5    5    0  502 -0.58194431122E+02 -0.44134432512E+02 -0.22631491848E+02  0.76607534682E+02  0.47000000000E+01 0.  1.
         11    1    6    6    0    0  0.50929877221E+01  0.12529223624E+02  0.28919992454E+02  0.31926257721E+02  0.00000000000E+00 0. -1.
        -12    1    6    6    0    0 -0.49944726638E+02 -0.96293851747E+02  0.10963473120E+03  0.15422955582E+03  0.00000000000E+00 0.  1.
</event>
<event>
12    1  0.1039610E+000  0.1877209E+03  0.7818608E-02  0.1161512E+00
         21   -1    0    0  503  502  0.00000000000E+00  0.00000000000E+00  0.13731969594E+04  0.13731969594E+04  0.00000000000E+00 0. -1.
         21   -1    0    0  501  503 -0.00000000000E+00 -0.00000000000E+00 -0.27613235134E+02  0.27613235134E+02  0.00000000000E+00 0. -1.
          6    2    1    2  501    0  0.69147580487E+02  0.22040346637E+02  0.45405528386E+03  0.48973275668E+03  0.16853725820E+03 0.  0.
         24    2    3    3    0    0 -0.23742681116E+02  0.10493738264E+02  0.15512620134E+03  0.17645554519E+03  0.79991172240E+02 0.  0.
         -6    2    1    2    0  502 -0.69147580487E+02 -0.22040346637E+02  0.89152844045E+03  0.91107743789E+03  0.17312415471E+03 0.  0.
        -24    2    5    5    0    0  0.47923979095E+01  0.38160609026E+02  0.34073910733E+03  0.35207631540E+03  0.79846060923E+02 0.  0.
          5    1    3    3  501    0  0.92890261603E+02  0.11546608373E+02  0.29892908252E+03  0.31327721149E+03  0.47000000000E+01 0. -1.
        -13    1    4    4    0    0  0.25032111840E+02 -0.28932127378E+01  0.19991961207E+02  0.32166066219E+02  0.00000000000E+00 0.  1.
         14    1    4    4    0    0 -0.48774792956E+02  0.13386951002E+02  0.13513424014E+03  0.14428947897E+03  0.00000000000E+00 0. -1.
         -5    1    5    5    0  502 -0.73939978397E+02 -0.60200955663E+02  0.55078933312E+03  0.55900112249E+03  0.47000000000E+01 0.  1.
         11    1    6    6    0    0  0.66455568060E+01 -0.10248161430E+02  0.55700493429E+01  0.13424369171E+02  0.00000000000E+00 0. -1.
        -12    1    6    6    0    0 -0.18531588964E+01  0.48408770456E+02  0.33516905799E+03  0.33865194623E+03  0.00000000000E+00 0.  1.
</event>
<event>
12    1  0.1039610E+000  0.2024712E+03  0.7818608E-02  0.1147989E+00
         21   -1    0    0  501  502  0.00000000000E+00  0.00000000000E+00  0.17009693760E+03  0.17009693760E+03  0.00000000000E+00 0.  1.
         21   -1    0    0  502  503 -0.00000000000E+00 -0.00000000000E+00 -0.25452312316E+03  0.25452312316E+03  0.00000000000E+00 0.  1.
         -6    2    1    2    0  503 -0.27484217330E+02  0.10042413603E+03  0.97429015201E+01  0.20270545203E+03  0.17364960943E+03 0.  0.
        -24    2    3    3    0    0  0.49437723369E+02  0.39235341962E+02 -0.20909765566E+01  0.10359347419E+03  0.82120248185E+02 0.  0.
          6    2    1    2  501    0  0.27484217330E+02 -0.10042413603E+03 -0.94169087082E+02  0.22191460872E+03  0.17186589919E+03 0.  0.
         24    2    5    5    0    0 -0.37785319361E+02 -0.15623022823E+02 -0.21891875584E+02  0.92696086356E+02  0.80258962165E+02 0.  0.
          5    1    5    5  501    0  0.65269536691E+02 -0.84801113208E+02 -0.72277211498E+02  0.12921852237E+03  0.47000000000E+01 0. -1.
        -13    1    6    6    0    0  0.15483448688E+01 -0.39613083698E+02 -0.24408606250E+02  0.46555062356E+02  0.00000000000E+00 0.  1.
         14    1    6    6    0    0 -0.39333664230E+02  0.23990060875E+02  0.25167306662E+01  0.46141024000E+02  0.00000000000E+00 0. -1.
         -5    1    3    3    0  503 -0.76921940699E+02  0.61188794069E+02  0.11833878077E+02  0.99111977837E+02  0.47000000000E+01 0.  1.
         11    1    4    4    0    0 -0.93183918483E+01 -0.16985242633E+02 -0.10155783963E+02  0.21873976361E+02  0.00000000000E+00 0. -1.
        -12    1    4    4    0    0  0.58756115218E+02  0.56220584595E+02  0.80648074068E+01  0.81719497834E+02  0.00000000000E+00 0.  1.
</event>
<event>
12    1  0.1039610E+000  0.4092263E+03  0.7818608E-02  0.1040669E+00
         21   -1    0    0  501  502  0.00000000000E+00  0.00000000000E+00  0.43162152354E+03  0.43162152354E+03  0.00000000000E+00 0.  1.
         21   -1    0    0  502  503 -0.00000000000E+00 -0.00000000000E+00 -0.41214163499E+03  0.41214163499E+03  0.00000000000E+00 0.  1.
         -6    2    1    2    0  503 -0.33691572603E+03 -0.15587646538E+03 -0.93276595270E+02  0.41972216914E+03  0.17221061854E+03 0.  0.
        -24    2    3    3    0    0 -0.21174167124E+03 -0.85620361446E+02  0.11051830372E+02  0.24220886111E+03  0.79859926184E+02 0.  0.
          6    2    1    2  501    0  0.33691572603E+03  0.15587646538E+03  0.11275648382E+03  0.42404098938E+03  0.17113461698E+03 0.  0.
         24    2    5    5    0    0  0.34448847668E+03  0.14933873034E+03  0.83597842637E+02  0.39285758213E+03  0.79838046074E+02 0.  0.
          5    1    5    5  501    0 -0.75727506537E+01  0.65377350477E+01  0.29158641186E+02  0.31183407252E+02  0.47000000000E+01 0. -1.
        -11    1    6    6    0    0  0.13233601589E+03  0.87839080415E+02  0.63502739803E+02  0.17105882939E+03  0.00000000000E+00 0.  1.
         12    1    6    6    0    0  0.21215246079E+03  0.61499649921E+02  0.20095102834E+02  0.22179875274E+03  0.00000000000E+00 0. -1.
         -5    1    3    3    0  503 -0.12517405478E+03 -0.70256103937E+02 -0.10432842564E+03  0.17751330803E+03  0.47000000000E+01 0.  1.
         11    1    4    4    0    0 -0.13842449210E+03 -0.45032128600E+02 -0.30414599624E+02  0.14870871021E+03  0.00000000000E+00 0. -1.
        -12    1    4    4    0    0 -0.73317179139E+02 -0.40588232846E+02  0.41466429996E+02  0.93500150904E+02  0.00000000000E+00 0.  1.
</event>
<event>
12    1  0.1039610E+000  0.3641328E+03  0.7818608E-02  0.1056967E+00
         21   -1    0    0  501  502  0.00000000000E+00  0.00000000000E+00  0.10598963646E+04  0.10598963646E+04  0.00000000000E+00 0.  1.
         21   -1    0    0  502  503 -0.00000000000E+00 -0.00000000000E+00 -0.13399906515E+03  0.13399906515E+03  0.00000000000E+00 0. -1.
         -6    2    1    2    0  503  0.31946276564E+03  0.30697845273E+02  0.61697920340E+03  0.71637782061E+03  0.17185758084E+03 0.  0.
        -24    2    3    3    0    0  0.20674679541E+03  0.81904457214E+02  0.35358633920E+03  0.42530240433E+03  0.80039105012E+02 0.  0.
          6    2    1    2  501    0 -0.31946276564E+03 -0.30697845273E+02  0.30891809604E+03  0.47751760913E+03  0.17202866223E+03 0.  0.
         24    2    5    5    0    0 -0.21066906523E+03  0.32350897434E+02  0.25240463187E+03  0.33957894581E+03  0.78598515476E+02 0.  0.
          5    1    5    5  501    0 -0.10879370041E+03 -0.63048742707E+02  0.56513464171E+02  0.13793866332E+03  0.47000000000E+01 0. -1.
        -11    1    6    6    0    0 -0.50323292447E-01  0.15908127173E+02  0.17393947269E+02  0.23571602495E+02  0.00000000000E+00 0.  1.
         12    1    6    6    0    0 -0.21061874194E+03  0.16442770261E+02  0.23501068460E+03  0.31600734331E+03  0.00000000000E+00 0. -1.
         -5    1    3    3    0  503  0.11271597023E+03 -0.51206611941E+02  0.26339286420E+03  0.29107541628E+03  0.47000000000E+01 0.  1.
         11    1    4    4    0    0  0.12528552838E+03  0.65350103411E+02  0.28273072148E+03  0.31607556139E+03  0.00000000000E+00 0. -1.
        -12    1    4    4    0    0  0.81461267028E+02  0.16554353803E+02  0.70855617725E+02  0.10922684294E+03  0.00000000000E+00 0.  1.
</event>
<event>
12    1  0.1039610E+000  0.2982375E+03  0.7818608E-02  0.1086356E+00
         21   -1    0    0  501  502  0.00000000000E+00  0.00000000000E+00  0.25386839427E+03  0.25386839427E+03  0.00000000000E+00 0.  1.
         21   -1    0    0  502  503 -0.00000000000E+00 -0.00000000000E+00 -0.34888618108E+03  0.34888618108E+03  0.00000000000E+00 0.  1.
         -6    2    1    2    0  503  0.23504870343E+03 -0.59035371471E+02 -0.60568534449E+02  0.30253410631E+03  0.17066127283E+03 0.  0.
        -24    2    3    3    0    0  0.21295892987E+03 -0.79273649533E+02 -0.12707523014E+02  0.24587448744E+03  0.93042813322E+02 0.  0.
          6    2    1    2  501    0 -0.23504870343E+03  0.59035371471E+02 -0.34449252364E+02  0.30022046904E+03  0.17381746452E+03 0.  0.
         24    2    5    5    0    0 -0.12788942823E+03  0.10102102504E+03 -0.10090884695E+02  0.18248633871E+03  0.81476895568E+02 0.  0.
          5    1    5    5  501    0 -0.10715927521E+03 -0.41985653565E+02 -0.24358367669E+02  0.11773413033E+03  0.47000000000E+01 0. -1.
        -13    1    6    6    0    0 -0.73112981811E+02  0.23364446476E+02  0.25691918844E+02  0.80941214238E+02  0.00000000000E+00 0.  1.
         14    1    6    6    0    0 -0.54776446417E+02  0.77656578559E+02 -0.35782803539E+02  0.10154512448E+03  0.00000000000E+00 0. -1.
         -5    1    3    3    0  503  0.22089773564E+02  0.20238278063E+02 -0.47861011435E+02  0.56659618871E+02  0.47000000000E+01 0.  1.
         13    1    4    4    0    0  0.94269339506E+02 -0.80621595898E+02  0.12037870192E+02  0.12462528000E+03  0.00000000000E+00 0. -1.
        -14    1    4    4    0    0  0.11868959036E+03  0.13479463643E+01 -0.24745393207E+02  0.12124920744E+03  0.00000000000E+00 0.  1.
</event>
<event>
12    1  0.1039610E+000  0.2447784E+03  0.7818608E-02  0.1117114E+00
         21   -1    0    0  501  502  0.00000000000E+00  0.00000000000E+00  0.13867438145E+03  0.13867438145E+03  0.00000000000E+00 0.  1.
         21   -1    0    0  502  503 -0.00000000000E+00 -0.00000000000E+00 -0.10568472122E+04  0.10568472122E+04  0.00000000000E+00 0.  1.
         -6    2    1    2    0  503  0.10251405656E+03 -0.13330967152E+03 -0.91944108572E+03  0.95073990505E+03  0.17393635798E+03 0.  0.
        -24    2    3    3    0    0  0.12187418549E+03 -0.52187524395E+02 -0.51351934138E+03  0.53631238440E+03  0.79699466064E+02 0.  0.
          6    2    1    2  501    0 -0.10251405656E+03  0.13330967152E+03  0.12682550254E+01  0.24478168855E+03  0.17786474150E+03 0.  0.
         24    2    5    5    0    0 -0.11486720166E+03  0.10180634695E+03 -0.52904861832E+02  0.18073579686E+03  0.79419755511E+02 0.  0.
          5    1    5    5  501    0  0.12353145101E+02  0.31503324567E+02  0.54173116858E+02  0.64045891693E+02  0.47000000000E+01 0. -1.
        -11    1    6    6    0    0 -0.83127649915E+02  0.21727059245E+02 -0.17957799719E+02  0.87776727295E+02  0.00000000000E+00 0.  1.
         12    1    6    6    0    0 -0.31739551741E+02  0.80079287704E+02 -0.34947062113E+02  0.92959069565E+02  0.00000000000E+00 0. -1.
         -5    1    3    3    0  503 -0.19360128938E+02 -0.81122147122E+02 -0.40592174434E+03  0.41442752065E+03  0.47000000000E+01 0.  1.
         13    1    4    4    0    0  0.83885839473E+02 -0.72586418330E+02 -0.34694819455E+03  0.36425083650E+03  0.00000000000E+00 0. -1.
        -14    1    4    4    0    0  0.37988346020E+02  0.20398893935E+02 -0.16657114684E+03  0.17206154790E+03  0.00000000000E+00 0.  1.
</event>
<event>
12    1  0.1039610E+000  0.1927831E+03  0.7818608E-02  0.1156142E+00
         21   -1    0    0  503  502  0.00000000000E+00  0.00000000000E+00  0.32779773397E+03  0.32779773397E+03  0.00000000000E+00 0. -1.
         21   -1    0    0  501  503 -0.00000000000E+00 -0.00000000000E+00 -0.11968746659E+03  0.11968746659E+03  0.00000000000E+00 0. -1.
          6    2    1    2  501    0 -0.60593816014E+02  0.61050559996E+02  0.15699944175E+03  0.24804188149E+03  0.17168916346E+03 0.  0.
         24    2    3    3    0    0 -0.46328705697E+01  0.62861671821E+02  0.25964333885E+02  0.10546840207E+03  0.80475983546E+02 0.  0.
         -6    2    1    2    0  502  0.60593816014E+02 -0.61050559996E+02  0.51110825630E+02  0.19944331908E+03  0.17252982238E+03 0.  0.
        -24    2    5    5    0    0  0.66278835696E+01 -0.63959298842E+02 -0.22207100302E+02  0.10823810602E+03  0.84187953657E+02 0.  0.
          5    1    3    3  501    0 -0.55960945444E+02 -0.18111118254E+01  0.13103510786E+03  0.14257347942E+03  0.47000000000E+01 0. -1.
        -13    1    4    4    0    0  0.67674223254E+01  0.27575218057E+02 -0.28074731267E+02  0.39929703124E+02  0.00000000000E+00 0.  1.
         14    1    4    4    0    0 -0.11400292895E+02  0.35286453764E+02  0.54039065152E+02  0.65538698948E+02  0.00000000000E+00 0. -1.
         -5    1    5    5    0  502  0.53965932445E+02  0.29087388463E+01  0.73317925932E+02  0.91205213060E+02  0.47000000000E+01 0.  1.
         11    1    6    6    0    0 -0.30702260125E+01  0.15489345009E+02 -0.23354136016E+02  0.28191519392E+02  0.00000000000E+00 0. -1.
        -12    1    6    6    0    0  0.96981095820E+01 -0.79448643851E+02  0.11470357133E+01  0.80046586624E+02  0.00000000000E+00 0.  1.
</event>
<event>
12    1  0.1039610E+000  0.2774175E+03  0.7818608E-02  0.1097253E+00
         21   -1    0    0  503  502  0.00000000000E+00  0.00000000000E+00  0.24383516958E+03  0.24383516958E+03  0.00000000000E+00 0.  1.
         21   -1    0    0  501  503 -0.00000000000E+00 -0.00000000000E+00 -0.31632570811E+03  0.31632570811E+03  0.00000000000E+00 0.  1.
          6    2    1    2  501    0  0.21554826399E+03 -0.28705765631E+02 -0.14658852003E+02  0.27780454152E+03  0.17226551093E+03 0.  0.
         24    2    3    3    0    0  0.89187108938E+02  0.26195803998E+02 -0.54872804209E+02  0.13420587924E+03  0.79747306125E+02 0.  0.
         -6    2    1    2    0  502 -0.21554826399E+03  0.28705765631E+02 -0.57831686529E+02  0.28235633617E+03  0.17057409393E+03 0.  0.
        -24    2    5    5    0    0 -0.45441346013E+02  0.50746271678E+01  0.14610998406E+02  0.95903052879E+02  0.83025577437E+02 0.  0.
          5    1    3    3  501    0  0.12636115506E+03 -0.54901569629E+02  0.40213952206E+02  0.14359866227E+03  0.47000000000E+01 0. -1.
        -11    1    4    4    0    0  0.36882249771E+02  0.27122207196E+02  0.13856728450E+02  0.47832242208E+02  0.00000000000E+00 0.  1.
         12    1    4    4    0    0  0.52304859167E+02 -0.92640319781E+00 -0.68729532659E+02  0.86373637036E+02  0.00000000000E+00 0. -1.
         -5    1    5    5    0  502 -0.17010691798E+03  0.23631138463E+02 -0.72442684935E+02  0.18645328329E+03  0.47000000000E+01 0.  1.
         11    1    6    6    0    0 -0.57989512839E+02 -0.98623627263E+01 -0.14758043053E+02  0.60645277084E+02  0.00000000000E+00 0. -1.
        -12    1    6    6    0    0  0.12548166826E+02  0.14936989894E+02  0.29369041459E+02  0.35257775795E+02  0.00000000000E+00 0.  1.
</event>
<event>
12    1  0.1039610E+000  0.3489025E+03  0.7818608E-02  0.1063085E+00
         21   -1    0    0  503  502  0.00000000000E+00  0.00000000000E+00  0.52355639868E+03  0.52355639868E+03  0.00000000000E+00 0.  1.
         21   -1    0    0  501  503 -0.00000000000E+00 -0.00000000000E+00 -0.24299753222E+03  0.24299753222E+03  0.00000000000E+00 0.  1.
          6    2    1    2  501    0  0.14369065204E+03 -0.26787559600E+03  0.60243050262E+02  0.35406522225E+03  0.17125600160E+03 0.  0.
         24    2    3    3    0    0  0.63846248940E+02 -0.12445474379E+03  0.92917899466E+02  0.18663044293E+03  0.81436229233E+02 0.  0.
         -6    2    1    2    0  502 -0.14369065204E+03  0.26787559600E+03  0.22031581620E+03  0.41248870865E+03  0.17089042536E+03 0.  0.
        -24    2    5    5    0    0 -0.13549933807E+03  0.23739477575E+03  0.12093476832E+03  0.30811025922E+03  0.74768733285E+02 0.  0.
          5    1    3    3  501    0  0.79844403100E+02 -0.14342085221E+03 -0.32674849204E+02  0.16743477932E+03  0.47000000000E+01 0. -1.
        -11    1    4    4    0    0  0.44607991261E+02 -0.37264963167E+02  0.50118922525E+00  0.58127459559E+02  0.00000000000E+00 0.  1.
         12    1    4    4    0    0  0.19238257679E+02 -0.87189780628E+02  0.92416710241E+02  0.12850298337E+03  0.00000000000E+00 0. -1.
         -5    1    5    5    0  502 -0.81913139695E+01  0.30480820256E+02  0.99381047885E+02  0.10437844944E+03  0.47000000000E+01 0.  1.
         13    1    6    6    0    0 -0.75637982696E+02  0.16985164626E+03  0.47884167435E+02  0.19199890535E+03  0.00000000000E+00 0. -1.
        -14    1    6    6    0    0 -0.59861355375E+02  0.67543129487E+02  0.73050600881E+02  0.11611135387E+03  0.00000000000E+00 0.  1.
</event>
<event>
12    1  0.1039610E+000  0.1860705E+03  0.7818608E-02  0.1162774E+00
         21   -1    0    0  501  502  0.00000000000E+00  0.00000000000E+00  0.56344128398E+03  0.56344128398E+03  0.00000000000E+00 0. -1.
         21   -1    0    0  502  503 -0.00000000000E+00 -0.00000000000E+00 -0.63156826580E+02  0.63156826580E+02  0.00000000000E+00 0. -1.
         -6    2    1    2    0  503  0.13867455169E+01 -0.69076752969E+02  0.31318223214E+03  0.36272414438E+03  0.16944666867E+03 0.  0.
        -24    2    3    3    0    0 -0.61969191942E+02 -0.30752847954E+02  0.21425535957E+03  0.23906609724E+03  0.80382344672E+02 0.  0.
          6    2    1    2  501    0 -0.13867455169E+01  0.69076752969E+02  0.18710222526E+03  0.26387396618E+03  0.17276778191E+03 0.  0.
         24    2    5    5    0    0  0.31246796248E+02  0.12939134592E+02  0.26658101995E+02  0.90724357648E+02  0.79852809525E+02 0.  0.
          5    1    5    5  501    0 -0.32633541764E+02  0.56137618377E+02  0.16044412326E+03  0.17314960853E+03  0.47000000000E+01 0. -1.
        -13    1    6    6    0    0 -0.24978623995E+02  0.14965226964E+02  0.16799160502E+01  0.29166964064E+02  0.00000000000E+00 0.  1.
         14    1    6    6    0    0  0.56225420243E+02 -0.20260923718E+01  0.24978185945E+02  0.61557393584E+02  0.00000000000E+00 0. -1.
         -5    1    3    3    0  503  0.63355937459E+02 -0.38323905015E+02  0.98926872572E+02  0.12365804715E+03  0.47000000000E+01 0.  1.
         13    1    4    4    0    0 -0.51965247766E+02  0.41659458428E+01  0.18565150004E+03  0.19283210715E+03  0.00000000000E+00 0. -1.
        -14    1    4    4    0    0 -0.10003944176E+02 -0.34918793797E+02  0.28603859534E+02  0.46233990089E+02  0.00000000000E+00 0.  1.
</event>
<event>
12    1  0.1039610E+000  0.2166891E+03  0.7818608E-02  0.1138074E+00
         21   -1    0    0  503  502  0.00000000000E+00  0.00000000000E+00  0.14757776297E+03  0.14757776297E+03  0.00000000000E+00 0.  1.
         21   -1    0    0  501  503 -0.00000000000E+00 -0.00000000000E+00 -0.46378369746E+03  0.46378369746E+03  0.00000000000E+00 0.  1.
          6    2    1    2  501    0 -0.10493031607E+03 -0.61882572789E+02  0.18329139000E+02  0.21746291193E+03  0.17920473398E+03 0.  0.
         24    2    3    3    0    0 -0.42718683287E+02 -0.66514566501E+02 -0.50699029943E+02  0.12430326011E+03  0.81436081549E+02 0.  0.
         -6    2    1    2    0  502  0.10493031607E+03  0.61882572789E+02 -0.33453507348E+03  0.39389854850E+03  0.16853049301E+03 0.  0.
        -24    2    5    5    0    0  0.14448161123E+03  0.58677318159E+02 -0.27472352350E+03  0.32196740005E+03  0.62225627220E+02 0.  0.
          5    1    3    3  501    0 -0.62211632788E+02  0.46319937113E+01  0.69028168942E+02  0.93159651821E+02  0.47000000000E+01 0. -1.
        -13    1    4    4    0    0 -0.20606092790E+02 -0.29167050715E+01 -0.52991641792E+02  0.56931821755E+02  0.00000000000E+00 0.  1.
         14    1    4    4    0    0 -0.22112590497E+02 -0.63597861429E+02  0.22926118491E+01  0.67371438354E+02  0.00000000000E+00 0. -1.
         -5    1    5    5    0  502 -0.39551295156E+02  0.32052546299E+01 -0.59811549986E+02  0.71931148451E+02  0.47000000000E+01 0.  1.
         13    1    6    6    0    0  0.87643349944E+02  0.23189541370E+01 -0.15108232141E+03  0.17467856818E+03  0.00000000000E+00 0. -1.
        -14    1    6    6    0    0  0.56838261286E+02  0.56358364022E+02 -0.12364120209E+03  0.14728883187E+03  0.00000000000E+00 0.  1.
</event>
<event>
12    1  0.1039610E+000  0.1985391E+03  0.7818608E-02  0.1151342E+00
         21   -1    0    0  503  502  0.00000000000E+00  0.00000000000E+00  0.49314088500E+03  0.49314088500E+03  0.00000000000E+00 0.  1.
         21   -1    0    0  501  503 -0.00000000000E+00 -0.00000000000E+00 -0.97923650500E+02  0.97923650500E+02  0.00000000000E+00 0.  1.
          6    2    1    2  501    0  0.29083533685E+02  0.95003348219E+02  0.32736028992E+03  0.38286099520E+03  0.17189035495E+03 0.  0.
         24    2    3    3    0    0  0.74401634692E+01  0.49101160418E+02  0.31684459863E+03  0.33082143253E+03  0.81154424123E+02 0.  0.
         -6    2    1    2    0  502 -0.29083533685E+02 -0.95003348219E+02  0.67856944583E+02  0.20820354031E+03  0.16991957263E+03 0.  0.
        -24    2    5    5    0    0  0.11047240811E+02 -0.90475496393E+02 -0.68253968121E+01  0.12317106051E+03  0.82563109973E+02 0.  0.
          5    1    3    3  501    0  0.21643370215E+02  0.45902187801E+02  0.10515691290E+02  0.52039562666E+02  0.47000000000E+01 0. -1.
        -13    1    4    4    0    0 -0.17961425812E+02 -0.12655456425E+02  0.36238797853E+02  0.42379521757E+02  0.00000000000E+00 0.  1.
         14    1    4    4    0    0  0.25401589281E+02  0.61756616843E+02  0.28060580078E+03  0.28844191078E+03  0.00000000000E+00 0. -1.
         -5    1    5    5    0  502 -0.40130774496E+02 -0.45278518261E+01  0.74682341395E+02  0.85032479795E+02  0.47000000000E+01 0.  1.
         11    1    6    6    0    0  0.44920833507E+02 -0.42195169028E+02  0.85527948306E+01  0.62221088642E+02  0.00000000000E+00 0. -1.
        -12    1    6    6    0    0 -0.33873592696E+02 -0.48280327365E+02 -0.15378191643E+02  0.60949971869E+02  0.00000000000E+00 0.  1.
</event>
<event>
12    1  0.1039610E+000  0.1979834E+03  0.7818608E-02  0.1151619E+00
         21   -1    0    0  501  502  0.00000000000E+00  0.00000000000E+00  0.28898851391E+03  0.28898851391E+03  0.00000000000E+00 0.  1.
         21   -1    0    0  502  503 -0.00000000000E+00 -0.00000000000E+00 -0.19836092058E+03  0.19836092058E+03  0.00000000000E+00 0.  1.
         -6    2    1    2    0  503 -0.27581864175E+02  0.94896541515E+02  0.18298338048E+03  0.26959294313E+03  0.17155560215E+03 0.  0.
        -24    2    3    3    0    0 -0.73847786233E+02  0.62369628374E+02  0.16965088377E+03  0.21129730786E+03  0.80756819350E+02 0.  0.
          6    2    1    2  501    0  0.27581864175E+02 -0.94896541515E+02 -0.92355787151E+02  0.21775649136E+03  0.17065223492E+03 0.  0.
         24    2    5    5    0    0 -0.20084467902E+02 -0.50478782331E+02 -0.11399297618E+03  0.14894316057E+03  0.78982106497E+02 0.  0.
          5    1    5    5  501    0  0.47666332077E+02 -0.44417759184E+02  0.21637189027E+02  0.68813330784E+02  0.47000000000E+01 0. -1.
        -13    1    6    6    0    0  0.60604522999E+01  0.84491756121E+01 -0.70298497164E+02  0.71063326365E+02  0.00000000000E+00 0.  1.
         14    1    6    6    0    0 -0.26144920202E+02 -0.58927957943E+02 -0.43694479014E+02  0.77879834206E+02  0.00000000000E+00 0. -1.
         -5    1    3    3    0  503  0.46265922058E+02  0.32526913141E+02  0.13332496711E+02  0.58295635265E+02  0.47000000000E+01 0.  1.
         11    1    4    4    0    0 -0.66343131562E+02  0.43024224972E+02  0.58846486876E+02  0.98566749249E+02  0.00000000000E+00 0. -1.
        -12    1    4    4    0    0 -0.75046546709E+01  0.19345403401E+02  0.11080439689E+03  0.11273055861E+03  0.00000000000E+00 0.  1.
</event>
<event>
12    1  0.1039610E+000  0.2092567E+03  0.7818608E-02  0.1146013E+00
         21   -1    0    0  503  502  0.00000000000E+00  0.00000000000E+00  0.11124995476E+03  0.11124995476E+03  0.00000000000E+00 0. -1.
         21   -1    0    0  501  503 -0.00000000000E+00 -0.00000000000E+00 -0.36034055427E+03  0.36034055427E+03  0.00000000000E+00 0. -1.
          6    2    1    2  501    0 -0.10637189058E+03 -0.52108884631E+02 -0.11992517719E+03  0.24118543934E+03  0.17250522618E+03 0.  0.
         24    2    3    3    0    0  0.45670995504E+01  0.50494493563E+01 -0.16609174761E+02  0.79102679506E+02  0.77039041283E+02 0.  0.
         -6    2    1    2    0  502  0.10637189058E+03  0.52108884631E+02 -0.12916542232E+03  0.23040506969E+03  0.14957431215E+03 0.  0.
        -24    2    5    5    0    0  0.13953558647E+02  0.55085788077E+02 -0.78825149142E+02  0.12501890772E+03  0.78658612395E+02 0.  0.
          5    1    3    3  501    0 -0.11093899013E+03 -0.57158333988E+02 -0.10331600243E+03  0.16208275983E+03  0.47000000000E+01 0. -1.
        -11    1    4    4    0    0  0.12789241678E+02 -0.26781838789E+02 -0.31264538363E+02  0.43108038121E+02  0.00000000000E+00 0.  1.
         12    1    4    4    0    0 -0.82221421274E+01  0.31831288145E+02  0.14655363602E+02  0.35994641385E+02  0.00000000000E+00 0. -1.
         -5    1    5    5    0  502  0.92418331936E+02 -0.29769034457E+01 -0.50340273173E+02  0.10538616197E+03  0.47000000000E+01 0.  1.
         13    1    6    6    0    0 -0.27054455317E+02  0.53947228506E+00 -0.33643823029E+02  0.43175703942E+02  0.00000000000E+00 0. -1.
        -14    1    6    6    0    0  0.41008013964E+02  0.54546315792E+02 -0.45181326113E+02  0.81843203781E+02  0.00000000000E+00 0.  1.
</event>
<event>
12    1  0.1039610E+000  0.2458360E+03  0.7818608E-02  0.1116034E+00
         21   -1    0    0  503  502  0.00000000000E+00  0.00000000000E+00  0.36813030319E+02  0.36813030319E+02  0.00000000000E+00 0.  1.
         21   -1    0    0  501  503 -0.00000000000E+00 -0.00000000000E+00 -0.17023091426E+04  0.17023091426E+04  0.00000000000E+00 0.  1.
          6    2    1    2  501    0 -0.24020677575E+02  0.17426783865E+03 -0.10013483281E+04  0.10310837987E+04  0.17172377011E+03 0.  0.
         24    2    3    3    0    0 -0.99906205862E+01  0.15182590756E+02 -0.29860438317E+03  0.31040626976E+03  0.82807916849E+02 0.  0.
         -6    2    1    2    0  502  0.24020677575E+02 -0.17426783865E+03 -0.66414778417E+03  0.70803837420E+03  0.17111337642E+03 0.  0.
        -24    2    5    5    0    0  0.71831032580E+02 -0.13225958213E+03 -0.37340221167E+03  0.41037144358E+03  0.79518650112E+02 0.  0.
          5    1    3    3  501    0 -0.14030056988E+02  0.15908524789E+03 -0.70274394491E+03  0.72067752893E+03  0.47000000000E+01 0. -1.
        -11    1    4    4    0    0  0.19447511956E+02  0.93261598913E+01 -0.26280723680E+03  0.26369077855E+03  0.00000000000E+00 0.  1.
         12    1    4    4    0    0 -0.29438132542E+02  0.58564308646E+01 -0.35797146375E+02  0.46715491206E+02  0.00000000000E+00 0. -1.
         -5    1    5    5    0  502 -0.47810355006E+02 -0.42008256518E+02 -0.29074557249E+03  0.29766693062E+03  0.47000000000E+01 0.  1.
         13    1    6    6    0    0  0.56337605465E+02 -0.24653319366E+02 -0.13709009977E+03  0.15025114775E+03  0.00000000000E+00 0. -1.
        -14    1    6    6    0    0  0.15493427116E+02 -0.10760626276E+03 -0.23631211190E+03  0.26012029582E+03  0.00000000000E+00 0.  1.
</event>
<event>
12    1  0.1152340E+000  0.2441246E+03  0.7818608E-02  0.1117201E+00
         21   -1    0    0  503  502  0.00000000000E+00  0.00000000000E+00  0.65546973830E+03  0.65546973830E+03  0.00000000000E+00 0.  1.
         21   -1    0    0  501  503 -0.00000000000E+00 -0.00000000000E+00 -0.40535840201E+03  0.40535840201E+03  0.00000000000E+00 0.  1.
          6    2    1    2  501    0 -0.17148291713E+03 -0.23919069381E+02  0.59246826955E+03  0.64079284786E+03  0.17209971149E+03 0.  0.
         24    2    3    3    0    0 -0.12968890439E+03 -0.35796496405E+02  0.24345491711E+03  0.28905399167E+03  0.78621322532E+02 0.  0.
         -6    2    1    2    0  502  0.17148291713E+03  0.23919069381E+02 -0.34235693327E+03  0.42003529245E+03  0.17100545135E+03 0.  0.
        -24    2    5    5    0    0  0.15142520206E+03 -0.33368611039E+02 -0.29520686145E+03  0.34303263317E+03  0.80506151041E+02 0.  0.
          5    1    3    3  501    0 -0.41794012740E+02  0.11877427024E+02  0.34901335244E+03  0.35173885619E+03  0.47000000000E+01 0. -1.
        -13    1    4    4    0    0 -0.16888591332E+02  0.13936994672E+02  0.80615373370E+01  0.23333510707E+02  0.00000000000E+00 0.  1.
         14    1    4    4    0    0 -0.11280031306E+03 -0.49733491077E+02  0.23539337978E+03  0.26572048097E+03  0.00000000000E+00 0. -1.
         -5    1    5    5    0  502  0.20057715072E+02  0.57287680420E+02 -0.47150071828E+02  0.77002659274E+02  0.47000000000E+01 0.  1.
         11    1    6    6    0    0  0.32492559699E+02  0.22272704660E+02 -0.10282412779E+03  0.11011194787E+03  0.00000000000E+00 0. -1.
        -12    1    6    6    0    0  0.11893264236E+03 -0.55641315699E+02 -0.19238273366E+03  0.23292068530E+03  0.00000000000E+00 0.  1.
</event>
<event>
12    1  0.1039610E+000  0.2718069E+03  0.7818608E-02  0.1100524E+00
         21   -1    0    0  501  502  0.00000000000E+00  0.00000000000E+00  0.26442168138E+03  0.26442168138E+03  0.00000000000E+00 0.  1.
         21   -1    0    0  502  503 -0.00000000000E+00 -0.00000000000E+00 -0.28330683935E+03  0.28330683935E+03  0.00000000000E+00 0.  1.
         -6    2    1    2    0  503  0.13282675071E+03 -0.16320952609E+03  0.29994729417E+02  0.27345687764E+03  0.17204268373E+03 0.  0.
        -24    2    3    3    0    0  0.82066581992E+02 -0.14609632669E+03  0.78102003534E+02  0.20130525850E+03  0.79654400948E+02 0.  0.
          6    2    1    2  501    0 -0.13282675071E+03  0.16320952609E+03 -0.48879887384E+02  0.27427164310E+03  0.16898341844E+03 0.  0.
         24    2    5    5    0    0 -0.14605574440E+03  0.14822197320E+03 -0.19176751467E+01  0.22301569326E+03  0.80189077507E+02 0.  0.
          5    1    5    5  501    0  0.13228993693E+02  0.14987552888E+02 -0.46962212237E+02  0.51255949839E+02  0.47000000000E+01 0. -1.
        -13    1    6    6    0    0  0.52061567544E+01  0.21937665202E+02  0.11879991311E+02  0.25485278421E+02  0.00000000000E+00 0.  1.
         14    1    6    6    0    0 -0.15126190115E+03  0.12628430800E+03 -0.13797666457E+02  0.19753041484E+03  0.00000000000E+00 0. -1.
         -5    1    3    3    0  503  0.50760168714E+02 -0.17113199397E+02 -0.48107274117E+02  0.72151619140E+02  0.47000000000E+01 0.  1.
         13    1    4    4    0    0  0.46578915368E+02 -0.13283851114E+03  0.37295795840E+02  0.14562500399E+03  0.00000000000E+00 0. -1.
        -14    1    4    4    0    0  0.35487666624E+02 -0.13257815544E+02  0.40806207694E+02  0.55680254505E+02  0.00000000000E+00 0.  1.
</event>
<event>
12    1  0.1039610E+000  0.3742944E+03  0.7818608E-02  0.1053215E+00
         21   -1    0    0  501  502  0.00000000000E+00  0.00000000000E+00  0.18598626776E+03  0.18598626776E+03  0.00000000000E+00 0.  1.
         21   -1    0    0  502  503 -0.00000000000E+00 -0.00000000000E+00 -0.75091279244E+03  0.75091279244E+03  0.00000000000E+00 0.  1.
         -6    2    1    2    0  503  0.32510169990E+03 -0.67467170629E+02 -0.26690710376E+03  0.45971259560E+03  0.17278117410E+03 0.  0.
        -24    2    3    3    0    0  0.28180871891E+03 -0.10882740802E+03 -0.23950204346E+03  0.39369684922E+03  0.79852498223E+02 0.  0.
          6    2    1    2  501    0 -0.32510169990E+03  0.67467170629E+02 -0.29801942092E+03  0.47718646460E+03  0.16925841888E+03 0.  0.
         24    2    5    5    0    0 -0.27231677033E+03  0.14958643924E+02 -0.17671855934E+03  0.33478076532E+03  0.80427154517E+02 0.  0.
          5    1    5    5  501    0 -0.52784929570E+02  0.52508526705E+02 -0.12130086158E+03  0.14240569928E+03  0.47000000000E+01 0. -1.
        -13    1    6    6    0    0 -0.22447707221E+02  0.34121853528E+01  0.77382022810E+01  0.23987962458E+02  0.00000000000E+00 0.  1.
         14    1    6    6    0    0 -0.24986906311E+03  0.11546458571E+02 -0.18445676162E+03  0.31079280286E+03  0.00000000000E+00 0. -1.
         -5    1    3    3    0  503  0.43292980983E+02  0.41360237393E+02 -0.27405060301E+02  0.66015746377E+02  0.47000000000E+01 0.  1.
         13    1    4    4    0    0  0.10719839487E+03 -0.38009349196E+02 -0.43387508730E+02  0.12173201059E+03  0.00000000000E+00 0. -1.
        -14    1    4    4    0    0  0.17461032405E+03 -0.70818058826E+02 -0.19611453473E+03  0.27196483863E+03  0.00000000000E+00 0.  1.
</event>
<event>
12    1  0.1039610E+000  0.1880700E+03  0.7818608E-02  0.1160476E+00
         21   -1    0    0  501  502  0.00000000000E+00  0.00000000000E+00  0.24085715570E+03  0.24085715570E+03  0.00000000000E+00 0. -1.
         21   -1    0    0  502  503 -0.00000000000E+00 -0.00000000000E+00 -0.15908401462E+03  0.15908401462E+03  0.00000000000E+00 0. -1.
         -6    2    1    2    0  503 -0.70675087409E+02  0.85938503771E+01 -0.16432390720E+02  0.18878653853E+03  0.17407329324E+03 0.  0.
        -24    2    3    3    0    0  0.15835403404E+02  0.27102634161E+02 -0.42849536389E+02  0.96338738753E+02  0.80372613721E+02 0.  0.
          6    2    1    2  501    0  0.70675087409E+02 -0.85938503771E+01  0.98205531803E+02  0.21115463179E+03  0.17283845002E+03 0.  0.
         24    2    5    5    0    0  0.74229741482E+02  0.35606545936E+02  0.11655161191E+03  0.16293659310E+03  0.78652237715E+02 0.  0.
          5    1    5    5  501    0 -0.35546540731E+01 -0.44200396313E+02 -0.18346080110E+02  0.48218038691E+02  0.47000000000E+01 0. -1.
        -13    1    6    6    0    0  0.77317918868E+02  0.27532672746E+02  0.50594239544E+02  0.96415173710E+02  0.00000000000E+00 0.  1.
         14    1    6    6    0    0 -0.30881773853E+01  0.80738731898E+01  0.65957372369E+02  0.66521419390E+02  0.00000000000E+00 0. -1.
         -5    1    3    3    0  503 -0.86510490813E+02 -0.18508783784E+02  0.26417145669E+02  0.92447799775E+02  0.47000000000E+01 0.  1.
         11    1    4    4    0    0 -0.16740884340E+02  0.22322663285E+02  0.13560209216E+02  0.31023181310E+02  0.00000000000E+00 0. -1.
        -12    1    4    4    0    0  0.32576287744E+02  0.47799708762E+01 -0.56409745605E+02  0.65315557442E+02  0.00000000000E+00 0.  1.
</event>
<event>
12    1  0.1039610E+000  0.3466690E+03  0.7818608E-02  0.1064060E+00
         21   -1    0    0  503  502  0.00000000000E+00  0.00000000000E+00  0.19645792580E+04  0.19645792580E+04  0.00000000000E+00 0.  1.
         21   -1    0    0  501  503 -0.00000000000E+00 -0.00000000000E+00 -0.94806048868E+02  0.94806048868E+02  0.00000000000E+00 0.  1.
          6    2    1    2  501    0  0.52508766142E+02  0.29651261646E+03  0.15498345115E+04  0.15881329987E+04  0.17176293566E+03 0.  0.
         24    2    3    3    0    0  0.81415647005E+02  0.14280202912E+03  0.98151406065E+03  0.99866478297E+03  0.83310085781E+02 0.  0.
         -6    2    1    2    0  502 -0.52508766142E+02 -0.29651261646E+03  0.31993869760E+03  0.47125230821E+03  0.17041439353E+03 0.  0.
        -24    2    5    5    0    0  0.31201139087E+02 -0.13086407693E+03  0.18116883559E+03  0.23946371598E+03  0.80136175171E+02 0.  0.
          5    1    3    3  501    0 -0.28906880863E+02  0.15371058734E+03  0.56832045090E+03  0.58946821572E+03  0.47000000000E+01 0. -1.
        -11    1    4    4    0    0  0.69940689456E+02  0.85464078058E+02  0.42600023564E+03  0.44008182131E+03  0.00000000000E+00 0.  1.
         12    1    4    4    0    0  0.11474957549E+02  0.57337951062E+02  0.55551382500E+03  0.55858296166E+03  0.00000000000E+00 0. -1.
         -5    1    5    5    0  502 -0.83709905229E+02 -0.16564853954E+03  0.13876986202E+03  0.23178859223E+03  0.47000000000E+01 0.  1.
         11    1    6    6    0    0 -0.24484771346E+02 -0.64605349009E+02  0.93631679831E+02  0.11636256536E+03  0.00000000000E+00 0. -1.
        -12    1    6    6    0    0  0.55685910433E+02 -0.66258727917E+02  0.87537155756E+02  0.12310115062E+03  0.00000000000E+00 0.  1.
</event>
<event>
12    1  0.1039610E+000  0.8106128E+03  0.7818608E-02  0.9544888E-01
         21   -1    0    0  501  502  0.00000000000E+00  0.00000000000E+00  0.59474659494E+03  0.59474659494E+03  0.00000000000E+00 0.  1.
         21   -1    0    0  502  503 -0.00000000000E+00 -0.00000000000E+00 -0.11944831650E+04  0.11944831650E+04  0.00000000000E+00 0.  1.
         -6    2    1    2    0  503  0.76929612350E+03 -0.18762662707E+03 -0.54546905071E+03  0.97680248059E+03  0.17200675559E+03 0.  0.
        -24    2    3    3    0    0  0.73345923768E+03 -0.14464685965E+03 -0.52432792274E+03  0.91679764673E+03  0.81932820979E+02 0.  0.
          6    2    1    2  501    0 -0.76929612350E+03  0.18762662707E+03 -0.54267519366E+02  0.81242727938E+03  0.17341523517E+03 0.  0.
         24    2    5    5    0    0 -0.67849128309E+03  0.15504769688E+03 -0.96891724306E+02  0.70685352041E+03  0.76574692557E+02 0.  0.
          5    1    5    5  501    0 -0.90804840413E+02  0.32578930195E+02  0.42624204940E+02  0.10557375896E+03  0.47000000000E+01 0. -1.
        -11    1    6    6    0    0 -0.51446170915E+02  0.11014704505E+02  0.12918537196E+02  0.54174909510E+02  0.00000000000E+00 0.  1.
         12    1    6    6    0    0 -0.62704511218E+03  0.14403299237E+03 -0.10981026150E+03  0.65267861090E+03  0.00000000000E+00 0. -1.
         -5    1    3    3    0  503  0.35836885828E+02 -0.42979767426E+02 -0.21141127976E+02  0.60004833854E+02  0.47000000000E+01 0.  1.
         11    1    4    4    0    0  0.41603210640E+03 -0.44818438962E+02 -0.27011643034E+03  0.49805049138E+03  0.00000000000E+00 0. -1.
        -12    1    4    4    0    0  0.31742713128E+03 -0.99828420686E+02 -0.25421149240E+03  0.41874715535E+03  0.00000000000E+00 0.  1.
</event>
<event>
12    1  0.1039610E+000  0.3455036E+03  0.7818608E-02  0.1064565E+00
         21   -1    0    0  503  502  0.00000000000E+00  0.00000000000E+00  0.15070274173E+04  0.15070274173E+04  0.00000000000E+00 0.  1.
         21   -1    0    0  501  503 -0.00000000000E+00 -0.00000000000E+00 -0.99659960557E+02  0.99659960557E+02  0.00000000000E+00 0.  1.
          6    2    1    2  501    0  0.25018355202E+03 -0.16289324239E+03  0.10686243729E+04  0.11228282995E+04  0.17221881937E+03 0.  0.
         24    2    3    3    0    0  0.92318054755E+02 -0.59762925592E+01  0.34355195013E+03  0.36434523931E+03  0.78493131326E+02 0.  0.
         -6    2    1    2    0  502 -0.25018355202E+03  0.16289324239E+03  0.33874308384E+03  0.48385907833E+03  0.17391582077E+03 0.  0.
        -24    2    5    5    0    0 -0.10886908535E+03  0.54025476796E+02  0.23872869840E+03  0.27929384138E+03  0.79009040629E+02 0.  0.
          5    1    3    3  501    0  0.15786549726E+03 -0.15691694983E+03  0.72507242273E+03  0.75848306017E+03  0.47000000000E+01 0. -1.
        -13    1    4    4    0    0  0.25351478490E+01 -0.26137451771E+02  0.46924065507E+02  0.53772309635E+02  0.00000000000E+00 0.  1.
         14    1    4    4    0    0  0.89782906906E+02  0.20161159212E+02  0.29662788462E+03  0.31057292968E+03  0.00000000000E+00 0. -1.
         -5    1    5    5    0  502 -0.14131446667E+03  0.10886776559E+03  0.10001438544E+03  0.20456523695E+03  0.47000000000E+01 0.  1.
         11    1    6    6    0    0 -0.96612774552E+02  0.73795447727E+02  0.19593636207E+03  0.23058806190E+03  0.00000000000E+00 0. -1.
        -12    1    6    6    0    0 -0.12256310799E+02 -0.19769970931E+02  0.42792336335E+02  0.48705779473E+02  0.00000000000E+00 0.  1.
</event>
<event>
12    1  0.1039610E+000  0.3364820E+03  0.7818608E-02  0.1068409E+00
         21   -1    0    0  503  502  0.00000000000E+00  0.00000000000E+00  0.18325969437E+03  0.18325969437E+03  0.00000000000E+00 0.  1.
         21   -1    0    0  501  503 -0.00000000000E+00 -0.00000000000E+00 -0.12255904567E+04  0.12255904567E+04  0.00000000000E+00 0.  1.
          6    2    1    2  501    0  0.60002760629E+02 -0.28163162994E+03 -0.24004955978E+02  0.33637285483E+03  0.17220265180E+03 0.  0.
         24    2    3    3    0    0  0.78939812460E+02 -0.91630792051E+02 -0.89377403772E+01  0.14477942770E+03  0.79079096100E+02 0.  0.
         -6    2    1    2    0  502 -0.60002760629E+02  0.28163162994E+03 -0.10183258064E+04  0.10724772963E+04  0.17407870865E+03 0.  0.
        -24    2    5    5    0    0 -0.53807890929E+02  0.29686945858E+03 -0.89551722948E+03  0.94848292384E+03  0.81498367866E+02 0.  0.
          5    1    3    3  501    0 -0.18937051830E+02 -0.19000083789E+03 -0.15067215600E+02  0.19159342712E+03  0.47000000000E+01 0. -1.
        -13    1    4    4    0    0  0.27431086565E+02  0.56907148775E+01  0.15458841607E+02  0.31997258161E+02  0.00000000000E+00 0.  1.
         14    1    4    4    0    0  0.51508725894E+02 -0.97321506929E+02 -0.24396581985E+02  0.11278216954E+03  0.00000000000E+00 0. -1.
         -5    1    5    5    0  502 -0.61948697008E+01 -0.15237828643E+02 -0.12280857692E+03  0.12399437245E+03  0.47000000000E+01 0.  1.
         13    1    6    6    0    0 -0.15413599310E+02  0.13519856983E+03 -0.52612504330E+03  0.54343701890E+03  0.00000000000E+00 0. -1.
        -14    1    6    6    0    0 -0.38394291619E+02  0.16167088875E+03 -0.36939218618E+03  0.40504590494E+03  0.00000000000E+00 0.  1.
</event>
<event>
12    1  0.1039610E+000  0.1924272E+03  0.7818608E-02  0.1156306E+00
         21   -1    0    0  503  502  0.00000000000E+00  0.00000000000E+00  0.73224530962E+03  0.73224530962E+03  0.00000000000E+00 0. -1.
         21   -1    0    0  501  503 -0.00000000000E+00 -0.00000000000E+00 -0.51378945753E+02  0.51378945753E+02  0.00000000000E+00 0. -1.
          6    2    1    2  501    0 -0.52507629300E+02 -0.68361878655E+02  0.39015481007E+03  0.43499633284E+03  0.17196114731E+03 0.  0.
         24    2    3    3    0    0 -0.38828231072E+02  0.51292957320E+00  0.87745157792E+02  0.12450550700E+03  0.79337972830E+02 0.  0.
         -6    2    1    2    0  502  0.52507629300E+02  0.68361878655E+02  0.29071155380E+03  0.34862792252E+03  0.17204017921E+03 0.  0.
        -24    2    5    5    0    0  0.80542084151E+02  0.98608846970E+02  0.21400792435E+03  0.26141355146E+03  0.79541946030E+02 0.  0.
          5    1    3    3  501    0 -0.13679398228E+02 -0.68874808228E+02  0.30240965227E+03  0.31049082584E+03  0.47000000000E+01 0. -1.
        -13    1    4    4    0    0 -0.16408857723E+01  0.27673806523E+02  0.69762340447E+02  0.75068743284E+02  0.00000000000E+00 0.  1.
         14    1    4    4    0    0 -0.37187345300E+02 -0.27160876950E+02  0.17982817345E+02  0.49436763717E+02  0.00000000000E+00 0. -1.
         -5    1    5    5    0  502 -0.28034454851E+02 -0.30246968315E+02  0.76703629442E+02  0.87214371067E+02  0.47000000000E+01 0.  1.
         11    1    6    6    0    0  0.57710120456E+02  0.20249916742E+02  0.13315130485E+03  0.14652572168E+03  0.00000000000E+00 0. -1.
        -12    1    6    6    0    0  0.22831963694E+02  0.78358930229E+02  0.80856619508E+02  0.11488782978E+03  0.00000000000E+00 0.  1.
</event>
<event>
12    1  0.1039610E+000  0.2778296E+03  0.7818608E-02  0.1096965E+00
         21   -1    0    0  503  502  0.00000000000E+00  0.00000000000E+00  0.34438843044E+03  0.34438843044E+03  0.00000000000E+00 0. -1.
         21   -1    0    0  501  503 -0.00000000000E+00 -0.00000000000E+00 -0.33144785836E+03  0.33144785836E+03  0.00000000000E+00 0. -1.
          6    2    1    2  501    0  0.14271268984E+03 -0.16382345997E+03 -0.18624420444E+03  0.33447901955E+03  0.17315967473E+03 0.  0.
         24    2    3    3    0    0  0.15436652760E+03 -0.13679493806E+03 -0.20176366001E+03  0.30087401349E+03  0.85291954903E+02 0.  0.
         -6    2    1    2    0  502 -0.14271268984E+03  0.16382345997E+03  0.19918477652E+03  0.34135726925E+03  0.17217773432E+03 0.  0.
        -24    2    5    5    0    0 -0.40237026711E+02  0.62140898748E+02  0.17255634672E+02  0.10906239750E+03  0.78207032959E+02 0.  0.
          5    1    3    3  501    0 -0.11653837757E+02 -0.27028521909E+02  0.15519455570E+02  0.33605006059E+02  0.47000000000E+01 0. -1.
        -13    1    4    4    0    0  0.48513814520E+02 -0.68677940584E+02 -0.13324490904E+03  0.15755778466E+03  0.00000000000E+00 0.  1.
         14    1    4    4    0    0  0.10585271308E+03 -0.68116997481E+02 -0.68518750971E+02  0.14331622883E+03  0.00000000000E+00 0. -1.
         -5    1    5    5    0  502 -0.10247566313E+03  0.10168256123E+03  0.18192914184E+03  0.23229487176E+03  0.47000000000E+01 0.  1.
         11    1    6    6    0    0  0.17967316311E+02 -0.19665420476E+01 -0.66102044638E+01  0.19245429226E+02  0.00000000000E+00 0. -1.
        -12    1    6    6    0    0 -0.58204343021E+02  0.64107440795E+02  0.23865839135E+02  0.89816968272E+02  0.00000000000E+00 0.  1.
</event>
<event>
12    1  0.1039610E+000  0.1833195E+03  0.7818608E-02  0.1165805E+00
         21   -1    0    0  501  502  0.00000000000E+00  0.00000000000E+00  0.83157920021E+03  0.83157920021E+03  0.00000000000E+00 0. -1.
         21   -1    0    0  502  503 -0.00000000000E+00 -0.00000000000E+00 -0.44945353707E+02  0.44945353707E+02  0.00000000000E+00 0. -1.
         -6    2    1    2    0  503  0.37283688753E+02 -0.27931934804E+02  0.54344014601E+03  0.57197697490E+03  0.17222137234E+03 0.  0.
        -24    2    3    3    0    0  0.86677275704E+02 -0.42554726847E+02  0.39042039514E+03  0.41045085740E+03  0.81963202093E+02 0.  0.
          6    2    1    2  501    0 -0.37283688753E+02  0.27931934804E+02  0.24319370049E+03  0.30454757901E+03  0.17730139733E+03 0.  0.
         24    2    5    5    0    0  0.32247457411E+02  0.41316655255E+02  0.19746928095E+03  0.22012872110E+03  0.81948596236E+02 0.  0.
          5    1    5    5  501    0 -0.69531146164E+02 -0.13384720451E+02  0.45724419541E+02  0.84418857910E+02  0.47000000000E+01 0. -1.
        -11    1    6    6    0    0  0.30294488064E+02 -0.17088340239E+02  0.45217476007E+02  0.57047239334E+02  0.00000000000E+00 0.  1.
         12    1    6    6    0    0  0.19529693470E+01  0.58404995494E+02  0.15225180494E+03  0.16308148177E+03  0.00000000000E+00 0. -1.
         -5    1    3    3    0  503 -0.49393586951E+02  0.14622792043E+02  0.15301975087E+03  0.16152611750E+03  0.47000000000E+01 0.  1.
         13    1    4    4    0    0  0.32379023326E+02 -0.61050545691E+02  0.20212867110E+03  0.21361547220E+03  0.00000000000E+00 0. -1.
        -14    1    4    4    0    0  0.54298252378E+02  0.18495818844E+02  0.18829172404E+03  0.19683538520E+03  0.00000000000E+00 0.  1.
</event>
<event>
12    1  0.1039610E+000  0.1986281E+03  0.7818608E-02  0.1151210E+00
         21   -1    0    0  503  502  0.00000000000E+00  0.00000000000E+00  0.14896122339E+03  0.14896122339E+03  0.00000000000E+00 0. -1.
         21   -1    0    0  501  503 -0.00000000000E+00 -0.00000000000E+00 -0.35330234374E+03  0.35330234374E+03  0.00000000000E+00 0. -1.
          6    2    1    2  501    0  0.72006062690E+02 -0.67232161009E+02  0.24559997112E+02  0.20014074394E+03  0.17247633863E+03 0.  0.
         24    2    3    3    0    0  0.93779771829E+02 -0.52889653033E+02 -0.30796237948E+02  0.13877133214E+03  0.81957997472E+02 0.  0.
         -6    2    1    2    0  502 -0.72006062690E+02  0.67232161009E+02 -0.22890111747E+03  0.30212282319E+03  0.17081405732E+03 0.  0.
        -24    2    5    5    0    0 -0.84836040835E+02  0.45348989152E+02 -0.24258511308E+03  0.27291968491E+03  0.79899516147E+02 0.  0.
          5    1    3    3  501    0 -0.21773709139E+02 -0.14342507976E+02  0.55356235059E+02  0.61369411800E+02  0.47000000000E+01 0. -1.
        -13    1    4    4    0    0  0.12455463379E+02 -0.50358624665E+02 -0.29065172421E+00  0.51876913214E+02  0.00000000000E+00 0.  1.
         14    1    4    4    0    0  0.81324308451E+02 -0.25310283678E+01 -0.30505586224E+02  0.86894418926E+02  0.00000000000E+00 0. -1.
         -5    1    5    5    0  502  0.12829978145E+02  0.21883171857E+02  0.13683995612E+02  0.29203138285E+02  0.47000000000E+01 0.  1.
         13    1    6    6    0    0 -0.27364846105E+02 -0.19664240160E+02 -0.38565435160E+02  0.51213376500E+02  0.00000000000E+00 0. -1.
        -14    1    6    6    0    0 -0.57471194730E+02  0.65013229312E+02 -0.20401967792E+03  0.22170630841E+03  0.00000000000E+00 0.  1.
</event>
<event>
12    1  0.1039610E+000  0.2177427E+03  0.7818608E-02  0.1138328E+00
         21   -1    0    0  501  502  0.00000000000E+00  0.00000000000E+00  0.13825579279E+04  0.13825579279E+04  0.00000000000E+00 0. -1.
         21   -1    0    0  502  503 -0.00000000000E+00 -0.00000000000E+00 -0.40542841931E+02  0.40542841931E+02  0.00000000000E+00 0. -1.
         -6    2    1    2    0  503 -0.84777792638E+01 -0.13357291368E+03  0.32901975732E+03  0.38696785507E+03  0.15354648853E+03 0.  0.
        -24    2    3    3    0    0  0.29750811713E+02 -0.54159321778E+02  0.10412512164E+03  0.14537391702E+03  0.80456148672E+02 0.  0.
          6    2    1    2  501    0  0.84777792638E+01  0.13357291368E+03  0.10129953286E+04  0.10361329148E+04  0.17175064825E+03 0.  0.
         24    2    5    5    0    0 -0.38187757139E+02  0.13245957364E+03  0.89876485583E+03  0.91264363290E+03  0.78334482534E+02 0.  0.
          5    1    5    5  501    0  0.46665536403E+02  0.11133400379E+01  0.11423047282E+03  0.12348928186E+03  0.47000000000E+01 0. -1.
        -11    1    6    6    0    0 -0.93708242948E+01  0.11687406105E+03  0.55087405174E+03  0.56321361789E+03  0.00000000000E+00 0.  1.
         12    1    6    6    0    0 -0.28816932844E+02  0.15585512594E+02  0.34789080409E+03  0.34943001501E+03  0.00000000000E+00 0. -1.
         -5    1    3    3    0  503 -0.38228590977E+02 -0.79413591901E+02  0.22489463568E+03  0.24159393805E+03  0.47000000000E+01 0.  1.
         11    1    4    4    0    0  0.24262188061E+02 -0.71462551803E+02  0.56110128075E+02  0.94041993557E+02  0.00000000000E+00 0. -1.
        -12    1    4    4    0    0  0.54886236520E+01  0.17303230025E+02  0.48014993565E+02  0.51331923458E+02  0.00000000000E+00 0.  1.
</event>
<event>
12    1  0.1039610E+000  0.4101130E+03  0.7818608E-02  0.1040543E+00
         21   -1    0    0  503  502  0.00000000000E+00  0.00000000000E+00  0.18431556746E+04  0.18431556746E+04  0.00000000000E+00 0.  1.
         21   -1    0    0  501  503 -0.00000000000E+00 -0.00000000000E+00 -0.24861133178E+03  0.24861133178E+03  0.00000000000E+00 0.  1.
          6    2    1    2  501    0 -0.21875324876E+03 -0.29804265366E+03 -0.35389997599E+02  0.41163713811E+03  0.17751133569E+03 0.  0.
         24    2    3    3    0    0 -0.42412137786E+02 -0.44112807147E+02  0.17253638833E+02  0.97997222240E+02  0.74572369735E+02 0.  0.
         -6    2    1    2    0  502  0.21875324876E+03  0.29804265366E+03  0.16299343404E+04  0.16801298683E+04  0.17166249715E+03 0.  0.
        -24    2    5    5    0    0  0.20381795609E+03  0.17402483739E+03  0.10326329876E+04  0.10698885408E+04  0.80648616336E+02 0.  0.
          5    1    3    3  501    0 -0.17634111098E+03 -0.25392984652E+03 -0.52643636433E+02  0.31363991587E+03  0.47000000000E+01 0. -1.
        -11    1    4    4    0    0  0.11729340143E+02 -0.14760486672E+02  0.29687776137E+02  0.35168358490E+02  0.00000000000E+00 0.  1.
         12    1    4    4    0    0 -0.54141477929E+02 -0.29352320475E+02 -0.12434137303E+02  0.62828863750E+02  0.00000000000E+00 0. -1.
         -5    1    5    5    0  502  0.14935292672E+02  0.12401781627E+03  0.59730135284E+03  0.61024132753E+03  0.47000000000E+01 0.  1.
         11    1    6    6    0    0  0.87536391520E+02  0.36012457425E+02  0.26725547558E+03  0.28352249674E+03  0.00000000000E+00 0. -1.
        -12    1    6    6    0    0  0.11628156457E+03  0.13801237996E+03  0.76537751201E+03  0.78636604401E+03  0.00000000000E+00 0.  1.
</event>
<event>
12    1  0.1039610E+000  0.1813521E+03  0.7818608E-02  0.1166762E+00
         21   -1    0    0  503  502  0.00000000000E+00  0.00000000000E+00  0.21323413503E+02  0.21323413503E+02  0.00000000000E+00 0. -1.
         21   -1    0    0  501  503 -0.00000000000E+00 -0.00000000000E+00 -0.16800447598E+04  0.16800447598E+04  0.00000000000E+00 0. -1.
          6    2    1    2  501    0 -0.46987877170E+02  0.30883976446E+02 -0.57555921405E+03  0.60312922781E+03  0.17127397922E+03 0.  0.
         24    2    3    3    0    0 -0.87464464453E+02  0.35423231537E+02 -0.51771389879E+03  0.53222697501E+03  0.79580362223E+02 0.  0.
         -6    2    1    2    0  502  0.46987877170E+02 -0.30883976446E+02 -0.10831621322E+04  0.10982389455E+04  0.17241489513E+03 0.  0.
        -24    2    5    5    0    0  0.41310506523E+02  0.29384694571E+02 -0.90444662374E+03  0.90949078464E+03  0.81115805669E+02 0.  0.
          5    1    3    3  501    0  0.40476587283E+02 -0.45392550911E+01 -0.57845315259E+02  0.70902252801E+02  0.47000000000E+01 0. -1.
        -13    1    4    4    0    0 -0.50858931788E+02  0.45493577633E+02 -0.18197174328E+03  0.19434508458E+03  0.00000000000E+00 0.  1.
         14    1    4    4    0    0 -0.36605532665E+02 -0.10070346096E+02 -0.33574215551E+03  0.33788189043E+03  0.00000000000E+00 0. -1.
         -5    1    5    5    0  502  0.56773706475E+01 -0.60268671017E+02 -0.17871550849E+03  0.18874816084E+03  0.47000000000E+01 0.  1.
         13    1    6    6    0    0 -0.20111868408E+02  0.26370211151E+02 -0.25722164904E+03  0.25935082808E+03  0.00000000000E+00 0. -1.
        -14    1    6    6    0    0  0.61422374931E+02  0.30144834198E+01 -0.64722497470E+03  0.65013995657E+03  0.00000000000E+00 0.  1.
</event>
<event>
12    1  0.1039610E+000  0.2013748E+03  0.7818608E-02  0.1148659E+00
         21   -1    0    0  501  502  0.00000000000E+00  0.00000000000E+00  0.17011300263E+03  0.17011300263E+03  0.00000000000E+00 0. -1.
         21   -1    0    0  502  503 -0.00000000000E+00 -0.00000000000E+00 -0.70093328678E+03  0.70093328678E+03  0.00000000000E+00 0. -1.
         -6    2    1    2    0  503 -0.19601190597E+02  0.10299242862E+03  0.88626730320E+02  0.21968893374E+03  0.17151350749E+03 0.  0.
        -24    2    3    3    0    0  0.43231396311E+02  0.84347803192E+02  0.20415656833E+02  0.12497675616E+03  0.78859907470E+02 0.  0.
          6    2    1    2  501    0  0.19601190597E+02 -0.10299242862E+03 -0.61944701448E+03  0.65135735567E+03  0.17193066631E+03 0.  0.
         24    2    5    5    0    0 -0.33848242906E+02 -0.11530108291E+03 -0.47438966081E+03  0.49620558879E+03  0.82063346254E+02 0.  0.
          5    1    5    5  501    0  0.53449433503E+02  0.12308654293E+02 -0.14505735367E+03  0.15515176688E+03  0.47000000000E+01 0. -1.
        -11    1    6    6    0    0  0.16330865741E+02 -0.80627453872E+02 -0.22827744319E+03  0.24264804669E+03  0.00000000000E+00 0.  1.
         12    1    6    6    0    0 -0.50179108647E+02 -0.34673629042E+02 -0.24611221762E+03  0.25355754210E+03  0.00000000000E+00 0. -1.
         -5    1    3    3    0  503 -0.62832586908E+02  0.18644625430E+02  0.68211073487E+02  0.94712177576E+02  0.47000000000E+01 0.  1.
         11    1    4    4    0    0  0.21036332804E+02  0.58116843487E+01 -0.23688747255E+02  0.32209621533E+02  0.00000000000E+00 0. -1.
        -12    1    4    4    0    0  0.22195063507E+02  0.78536118843E+02  0.44104404087E+02  0.92767134627E+02  0.00000000000E+00 0.  1.
</event>
<event>
12    1  0.1039610E+000  0.1903229E+03  0.7818608E-02  0.1158775E+00
         21   -1    0    0  501  502  0.00000000000E+00  0.00000000000E+00  0.36187268281E+02  0.36187268281E+02  0.00000000000E+00 0.  1.
         21   -1    0    0  502  503 -0.00000000000E+00 -0.00000000000E+00 -0.10024420867E+04  0.10024420867E+04  0.00000000000E+00 0.  1.
         -6    2    1    2    0  503  0.29835416224E+02  0.68223096167E+02 -0.42204182816E+03  0.46297095029E+03  0.17515208588E+03 0.  0.
        -24    2    3    3    0    0  0.20135699027E+02 -0.39036060137E+02 -0.24628097362E+03  0.25678516244E+03  0.57922718471E+02 0.  0.
          6    2    1    2  501    0 -0.29835416224E+02 -0.68223096167E+02 -0.54421299029E+03  0.57565840472E+03  0.17225062325E+03 0.  0.
         24    2    5    5    0    0  0.41648455446E+02 -0.11963274720E+02 -0.34565526891E+03  0.35720390113E+03  0.78989545347E+02 0.  0.
          5    1    5    5  501    0 -0.71483871670E+02 -0.56259821447E+02 -0.19855772138E+03  0.21845450359E+03  0.47000000000E+01 0. -1.
        -11    1    6    6    0    0  0.10732551733E+02 -0.75041926260E+01 -0.30800535308E+03  0.30828363256E+03  0.00000000000E+00 0.  1.
         12    1    6    6    0    0  0.30915903713E+02 -0.44590820936E+01 -0.37649915821E+02  0.48920268569E+02  0.00000000000E+00 0. -1.
         -5    1    3    3    0  503  0.96997171973E+01  0.10725915630E+03 -0.17576085454E+03  0.20618578785E+03  0.47000000000E+01 0.  1.
         11    1    4    4    0    0  0.33653274918E+02 -0.32592375842E+01 -0.13262432382E+03  0.13686627346E+03  0.00000000000E+00 0. -1.
        -12    1    4    4    0    0 -0.13517575891E+02 -0.35776822552E+02 -0.11365664980E+03  0.11991888898E+03  0.00000000000E+00 0.  1.
</event>
<event>
12    1  0.1039610E+000  0.1832434E+03  0.7818608E-02  0.1164786E+00
         21   -1    0    0  503  502  0.00000000000E+00  0.00000000000E+00  0.14154730635E+03  0.14154730635E+03  0.00000000000E+00 0. -1.
         21   -1    0    0  501  503 -0.00000000000E+00 -0.00000000000E+00 -0.47316866695E+03  0.47316866695E+03  0.00000000000E+00 0. -1.
          6    2    1    2  501    0  0.49331059567E+02  0.37216595105E+02  0.51364776746E+02  0.19030624343E+03  0.17250941311E+03 0.  0.
         24    2    3    3    0    0 -0.33700254631E+02  0.16880018238E+01  0.14256561738E+01  0.86998519415E+02  0.80175765494E+02 0.  0.
         -6    2    1    2    0  502 -0.49331059567E+02 -0.37216595105E+02 -0.38298613735E+03  0.42440972987E+03  0.17212381885E+03 0.  0.
        -24    2    5    5    0    0  0.39535455006E+02 -0.17127185721E+02 -0.16707118297E+03  0.19001220576E+03  0.79595637230E+02 0.  0.
          5    1    3    3  501    0  0.83031314199E+02  0.35528593281E+02  0.49939120572E+02  0.10330772402E+03  0.47000000000E+01 0. -1.
        -13    1    4    4    0    0 -0.50501601375E+02  0.47415728845E+01  0.26058219740E+02  0.57025652744E+02  0.00000000000E+00 0.  1.
         14    1    4    4    0    0  0.16801346744E+02 -0.30535710608E+01 -0.24632563566E+02  0.29972866671E+02  0.00000000000E+00 0. -1.
         -5    1    5    5    0  502 -0.88866514573E+02 -0.20089409385E+02 -0.21591495438E+03  0.23439752411E+03  0.47000000000E+01 0.  1.
         13    1    6    6    0    0 -0.84881806375E+01 -0.21296654913E+02 -0.87895576577E+01  0.24553065895E+02  0.00000000000E+00 0. -1.
        -14    1    6    6    0    0  0.48023635644E+02  0.41694691927E+01 -0.15828162531E+03  0.16545913987E+03  0.00000000000E+00 0.  1.
</event>
<event>
12    1  0.1039610E+000  0.2187158E+03  0.7818608E-02  0.1134995E+00
         21   -1    0    0  503  502  0.00000000000E+00  0.00000000000E+00  0.58646059010E+02  0.58646059010E+02  0.00000000000E+00 0.  1.
         21   -1    0    0  501  503 -0.00000000000E+00 -0.00000000000E+00 -0.88006056275E+03  0.88006056275E+03  0.00000000000E+00 0.  1.
          6    2    1    2  501    0 -0.41515800382E+01 -0.13543761496E+03 -0.28154720258E+03  0.35651845374E+03  0.17168575193E+03 0.  0.
         24    2    3    3    0    0  0.52158135598E+02 -0.86182681825E+02 -0.23705962388E+03  0.26935156110E+03  0.78772282179E+02 0.  0.
         -6    2    1    2    0  502  0.41515800382E+01  0.13543761496E+03 -0.53986730117E+03  0.58218816802E+03  0.17066275796E+03 0.  0.
        -24    2    5    5    0    0  0.57459164877E+02  0.13149642125E+03 -0.41457899346E+03  0.44589260075E+03  0.79696958282E+02 0.  0.
          5    1    3    3  501    0 -0.56309715636E+02 -0.49254933137E+02 -0.44487578698E+02  0.87166892636E+02  0.47000000000E+01 0. -1.
        -11    1    4    4    0    0 -0.74221605208E+01  0.31676775870E+00  0.24509800016E+01  0.78227943586E+01  0.00000000000E+00 0.  1.
         12    1    4    4    0    0  0.59580296119E+02 -0.86499449583E+02 -0.23951060388E+03  0.26152876674E+03  0.00000000000E+00 0. -1.
         -5    1    5    5    0  502 -0.53307584838E+02  0.39411937136E+01 -0.12528830771E+03  0.13629556727E+03  0.47000000000E+01 0.  1.
         11    1    6    6    0    0  0.73113856663E+02  0.77502547199E+02 -0.24282145146E+03  0.26516888608E+03  0.00000000000E+00 0. -1.
        -12    1    6    6    0    0 -0.15654691786E+02  0.53993874050E+02 -0.17175754200E+03  0.18072371467E+03  0.00000000000E+00 0.  1.
</event>
<event>
12    1  0.1039610E+000  0.1841275E+03  0.7818608E-02  0.1164448E+00
         21   -1    0    0  503  502  0.00000000000E+00  0.00000000000E+00  0.13950242958E+04  0.13950242958E+04  0.00000000000E+00 0. -1.
         21   -1    0    0  501  503 -0.00000000000E+00 -0.00000000000E+00 -0.73088040300E+02  0.73088040300E+02  0.00000000000E+00 0. -1.
          6    2    1    2  501    0  0.41294032908E+02  0.38466349260E+02  0.12641221363E+04  0.12774614273E+04  0.17526570005E+03 0.  0.
         24    2    3    3    0    0  0.95945297634E+02  0.29151765381E+02  0.82980234814E+03  0.83959239370E+03  0.79297698712E+02 0.  0.
         -6    2    1    2    0  502 -0.41294032908E+02 -0.38466349260E+02  0.57814119203E+02  0.19065090879E+03  0.17268595619E+03 0.  0.
        -24    2    5    5    0    0 -0.58887407554E+02 -0.27306295404E+02 -0.22426279291E+02  0.10761666776E+03  0.82855589064E+02 0.  0.
          5    1    3    3  501    0 -0.54651264726E+02  0.93145838795E+01  0.43431978813E+03  0.43786903358E+03  0.47000000000E+01 0. -1.
        -11    1    4    4    0    0  0.70602626986E+02  0.51518733648E+02  0.45859761000E+03  0.46685188096E+03  0.00000000000E+00 0.  1.
         12    1    4    4    0    0  0.25342670648E+02 -0.22366968267E+02  0.37120473814E+03  0.37274051275E+03  0.00000000000E+00 0. -1.
         -5    1    5    5    0  502  0.17593374646E+02 -0.11160053856E+02  0.80240398494E+02  0.83034241033E+02  0.47000000000E+01 0.  1.
         13    1    6    6    0    0 -0.34531854290E+02 -0.64253304699E+01 -0.52814432037E+02  0.63427896573E+02  0.00000000000E+00 0. -1.
        -14    1    6    6    0    0 -0.24355553265E+02 -0.20880964934E+02  0.30388152746E+02  0.44188771184E+02  0.00000000000E+00 0.  1.
</event>
<event>
12    1  0.1039610E+000  0.2818439E+03  0.7818608E-02  0.1094769E+00
         21   -1    0    0  503  502  0.00000000000E+00  0.00000000000E+00  0.69706295922E+02  0.69706295922E+02  0.00000000000E+00 0. -1.
         21   -1    0    0  501  503 -0.00000000000E+00 -0.00000000000E+00 -0.12246926539E+04  0.12246926539E+04  0.00000000000E+00 0.  1.
          6    2    1    2  501    0  0.16930226738E+03  0.14440399568E+03 -0.75113878966E+03  0.80227517593E+03  0.17297457869E+03 0.  0.
         24    2    3    3    0    0  0.61567228664E+02  0.96861312440E+02 -0.23267569561E+03  0.27058615480E+03  0.76852133018E+02 0.  0.
         -6    2    1    2    0  502 -0.16930226738E+03 -0.14440399568E+03 -0.40384756829E+03  0.49212377386E+03  0.17198016944E+03 0.  0.
        -24    2    5    5    0    0 -0.82436229592E+02 -0.12127859867E+03 -0.34864894294E+03  0.38653271956E+03  0.79669488715E+02 0.  0.
          5    1    3    3  501    0  0.10773503872E+03  0.47542683238E+02 -0.51846309406E+03  0.53168902113E+03  0.47000000000E+01 0. -1.
        -11    1    4    4    0    0  0.35977235978E+02 -0.15623157166E+01 -0.51915895840E+02  0.63182771227E+02  0.00000000000E+00 0.  1.
         12    1    4    4    0    0  0.25589992686E+02  0.98423628157E+02 -0.18075979976E+03  0.20740338357E+03  0.00000000000E+00 0. -1.
         -5    1    5    5    0  502 -0.86866037791E+02 -0.23125397012E+02 -0.55198625345E+02  0.10559105430E+03  0.47000000000E+01 0.  1.
         13    1    6    6    0    0 -0.62286096974E+02 -0.22792633978E+02 -0.14253373945E+03  0.15720982450E+03  0.00000000000E+00 0. -1.
        -14    1    6    6    0    0 -0.20150132619E+02 -0.98485964688E+02 -0.20611520350E+03  0.22932289506E+03  0.00000000000E+00 0.  1.
</event>
<event>
12    1  0.1039610E+000  0.2128652E+03  0.7818608E-02  0.1139560E+00
         21   -1    0    0  503  502  0.00000000000E+00  0.00000000000E+00  0.83406351910E+03  0.83406351910E+03  0.00000000000E+00 0. -1.
         21   -1    0    0  501  503 -0.00000000000E+00 -0.00000000000E+00 -0.75759519195E+02  0.75759519195E+02  0.00000000000E+00 0. -1.
          6    2    1    2  501    0 -0.11775982534E+03  0.40119886656E+02  0.62368986773E+03  0.65901489071E+03  0.17272693274E+03 0.  0.
         24    2    3    3    0    0 -0.32358812869E+02  0.13465601048E+02  0.49291026457E+03  0.50049303582E+03  0.79399841362E+02 0.  0.
         -6    2    1    2    0  502  0.11775982534E+03 -0.40119886656E+02  0.13461413217E+03  0.25080814759E+03  0.17119223273E+03 0.  0.
        -24    2    5    5    0    0  0.12930012486E+03 -0.20403463626E+02  0.15676448997E+03  0.21864226193E+03  0.78067341244E+02 0.  0.
          5    1    3    3  501    0 -0.85401012473E+02  0.26654285608E+02  0.13077960316E+03  0.15852185488E+03  0.47000000000E+01 0. -1.
        -13    1    4    4    0    0 -0.12053466569E+02 -0.27793474452E+02  0.32470617126E+03  0.32611633037E+03  0.00000000000E+00 0.  1.
         14    1    4    4    0    0 -0.20305346300E+02  0.41259075500E+02  0.16820409331E+03  0.17437670545E+03  0.00000000000E+00 0. -1.
         -5    1    5    5    0  502 -0.11540299520E+02 -0.19716423030E+02 -0.22150357791E+02  0.32165885661E+02  0.47000000000E+01 0.  1.
         13    1    6    6    0    0  0.38980776223E+02 -0.44274774936E+02  0.60190675528E+02  0.84277363693E+02  0.00000000000E+00 0. -1.
        -14    1    6    6    0    0  0.90319348639E+02  0.23871311310E+02  0.96573814438E+02  0.13436489823E+03  0.00000000000E+00 0.  1.
</event>
<event>
12    1  0.1039610E+000  0.2190151E+03  0.7818608E-02  0.1134698E+00
         21   -1    0    0  501  502  0.00000000000E+00  0.00000000000E+00  0.16512877165E+03  0.16512877165E+03  0.00000000000E+00 0.  1.
         21   -1    0    0  502  503 -0.00000000000E+00 -0.00000000000E+00 -0.29895964704E+03  0.29895964704E+03  0.00000000000E+00 0.  1.
         -6    2    1    2    0  503 -0.10562351949E+03 -0.84867654945E+02 -0.26653971546E+02  0.22063104786E+03  0.17207201502E+03 0.  0.
        -24    2    3    3    0    0 -0.60970939690E+02 -0.11243307567E+03  0.18261762101E+02  0.15139797461E+03  0.78925298671E+02 0.  0.
          6    2    1    2  501    0  0.10562351949E+03  0.84867654945E+02 -0.10717690385E+03  0.24345737083E+03  0.17153937148E+03 0.  0.
         24    2    5    5    0    0 -0.10657611358E+02  0.47479965662E+02 -0.64772384791E+02  0.11407663835E+03  0.80312425974E+02 0.  0.
          5    1    5    5  501    0  0.11628113085E+03  0.37387689283E+02 -0.42404519054E+02  0.12938073248E+03  0.47000000000E+01 0. -1.
        -11    1    6    6    0    0 -0.22040821698E+02  0.34836632424E+02  0.56675048674E+01  0.41611409387E+02  0.00000000000E+00 0.  1.
         12    1    6    6    0    0  0.11383210340E+02  0.12643333238E+02 -0.70439889659E+02  0.72465228960E+02  0.00000000000E+00 0. -1.
         -5    1    3    3    0  503 -0.44652579803E+02  0.27565420721E+02 -0.44915733647E+02  0.69233073251E+02  0.47000000000E+01 0.  1.
         13    1    4    4    0    0  0.17783279344E+01 -0.26527162603E+02 -0.25057025526E+02  0.36533646604E+02  0.00000000000E+00 0. -1.
        -14    1    4    4    0    0 -0.62749267625E+02 -0.85905913063E+02  0.43318787626E+02  0.11486432801E+03  0.00000000000E+00 0.  1.
</event>
<event>
12    1  0.1039610E+000  0.1783362E+03  0.7818608E-02  0.1170175E+00
         21   -1    0    0  501  502  0.00000000000E+00  0.00000000000E+00  0.86760242325E+02  0.86760242325E+02  0.00000000000E+00 0. -1.
         21   -1    0    0  502  503 -0.00000000000E+00 -0.00000000000E+00 -0.36805319359E+03  0.36805319359E+03  0.00000000000E+00 0. -1.
         -6    2    1    2    0  503  0.21487540768E+02  0.32881305486E+02 -0.10654956631E+03  0.20513553008E+03  0.17083583045E+03 0.  0.
        -24    2    3    3    0    0  0.58431513584E+02  0.66665258035E+02 -0.48686789653E+02  0.12847782663E+03  0.79231622724E+02 0.  0.
          6    2    1    2  501    0 -0.21487540768E+02 -0.32881305486E+02 -0.17474338496E+03  0.24967790583E+03  0.17395663659E+03 0.  0.
         24    2    5    5    0    0 -0.69020892613E+02 -0.14496794312E+02 -0.56512333726E+02  0.12084436492E+03  0.80222665168E+02 0.  0.
          5    1    5    5  501    0  0.47533351845E+02 -0.18384511174E+02 -0.11823105124E+03  0.12883354092E+03  0.47000000000E+01 0. -1.
        -11    1    6    6    0    0 -0.55386775717E+02 -0.50367439025E+01  0.62127516130E+01  0.55961254418E+02  0.00000000000E+00 0.  1.
         12    1    6    6    0    0 -0.13634116897E+02 -0.94600504098E+01 -0.62725085339E+02  0.64883110500E+02  0.00000000000E+00 0. -1.
         -5    1    3    3    0  503 -0.36943972816E+02 -0.33783952549E+02 -0.57862776654E+02  0.76657703457E+02  0.47000000000E+01 0.  1.
         11    1    4    4    0    0  0.58353151410E+02  0.35093609345E+02  0.27231883060E+01  0.68147395041E+02  0.00000000000E+00 0. -1.
        -12    1    4    4    0    0  0.78362174586E-01  0.31571648690E+02 -0.51409977959E+02  0.60330431587E+02  0.00000000000E+00 0.  1.
</event>
<event>
12    1  0.1039610E+000  0.2858922E+03  0.7818608E-02  0.1092912E+00
         21   -1    0    0  503  502  0.00000000000E+00  0.00000000000E+00  0.17416323645E+03  0.17416323645E+03  0.00000000000E+00 0. -1.
         21   -1    0    0  501  503 -0.00000000000E+00 -0.00000000000E+00 -0.48385016447E+03  0.48385016447E+03  0.00000000000E+00 0.  1.
          6    2    1    2  501    0  0.54811645572E+02  0.21957086837E+03 -0.89695082664E+02  0.29963234154E+03  0.17469587722E+03 0.  0.
         24    2    3    3    0    0  0.69706793619E+02  0.22142613753E+03 -0.41132908213E+02  0.24858645781E+03  0.78833618535E+02 0.  0.
         -6    2    1    2    0  502 -0.54811645572E+02 -0.21957086837E+03 -0.21999184536E+03  0.35838105937E+03  0.16977894146E+03 0.  0.
        -24    2    5    5    0    0 -0.14868714152E+02 -0.22519284021E+03 -0.16868632439E+03  0.29294872165E+03  0.80193413318E+02 0.  0.
          5    1    3    3  501    0 -0.14895148047E+02 -0.18552691552E+01 -0.48562174451E+02  0.51045883736E+02  0.47000000000E+01 0. -1.
        -11    1    4    4    0    0  0.12645987953E+02  0.15762825729E+03 -0.39431936998E+02  0.16297688843E+03  0.00000000000E+00 0.  1.
         12    1    4    4    0    0  0.57060805666E+02  0.63797880240E+02 -0.17009712153E+01  0.85609569380E+02  0.00000000000E+00 0. -1.
         -5    1    5    5    0  502 -0.39942931420E+02  0.56219718344E+01 -0.51305520973E+02  0.65432337724E+02  0.47000000000E+01 0.  1.
         13    1    6    6    0    0  0.15025466061E+02 -0.58480889210E+02 -0.10678018024E+02  0.61317200703E+02  0.00000000000E+00 0. -1.
        -14    1    6    6    0    0 -0.29894180213E+02 -0.16671195100E+03 -0.15800830637E+03  0.23163152095E+03  0.00000000000E+00 0.  1.
</event>
<event>
12    1  0.1039610E+000  0.1956668E+03  0.7818608E-02  0.1154484E+00
         21   -1    0    0  501  502  0.00000000000E+00  0.00000000000E+00  0.34728119558E+03  0.34728119558E+03  0.00000000000E+00 0. -1.
         21   -1    0    0  502  503 -0.00000000000E+00 -0.00000000000E+00 -0.10786753605E+03  0.10786753605E+03  0.00000000000E+00 0. -1.
         -6    2    1    2    0  503 -0.79056030387E+02 -0.27597053864E+02  0.13241362803E+03  0.23626017283E+03  0.17684469756E+03 0.  0.
        -24    2    3    3    0    0  0.81466795913E+01 -0.39236442000E+02  0.11729891913E+03  0.14687151354E+03  0.78780316656E+02 0.  0.
          6    2    1    2  501    0  0.79056030387E+02  0.27597053864E+02  0.10700003151E+03  0.21888855880E+03  0.17161509581E+03 0.  0.
         24    2    5    5    0    0  0.10952060536E+03  0.22722722064E+02  0.12218437545E+03  0.18418259765E+03  0.80517840110E+02 0.  0.
          5    1    5    5  501    0 -0.30464574969E+02  0.48743318000E+01 -0.15184343945E+02  0.34705961153E+02  0.47000000000E+01 0. -1.
        -11    1    6    6    0    0  0.55155741112E+02  0.17693038695E+01  0.76911603916E+01  0.55717503192E+02  0.00000000000E+00 0.  1.
         12    1    6    6    0    0  0.54364864243E+02  0.20953418195E+02  0.11449321506E+03  0.12846509446E+03  0.00000000000E+00 0. -1.
         -5    1    3    3    0  503 -0.87202709978E+02  0.11639388135E+02  0.15114708896E+02  0.89388659285E+02  0.47000000000E+01 0.  1.
         11    1    4    4    0    0  0.28935713852E+02  0.13330013717E+02  0.42411691029E+02  0.53044475092E+02  0.00000000000E+00 0. -1.
        -12    1    4    4    0    0 -0.20789034261E+02 -0.52566455716E+02  0.74887228100E+02  0.93827038451E+02  0.00000000000E+00 0.  1.
</event>
<event>
12    1  0.1039610E+000  0.1830665E+03  0.7818608E-02  0.1165380E+00
         21   -1    0    0  503  502  0.00000000000E+00  0.00000000000E+00  0.27181268419E+03  0.27181268419E+03  0.00000000000E+00 0. -1.
         21   -1    0    0  501  503 -0.00000000000E+00 -0.00000000000E+00 -0.17217817030E+03  0.17217817030E+03  0.00000000000E+00 0. -1.
          6    2    1    2  501    0  0.23087172342E+02 -0.57549007673E+02 -0.70410767944E+02  0.19413342415E+03  0.16995647772E+03 0.  0.
         24    2    3    3    0    0  0.16444229451E+02 -0.41750802287E+02 -0.11405543751E+03  0.14700955371E+03  0.81176498334E+02 0.  0.
         -6    2    1    2    0  502 -0.23087172342E+02  0.57549007673E+02  0.17004528183E+03  0.24985743035E+03  0.17224526645E+03 0.  0.
        -24    2    5    5    0    0 -0.26955199291E+02  0.56360192374E+02  0.19576254539E+03  0.22340289275E+03  0.87651721364E+02 0.  0.
          5    1    3    3  501    0  0.66429428916E+01 -0.15798205386E+02  0.43644669567E+02  0.47123870441E+02  0.47000000000E+01 0. -1.
        -13    1    4    4    0    0  0.15096182163E+02 -0.55238700521E+02 -0.35679890519E+02  0.67470462712E+02  0.00000000000E+00 0.  1.
         14    1    4    4    0    0  0.13480472876E+01  0.13487898234E+02 -0.78375546992E+02  0.79539090996E+02  0.00000000000E+00 0. -1.
         -5    1    5    5    0  502  0.38680269485E+01  0.11888152994E+01 -0.25717263562E+02  0.26454537596E+02  0.47000000000E+01 0.  1.
         13    1    6    6    0    0 -0.71181577205E+01  0.13685598384E+01 -0.83652752317E+01  0.11068828080E+02  0.00000000000E+00 0. -1.
        -14    1    6    6    0    0 -0.19837041570E+02  0.54991632535E+02  0.20412782063E+03  0.21233406467E+03  0.00000000000E+00 0.  1.
</event>
<event>
12    1  0.1039610E+000  0.2744637E+03  0.7818608E-02  0.1098819E+00
         21   -1    0    0  501  502  0.00000000000E+00  0.00000000000E+00  0.39000224256E+03  0.39000224256E+03  0.00000000000E+00 0.  1.
         21   -1    0    0  502  503 -0.00000000000E+00 -0.00000000000E+00 -0.76628581490E+03  0.76628581490E+03  0.00000000000E+00 0.  1.
         -6    2    1    2    0  503  0.19041886018E+03  0.95292192310E+02 -0.68824553756E+03  0.74077560975E+03  0.17241415195E+03 0.  0.
        -24    2    3    3    0    0  0.15933606497E+03  0.13326402970E+03 -0.59488943489E+03  0.63520358458E+03  0.80267495929E+02 0.  0.
          6    2    1    2  501    0 -0.19041886018E+03 -0.95292192310E+02  0.31196196522E+03  0.41551244771E+03  0.17317731441E+03 0.  0.
         24    2    5    5    0    0 -0.97567118801E+02 -0.74114334135E+02  0.83717544318E+02  0.16815126799E+03  0.79081884814E+02 0.  0.
          5    1    5    5  501    0 -0.92851741381E+02 -0.21177858175E+02  0.22824442091E+03  0.24736117971E+03  0.47000000000E+01 0. -1.
        -13    1    6    6    0    0 -0.86542174622E+02 -0.90629311937E+02  0.66472624299E+02  0.14185143620E+03  0.00000000000E+00 0.  1.
         14    1    6    6    0    0 -0.11024944179E+02  0.16514977802E+02  0.17244920019E+02  0.26299831795E+02  0.00000000000E+00 0. -1.
         -5    1    3    3    0  503  0.31082795210E+02 -0.37971837386E+02 -0.93356102667E+02  0.10557202517E+03  0.47000000000E+01 0.  1.
         13    1    4    4    0    0  0.17612345268E+02  0.49953986920E+02 -0.92397897737E+02  0.10650336624E+03  0.00000000000E+00 0. -1.
        -14    1    4    4    0    0  0.14172371970E+03  0.83310042776E+02 -0.50249153716E+03  0.52870021834E+03  0.00000000000E+00 0.  1.
</event>
<event>
12    1  0.1039610E+000  0.1930097E+03  0.7818608E-02  0.1155949E+00
         21   -1    0    0  501  502  0.00000000000E+00  0.00000000000E+00  0.38623466932E+03  0.38623466932E+03  0.00000000000E+00 0.  1.
         21   -1    0    0  502  503 -0.00000000000E+00 -0.00000000000E+00 -0.96067611082E+02  0.96067611082E+02  0.00000000000E+00 0.  1.
         -6    2    1    2    0  503 -0.80202874359E+02  0.30225492101E+02  0.14223641837E+03  0.23912288867E+03  0.17205370018E+03 0.  0.
        -24    2    3    3    0    0  0.78175430407E+01 -0.34560613349E+02  0.68212363502E+02  0.10703774931E+03  0.74488947297E+02 0.  0.
          6    2    1    2  501    0  0.80202874359E+02 -0.30225492101E+02  0.14793063987E+03  0.24317939174E+03  0.17293542415E+03 0.  0.
         24    2    5    5    0    0  0.18750317863E+02 -0.58705861530E+02  0.26664651329E+02  0.10420069510E+03  0.79679537091E+02 0.  0.
          5    1    5    5  501    0  0.61452556496E+02  0.28480369429E+02  0.12126598854E+03  0.13897869664E+03  0.47000000000E+01 0. -1.
        -11    1    6    6    0    0  0.14876689251E+02 -0.64077291101E+02  0.48277397939E+02  0.81596092245E+02  0.00000000000E+00 0.  1.
         12    1    6    6    0    0  0.38736286113E+01  0.53714295710E+01 -0.21612746609E+02  0.22604602856E+02  0.00000000000E+00 0. -1.
         -5    1    3    3    0  503 -0.88020417400E+02  0.64786105450E+02  0.74024054872E+02  0.13208513935E+03  0.47000000000E+01 0.  1.
         11    1    4    4    0    0  0.11783005926E+02 -0.28071487644E+01  0.73597560749E+02  0.74587668291E+02  0.00000000000E+00 0. -1.
        -12    1    4    4    0    0 -0.39654628857E+01 -0.31753464585E+02 -0.53851972474E+01  0.32450081023E+02  0.00000000000E+00 0.  1.
</event>
<event>
12    1  0.1039610E+000  0.5231226E+03  0.7818608E-02  0.1007931E+00
         21   -1    0    0  503  502  0.00000000000E+00  0.00000000000E+00  0.13755831888E+04  0.13755831888E+04  0.00000000000E+00 0. -1.
         21   -1    0    0  501  503 -0.00000000000E+00 -0.00000000000E+00 -0.21504820967E+03  0.21504820967E+03  0.00000000000E+00 0.  1.
          6    2    1    2  501    0  0.48596170614E+03 -0.88176250294E+02  0.79879528608E+03  0.95484615514E+03  0.17240487225E+03 0.  0.
         24    2    3    3    0    0  0.40196963056E+03 -0.16511121716E+02  0.66414993630E+03  0.78065654687E+03  0.80481707505E+02 0.  0.
         -6    2    1    2    0  502 -0.48596170614E+03  0.88176250294E+02  0.36173969308E+03  0.63578524337E+03  0.17156176493E+03 0.  0.
        -24    2    5    5    0    0 -0.31769476563E+03  0.89692497734E+02  0.16712514488E+03  0.37846642430E+03  0.79569541992E+02 0.  0.
          5    1    3    3  501    0  0.83992075579E+02 -0.71665128578E+02  0.13464534978E+03  0.17418960828E+03  0.47000000000E+01 0. -1.
        -13    1    4    4    0    0  0.18057853709E+03 -0.30958159189E+02  0.36289044833E+03  0.40651751889E+03  0.00000000000E+00 0.  1.
         14    1    4    4    0    0  0.22139109347E+03  0.14447037473E+02  0.30125948797E+03  0.37413902797E+03  0.00000000000E+00 0. -1.
         -5    1    5    5    0  502 -0.16826694050E+03 -0.15162474396E+01  0.19461454821E+03  0.25731881907E+03  0.47000000000E+01 0.  1.
         11    1    6    6    0    0 -0.22883207220E+03  0.10012790526E+03  0.13015580457E+03  0.28165625883E+03  0.00000000000E+00 0. -1.
        -12    1    6    6    0    0 -0.88862693438E+02 -0.10435407525E+02  0.36969340310E+02  0.96810165470E+02  0.00000000000E+00 0.  1.
</event>
<event>
12    1  0.1039610E+000  0.2056190E+03  0.7818608E-02  0.1145168E+00
         21   -1    0    0  503  502  0.00000000000E+00  0.00000000000E+00  0.27626470988E+03  0.27626470988E+03  0.00000000000E+00 0.  1.
         21   -1    0    0  501  503 -0.00000000000E+00 -0.00000000000E+00 -0.36808695163E+03  0.36808695163E+03  0.00000000000E+00 0.  1.
          6    2    1    2  501    0 -0.86372259319E+02 -0.72178218373E+02 -0.29232399285E+03  0.35715815647E+03  0.17157729905E+03 0.  0.
         24    2    3    3    0    0 -0.72933055571E+02 -0.92619796247E+02 -0.13062487227E+03  0.19355141486E+03  0.80632720945E+02 0.  0.
         -6    2    1    2    0  502  0.86372259319E+02  0.72178218373E+02  0.20050175110E+03  0.28719350505E+03  0.17207351557E+03 0.  0.
        -24    2    5    5    0    0  0.76526591820E+02 -0.96889058540E+01  0.16034712731E+03  0.19535861511E+03  0.80644857927E+02 0.  0.
          5    1    3    3  501    0 -0.13439203747E+02  0.20441577874E+02 -0.16169912058E+03  0.16360674161E+03  0.47000000000E+01 0. -1.
        -11    1    4    4    0    0 -0.56199050541E+02 -0.10155718181E+03 -0.13040567145E+03  0.17457901823E+03  0.00000000000E+00 0.  1.
         12    1    4    4    0    0 -0.16734005030E+02  0.89373855604E+01 -0.21920081890E+00  0.18972396633E+02  0.00000000000E+00 0. -1.
         -5    1    5    5    0  502  0.98456674991E+01  0.81867124227E+02  0.40154623797E+02  0.91834889938E+02  0.47000000000E+01 0.  1.
         11    1    6    6    0    0 -0.15298446179E+02 -0.23531685880E+01  0.45928587842E+02  0.48466638413E+02  0.00000000000E+00 0. -1.
        -12    1    6    6    0    0  0.91825037999E+02 -0.73357372660E+01  0.11441853946E+03  0.14689197670E+03  0.00000000000E+00 0.  1.
</event>
<event>
12    1  0.1039610E+000  0.2138957E+03  0.7818608E-02  0.1139021E+00
         21   -1    0    0  501  502  0.00000000000E+00  0.00000000000E+00  0.15147042499E+03  0.15147042499E+03  0.00000000000E+00 0.  1.
         21   -1    0    0  502  503 -0.00000000000E+00 -0.00000000000E+00 -0.29855026027E+03  0.29855026027E+03  0.00000000000E+00 0.  1.
         -6    2    1    2    0  503  0.11798948298E+03  0.44427301037E+02 -0.68155683901E+02  0.22202855842E+03  0.16957647341E+03 0.  0.
        -24    2    3    3    0    0  0.14121538099E+03  0.61918570879E+02 -0.78778258370E+02  0.19071856086E+03  0.79949122680E+02 0.  0.
          6    2    1    2  501    0 -0.11798948298E+03 -0.44427301037E+02 -0.78924151385E+02  0.22799212684E+03  0.17278913466E+03 0.  0.
         24    2    5    5    0    0  0.66590707163E+01 -0.34144966190E+02 -0.45645733108E+02  0.98483318362E+02  0.80032550289E+02 0.  0.
          5    1    5    5  501    0 -0.12464855370E+03 -0.10282334847E+02 -0.33278418277E+02  0.12950880848E+03  0.47000000000E+01 0. -1.
        -13    1    6    6    0    0  0.87295260385E+01 -0.35027533984E+02  0.14056187558E+02  0.38738987732E+02  0.00000000000E+00 0.  1.
         14    1    6    6    0    0 -0.20704553222E+01  0.88256779399E+00 -0.59701920667E+02  0.59744330630E+02  0.00000000000E+00 0. -1.
         -5    1    3    3    0  503 -0.23225898006E+02 -0.17491269842E+02  0.10622574469E+02  0.31309997560E+02  0.47000000000E+01 0.  1.
         13    1    4    4    0    0  0.68355070789E+02 -0.26593923440E+01 -0.50509688550E+01  0.68593005158E+02  0.00000000000E+00 0. -1.
        -14    1    4    4    0    0  0.72860310202E+02  0.64577963223E+02 -0.73727289515E+02  0.12212555570E+03  0.00000000000E+00 0.  1.
</event>
<event>
12    1  0.1039610E+000  0.2413115E+03  0.7818608E-02  0.1119243E+00
         21   -1    0    0  503  502  0.00000000000E+00  0.00000000000E+00  0.60362565228E+02  0.60362565228E+02  0.00000000000E+00 0.  1.
         21   -1    0    0  501  503 -0.00000000000E+00 -0.00000000000E+00 -0.99307380968E+03  0.99307380968E+03  0.00000000000E+00 0.  1.
          6    2    1    2  501    0  0.57756343659E+02 -0.15767369517E+03 -0.36774592430E+03  0.43985033340E+03  0.17330453421E+03 0.  0.
         24    2    3    3    0    0 -0.28741135765E+02 -0.11945995133E+03 -0.17697371244E+03  0.22687561429E+03  0.71106375303E+02 0.  0.
         -6    2    1    2    0  502 -0.57756343659E+02  0.15767369517E+03 -0.56496532016E+03  0.61358604151E+03  0.17060254385E+03 0.  0.
        -24    2    5    5    0    0 -0.58013007539E+02  0.14708876665E+03 -0.57284179775E+03  0.59957763377E+03  0.79655504165E+02 0.  0.
          5    1    3    3  501    0  0.86497479425E+02 -0.38213743845E+02 -0.19077221185E+03  0.21297471911E+03  0.47000000000E+01 0. -1.
        -11    1    4    4    0    0  0.10863571091E+02 -0.37206442925E+02 -0.16237944143E+02  0.42023890847E+02  0.00000000000E+00 0.  1.
         12    1    4    4    0    0 -0.39604706856E+02 -0.82253508401E+02 -0.16073576830E+03  0.18485172344E+03  0.00000000000E+00 0. -1.
         -5    1    5    5    0  502  0.25666387990E+00  0.10584928519E+02  0.78764775928E+01  0.14008407739E+02  0.47000000000E+01 0.  1.
         11    1    6    6    0    0 -0.23468082331E+02  0.17585521892E+02 -0.36919609381E+02  0.47149326881E+02  0.00000000000E+00 0. -1.
        -12    1    6    6    0    0 -0.34544925209E+02  0.12950324476E+03 -0.53592218837E+03  0.55242830689E+03  0.00000000000E+00 0.  1.
</event>
<event>
12    1  0.1039610E+000  0.1926666E+03  0.7818608E-02  0.1156092E+00
         21   -1    0    0  503  502  0.00000000000E+00  0.00000000000E+00  0.16734881347E+02  0.16734881347E+02  0.00000000000E+00 0. -1.
         21   -1    0    0  501  503 -0.00000000000E+00 -0.00000000000E+00 -0.23832019191E+04  0.23832019191E+04  0.00000000000E+00 0. -1.
          6    2    1    2  501    0 -0.85957047896E+02 -0.54638383501E+01 -0.14995256234E+04  0.15118445641E+04  0.17227426766E+03 0.  0.
         24    2    3    3    0    0 -0.37121524690E+01  0.47860316639E+02 -0.64857142168E+03  0.65525082628E+03  0.80027284948E+02 0.  0.
         -6    2    1    2    0  502  0.85957047896E+02  0.54638383501E+01 -0.86694141441E+03  0.88809223636E+03  0.17234249808E+03 0.  0.
        -24    2    5    5    0    0  0.90378811646E+02  0.59584258838E+02 -0.54384997537E+03  0.56043580060E+03  0.81221163462E+02 0.  0.
          5    1    3    3  501    0 -0.82244895427E+02 -0.53324154989E+02 -0.85095420167E+03  0.85659373781E+03  0.47000000000E+01 0. -1.
        -11    1    4    4    0    0 -0.12398030623E+01 -0.22587908717E+02 -0.13957852324E+03  0.14139984046E+03  0.00000000000E+00 0.  1.
         12    1    4    4    0    0 -0.24723494067E+01  0.70448225356E+02 -0.50899289845E+03  0.51385098583E+03  0.00000000000E+00 0. -1.
         -5    1    5    5    0  502 -0.44217637500E+01 -0.54120420487E+02 -0.32309143904E+03  0.32765643575E+03  0.47000000000E+01 0.  1.
         13    1    6    6    0    0  0.61825017616E+01 -0.14155380174E+02 -0.15591617027E+03  0.15667945069E+03  0.00000000000E+00 0. -1.
        -14    1    6    6    0    0  0.84196309884E+02  0.73739639012E+02 -0.38793380510E+03  0.40375634992E+03  0.00000000000E+00 0.  1.
</event>
<event>
12    1  0.1039610E+000  0.1839837E+03  0.7818608E-02  0.1164700E+00
         21   -1    0    0  503  502  0.00000000000E+00  0.00000000000E+00  0.26866453778E+03  0.26866453778E+03  0.00000000000E+00 0.  1.
         21   -1    0    0  501  503 -0.00000000000E+00 -0.00000000000E+00 -0.22672315292E+03  0.22672315292E+03  0.00000000000E+00 0.  1.
          6    2    1    2  501    0  0.50026461934E+02 -0.26803452548E+02 -0.14585334025E+03  0.23248681604E+03  0.17191815148E+03 0.  0.
         24    2    3    3    0    0  0.98796181473E+02 -0.20469606657E+02 -0.11356342882E+03  0.17346706064E+03  0.83752483492E+02 0.  0.
         -6    2    1    2    0  502 -0.50026461934E+02  0.26803452548E+02  0.18779472510E+03  0.26290087466E+03  0.17501125438E+03 0.  0.
        -24    2    5    5    0    0  0.30296400255E+02  0.45441966333E+02  0.12646930479E+03  0.16003176577E+03  0.81442230019E+02 0.  0.
          5    1    3    3  501    0 -0.48769719539E+02 -0.63338458905E+01 -0.32289911430E+02  0.59019755403E+02  0.47000000000E+01 0. -1.
        -13    1    4    4    0    0  0.58023564987E+01 -0.23309364203E+01  0.13552686185E+02  0.14925679495E+02  0.00000000000E+00 0.  1.
         14    1    4    4    0    0  0.92993824975E+02 -0.18138670237E+02 -0.12711611500E+03  0.15854138114E+03  0.00000000000E+00 0. -1.
         -5    1    5    5    0  502 -0.80322862189E+02 -0.18638513786E+02  0.61325420314E+02  0.10286910889E+03  0.47000000000E+01 0.  1.
         13    1    6    6    0    0 -0.84591261150E+01  0.54507261560E+02  0.92533871967E+02  0.10772704321E+03  0.00000000000E+00 0. -1.
        -14    1    6    6    0    0  0.38755526370E+02 -0.90652952269E+01  0.33935432820E+02  0.52304722564E+02  0.00000000000E+00 0.  1.
</event>
<event>
12    1  0.1039610E+000  0.1998513E+03  0.7818608E-02  0.1151179E+00
         21   -1    0    0  501  502  0.00000000000E+00  0.00000000000E+00  0.18136228718E+03  0.18136228718E+03  0.00000000000E+00 0.  1.
         21   -1    0    0  502  503 -0.00000000000E+00 -0.00000000000E+00 -0.25409467519E+03  0.25409467519E+03  0.00000000000E+00 0.  1.
         -6    2    1    2    0  503  0.56739736877E+02 -0.78970262388E+02  0.51096384255E+02  0.20035253954E+03  0.16755476577E+03 0.  0.
        -24    2    3    3    0    0 -0.47187305696E+01 -0.10021421157E+03  0.41618843259E+02  0.13447111286E+03  0.79279237258E+02 0.  0.
          6    2    1    2  501    0 -0.56739736877E+02  0.78970262388E+02 -0.12382877226E+03  0.23510442282E+03  0.17459903983E+03 0.  0.
         24    2    5    5    0    0  0.35204711596E+02  0.44989889886E+02 -0.83564660738E+02  0.12903022239E+03  0.80014272827E+02 0.  0.
          5    1    5    5  501    0 -0.91944448473E+02  0.33980372501E+02 -0.40264111526E+02  0.10607420043E+03  0.47000000000E+01 0. -1.
        -11    1    6    6    0    0 -0.14513756378E+02  0.10607101271E+02  0.77044441089E+01  0.19558072007E+02  0.00000000000E+00 0.  1.
         12    1    6    6    0    0  0.49718467974E+02  0.34382788616E+02 -0.91269104847E+02  0.10947215039E+03  0.00000000000E+00 0. -1.
         -5    1    3    3    0  503  0.61458467447E+02  0.21243949184E+02  0.94775409968E+01  0.65881426679E+02  0.47000000000E+01 0.  1.
         11    1    4    4    0    0  0.79213334254E+01 -0.10191632477E+03  0.54920452470E+02  0.11604284070E+03  0.00000000000E+00 0. -1.
        -12    1    4    4    0    0 -0.12640063995E+02  0.17021131997E+01 -0.13301609212E+02  0.18428272159E+02  0.00000000000E+00 0.  1.
</event>
<event>
12    1  0.1039610E+000  0.2320920E+03  0.7818608E-02  0.1125295E+00
         21   -1    0    0  503  502  0.00000000000E+00  0.00000000000E+00  0.15846098419E+03  0.15846098419E+03  0.00000000000E+00 0.  1.
         21   -1    0    0  501  503 -0.00000000000E+00 -0.00000000000E+00 -0.34991958060E+03  0.34991958060E+03  0.00000000000E+00 0.  1.
          6    2    1    2  501    0 -0.14729636390E+03  0.47707423395E+02 -0.50824024909E+02  0.23759158654E+03  0.17290015449E+03 0.  0.
         24    2    3    3    0    0 -0.17454857419E+01  0.16737394746E+02 -0.29020721012E+02  0.87120078053E+02  0.80402230371E+02 0.  0.
         -6    2    1    2    0  502  0.14729636390E+03 -0.47707423395E+02 -0.14063457150E+03  0.27078897825E+03  0.17197782118E+03 0.  0.
        -24    2    5    5    0    0  0.17590394000E+03 -0.53691255617E+02 -0.13293882486E+03  0.24020280204E+03  0.78738223984E+02 0.  0.
          5    1    3    3  501    0 -0.14555087815E+03  0.30970028649E+02 -0.21803303896E+02  0.15047150849E+03  0.47000000000E+01 0. -1.
        -13    1    4    4    0    0  0.40000958404E+01  0.38160196823E+02  0.12241188847E+02  0.40274658194E+02  0.00000000000E+00 0.  1.
         14    1    4    4    0    0 -0.57455815823E+01 -0.21422802077E+02 -0.41261909859E+02  0.46845419859E+02  0.00000000000E+00 0. -1.
         -5    1    5    5    0  502 -0.28607576103E+02  0.59838322217E+01 -0.76957466308E+01  0.30586176204E+02  0.47000000000E+01 0.  1.
         13    1    6    6    0    0  0.11702014037E+03 -0.61337391539E+02 -0.12198438349E+03  0.17982263114E+03  0.00000000000E+00 0. -1.
        -14    1    6    6    0    0  0.58883799626E+02  0.76461359216E+01 -0.10954441376E+02  0.60380170907E+02  0.00000000000E+00 0.  1.
</event>
<event>
12    1  0.1039610E+000  0.4997761E+03  0.7818608E-02  0.1013856E+00
         21   -1    0    0  503  502  0.00000000000E+00  0.00000000000E+00  0.14453885977E+03  0.14453885977E+03  0.00000000000E+00 0. -1.
         21   -1    0    0  501  503 -0.00000000000E+00 -0.00000000000E+00 -0.20269370526E+04  0.20269370526E+04  0.00000000000E+00 0.  1.
          6    2    1    2  501    0 -0.73111973269E+02 -0.46291230752E+03 -0.52383116533E+03  0.72399946136E+03  0.17361729517E+03 0.  0.
         24    2    3    3    0    0 -0.18565978914E+02 -0.93055576384E+02 -0.10293308073E+03  0.16101939538E+03  0.79548668817E+02 0.  0.
         -6    2    1    2    0  502  0.73111973269E+02  0.46291230752E+03 -0.13585670275E+04  0.14474764510E+04  0.17277309666E+03 0.  0.
        -24    2    5    5    0    0  0.22430340019E+02  0.24418670539E+03 -0.54115471449E+03  0.59977691908E+03  0.82180657103E+02 0.  0.
          5    1    3    3  501    0 -0.54545994355E+02 -0.36985673114E+03 -0.42089808459E+03  0.56298006597E+03  0.47000000000E+01 0. -1.
        -11    1    4    4    0    0 -0.40126981733E+02 -0.76891498163E+02 -0.10222711958E+03  0.13406289990E+03  0.00000000000E+00 0.  1.
         12    1    4    4    0    0  0.21561002818E+02 -0.16164078220E+02 -0.70596115188E+00  0.26956495477E+02  0.00000000000E+00 0. -1.
         -5    1    5    5    0  502  0.50681633250E+02  0.21872560214E+03 -0.81741231303E+03  0.84769953195E+03  0.47000000000E+01 0.  1.
         11    1    6    6    0    0  0.22905386425E+02  0.64765251535E+02 -0.82993723299E+02  0.10773649633E+03  0.00000000000E+00 0. -1.
        -12    1    6    6    0    0 -0.47504640631E+00  0.17942145385E+03 -0.45816099119E+03  0.49204042275E+03  0.00000000000E+00 0.  1.
</event>
<event>
12    1  0.1039610E+000  0.2311485E+03  0.7818608E-02  0.1126104E+00
         21   -1    0    0  501  502  0.00000000000E+00  0.00000000000E+00  0.96800329045E+02  0.96800329045E+02  0.00000000000E+00 0.  1.
         21   -1    0    0  502  503 -0.00000000000E+00 -0.00000000000E+00 -0.58197250690E+03  0.58197250690E+03  0.00000000000E+00 0.  1.
         -6    2    1    2    0  503 -0.14209852088E+03 -0.60876743306E+02 -0.32500185295E+03  0.39881807345E+03  0.17184785066E+03 0.  0.
        -24    2    3    3    0    0 -0.14578552177E+03 -0.86627972028E+02 -0.32143532746E+03  0.37214355639E+03  0.80077043696E+02 0.  0.
          6    2    1    2  501    0  0.14209852088E+03  0.60876743306E+02 -0.16017032490E+03  0.27995476250E+03  0.16977092964E+03 0.  0.
         24    2    5    5    0    0  0.83253911468E+02  0.19700208010E+02 -0.13618066627E+02  0.11668244542E+03  0.78166676793E+02 0.  0.
          5    1    5    5  501    0  0.58844609414E+02  0.41176535295E+02 -0.14655225828E+03  0.16327231707E+03  0.47000000000E+01 0. -1.
        -11    1    6    6    0    0  0.32903520559E+02  0.44892751051E+02  0.82807757813E+01  0.56272302332E+02  0.00000000000E+00 0.  1.
         12    1    6    6    0    0  0.50350390908E+02 -0.25192543041E+02 -0.21898842408E+02  0.60410143091E+02  0.00000000000E+00 0. -1.
         -5    1    3    3    0  503  0.36870008918E+01  0.25751228722E+02 -0.35665254908E+01  0.26674517059E+02  0.47000000000E+01 0.  1.
         11    1    4    4    0    0 -0.78333030745E+02 -0.65871580406E+02 -0.11485192958E+03  0.15383788396E+03  0.00000000000E+00 0. -1.
        -12    1    4    4    0    0 -0.67452491029E+02 -0.20756391622E+02 -0.20658339787E+03  0.21830567243E+03  0.00000000000E+00 0.  1.
</event>
<event>
12    1  0.1039610E+000  0.2374540E+03  0.7818608E-02  0.1121643E+00
         21   -1    0    0  501  502  0.00000000000E+00  0.00000000000E+00  0.18242481174E+04  0.18242481174E+04  0.00000000000E+00 0. -1.
         21   -1    0    0  502  503 -0.00000000000E+00 -0.00000000000E+00 -0.55965898504E+02  0.55965898504E+02  0.00000000000E+00 0. -1.
         -6    2    1    2    0  503 -0.11069812267E+03 -0.11888891050E+03  0.15154212912E+04  0.15339120202E+04  0.17319280666E+03 0.  0.
        -24    2    3    3    0    0 -0.49313556472E+01 -0.65363749766E+01  0.66136217938E+03  0.66601297202E+03  0.78142844245E+02 0.  0.
          6    2    1    2  501    0  0.11069812267E+03  0.11888891050E+03  0.25286092766E+03  0.34630199574E+03  0.17204004218E+03 0.  0.
         24    2    5    5    0    0  0.10213354693E+03  0.12889372847E+03  0.13728914718E+03  0.22988732834E+03  0.83396757448E+02 0.  0.
          5    1    5    5  501    0  0.85645757369E+01 -0.10004817976E+02  0.11557178049E+03  0.11641466740E+03  0.47000000000E+01 0. -1.
        -13    1    6    6    0    0  0.50418142963E+02  0.11226069748E+03  0.12237827514E+03  0.17355372530E+03  0.00000000000E+00 0.  1.
         14    1    6    6    0    0  0.51715403966E+02  0.16633030992E+02  0.14910872040E+02  0.56333603048E+02  0.00000000000E+00 0. -1.
         -5    1    3    3    0  503 -0.10576676702E+03 -0.11235253552E+03  0.85405911184E+03  0.86789904814E+03  0.47000000000E+01 0.  1.
         13    1    4    4    0    0 -0.40451682916E+02 -0.11418699618E+02  0.31275033129E+03  0.31556218892E+03  0.00000000000E+00 0. -1.
        -14    1    4    4    0    0  0.35520327268E+02  0.48823246412E+01  0.34861184809E+03  0.35045078310E+03  0.00000000000E+00 0.  1.
</event>
<event>
12    1  0.1039610E+000  0.4074494E+03  0.7818608E-02  0.1041242E+00
         21   -1    0    0  501  502  0.00000000000E+00  0.00000000000E+00  0.81897843487E+03  0.81897843487E+03  0.00000000000E+00 0.  1.
         21   -1    0    0  502  503 -0.00000000000E+00 -0.00000000000E+00 -0.26558912384E+03  0.26558912384E+03  0.00000000000E+00 0.  1.
         -6    2    1    2    0  503 -0.56479138524E+02 -0.36516326972E+03  0.54066346743E+03  0.67691946922E+03  0.17137349902E+03 0.  0.
        -24    2    3    3    0    0 -0.10295954780E+03 -0.30086463532E+03  0.43669456279E+03  0.54605172696E+03  0.79687828942E+02 0.  0.
          6    2    1    2  501    0  0.56479138524E+02  0.36516326972E+03  0.12725843603E+02  0.40764808949E+03  0.17170006153E+03 0.  0.
         24    2    5    5    0    0  0.92615005930E+02  0.27795268695E+03 -0.27406642116E+02  0.30496316815E+03  0.80101026150E+02 0.  0.
          5    1    5    5  501    0 -0.36135867406E+02  0.87210582762E+02  0.40132485720E+02  0.10268492133E+03  0.47000000000E+01 0. -1.
        -13    1    6    6    0    0  0.22460688482E+02  0.64924226045E+02 -0.41459766918E+02  0.80240575319E+02  0.00000000000E+00 0.  1.
         14    1    6    6    0    0  0.70154317448E+02  0.21302846091E+03  0.14053124802E+02  0.22472259284E+03  0.00000000000E+00 0. -1.
         -5    1    3    3    0  503  0.46480409281E+02 -0.64298634394E+02  0.10396890464E+03  0.13086774226E+03  0.47000000000E+01 0.  1.
         13    1    4    4    0    0 -0.56433797016E+02 -0.25479285160E+03  0.36810603987E+03  0.45122746732E+03  0.00000000000E+00 0. -1.
        -14    1    4    4    0    0 -0.46525750789E+02 -0.46071783719E+02  0.68588522917E+02  0.94824259646E+02  0.00000000000E+00 0.  1.
</event>
<event>
12    1  0.1039610E+000  0.1821442E+03  0.7818608E-02  0.1167347E+00
         21   -1    0    0  503  502  0.00000000000E+00  0.00000000000E+00  0.77805358415E+03  0.77805358415E+03  0.00000000000E+00 0.  1.
         21   -1    0    0  501  503 -0.00000000000E+00 -0.00000000000E+00 -0.73845412091E+02  0.73845412091E+02  0.00000000000E+00 0.  1.
          6    2    1    2  501    0 -0.50997408515E+02  0.10909551358E+02  0.63929273448E+03  0.66473430579E+03  0.17451860348E+03 0.  0.
         24    2    3    3    0    0 -0.14851627279E+02  0.65911435682E+02  0.26054935531E+03  0.28028617920E+03  0.78163210727E+02 0.  0.
         -6    2    1    2    0  502  0.50997408515E+02 -0.10909551358E+02  0.64915437582E+02  0.18716469045E+03  0.16762116014E+03 0.  0.
        -24    2    5    5    0    0 -0.12699545225E+02 -0.16792641881E+02 -0.23036734362E+02  0.78308881141E+02  0.71821434581E+02 0.  0.
          5    1    3    3  501    0 -0.36145781235E+02 -0.55001884324E+02  0.37874337917E+03  0.38444812660E+03  0.47000000000E+01 0. -1.
        -11    1    4    4    0    0  0.25029789901E+02  0.15234757442E+01  0.94657349620E+02  0.97922546934E+02  0.00000000000E+00 0.  1.
         12    1    4    4    0    0 -0.39881417180E+02  0.64387959938E+02  0.16589200569E+03  0.18236363226E+03  0.00000000000E+00 0. -1.
         -5    1    5    5    0  502  0.63696953739E+02  0.58830905229E+01  0.87952171944E+02  0.10885580930E+03  0.47000000000E+01 0.  1.
         13    1    6    6    0    0  0.28864123883E+02 -0.66565911690E+01  0.20312729751E+00  0.29622442746E+02  0.00000000000E+00 0. -1.
        -14    1    6    6    0    0 -0.41563669108E+02 -0.10136050712E+02 -0.23239861659E+02  0.48686438396E+02  0.00000000000E+00 0.  1.
</event>
<event>
12    1  0.1039610E+000  0.2211984E+03  0.7818608E-02  0.1133202E+00
         21   -1    0    0  503  502  0.00000000000E+00  0.00000000000E+00  0.40254632549E+02  0.40254632549E+02  0.00000000000E+00 0.  1.
         21   -1    0    0  501  503 -0.00000000000E+00 -0.00000000000E+00 -0.12098731763E+04  0.12098731763E+04  0.00000000000E+00 0.  1.
          6    2    1    2  501    0 -0.56547934775E+02 -0.12707036586E+03 -0.56947432103E+03  0.61051712231E+03  0.17054503076E+03 0.  0.
         24    2    3    3    0    0  0.17698381571E+02 -0.11757734020E+03 -0.41180308618E+03  0.43591774853E+03  0.79403010370E+02 0.  0.
         -6    2    1    2    0  502  0.56547934775E+02  0.12707036586E+03 -0.60014422272E+03  0.63961068653E+03  0.17200056819E+03 0.  0.
        -24    2    5    5    0    0 -0.17013189669E+01  0.11528670231E+03 -0.27241095815E+03  0.30649957445E+03  0.80251733955E+02 0.  0.
          5    1    3    3  501    0 -0.74246316346E+02 -0.94930256653E+01 -0.15767123485E+03  0.17459937378E+03  0.47000000000E+01 0. -1.
        -11    1    4    4    0    0  0.31179756135E+02 -0.23117821690E+02 -0.60448438139E+02  0.71837487051E+02  0.00000000000E+00 0.  1.
         12    1    4    4    0    0 -0.13481374564E+02 -0.94459518507E+02 -0.35135464805E+03  0.36408026148E+03  0.00000000000E+00 0. -1.
         -5    1    5    5    0  502  0.58249253741E+02  0.11783663557E+02 -0.32773326457E+03  0.33311111209E+03  0.47000000000E+01 0.  1.
         13    1    6    6    0    0 -0.39646141285E+02  0.52616597920E+02 -0.15016785522E+03  0.16398386395E+03  0.00000000000E+00 0. -1.
        -14    1    6    6    0    0  0.37944822318E+02  0.62670104386E+02 -0.12224310293E+03  0.14251571049E+03  0.00000000000E+00 0.  1.
</event>
<event>
12    1  0.1039610E+000  0.2145080E+03  0.7818608E-02  0.1138429E+00
         21   -1    0    0  501  502  0.00000000000E+00  0.00000000000E+00  0.14990601296E+03  0.14990601296E+03  0.00000000000E+00 0. -1.
         21   -1    0    0  502  503 -0.00000000000E+00 -0.00000000000E+00 -0.31867355404E+03  0.31867355404E+03  0.00000000000E+00 0. -1.
         -6    2    1    2    0  503  0.46168815250E+02  0.11774099582E+03 -0.13407715482E+03  0.25128458474E+03  0.17080034393E+03 0.  0.
        -24    2    3    3    0    0  0.96102257708E+01  0.39816891692E+02  0.27321230646E+01  0.89582497608E+02  0.79622974561E+02 0.  0.
          6    2    1    2  501    0 -0.46168815250E+02 -0.11774099582E+03 -0.34690386269E+02  0.21729498226E+03  0.17326045370E+03 0.  0.
         24    2    5    5    0    0 -0.75792324599E+02 -0.10951886240E+03 -0.70250138526E+02  0.17005366809E+03  0.79020948974E+02 0.  0.
          5    1    5    5  501    0  0.29623509349E+02 -0.82221334153E+01  0.35559752256E+02  0.47241314171E+02  0.47000000000E+01 0. -1.
        -13    1    6    6    0    0 -0.22084037554E+02 -0.65254804012E+02  0.30728161668E+01  0.68958946922E+02  0.00000000000E+00 0.  1.
         14    1    6    6    0    0 -0.53708287046E+02 -0.44264058390E+02 -0.73322954693E+02  0.10109472116E+03  0.00000000000E+00 0. -1.
         -5    1    3    3    0  503  0.36558589479E+02  0.77924104126E+02 -0.13680927788E+03  0.16170208713E+03  0.47000000000E+01 0.  1.
         13    1    4    4    0    0  0.30779929016E+02 -0.10391772130E+02  0.11357495587E+02  0.34414904681E+02  0.00000000000E+00 0. -1.
        -14    1    4    4    0    0 -0.21169703245E+02  0.50208663821E+02 -0.86253725221E+01  0.55167592927E+02  0.00000000000E+00 0.  1.
</event>
<event>
12    1  0.1039610E+000  0.1999601E+03  0.7818608E-02  0.1149914E+00
         21   -1    0    0  503  502  0.00000000000E+00  0.00000000000E+00  0.26278757413E+03  0.26278757413E+03  0.00000000000E+00 0.  1.
         21   -1    0    0  501  503 -0.00000000000E+00 -0.00000000000E+00 -0.22657003650E+03  0.22657003650E+03  0.00000000000E+00 0.  1.
          6    2    1    2  501    0  0.88073883313E+02  0.48234676963E+02  0.15883391611E+03  0.25536686677E+03  0.17291741021E+03 0.  0.
         24    2    3    3    0    0 -0.13937054986E+02 -0.70787295227E+01  0.86932525606E+02  0.11877365894E+03  0.79407607542E+02 0.  0.
         -6    2    1    2    0  502 -0.88073883313E+02 -0.48234676963E+02 -0.12261637849E+03  0.23399074385E+03  0.17214325125E+03 0.  0.
        -24    2    5    5    0    0 -0.37730221682E+02 -0.71501435982E+02 -0.13538089148E+03  0.17688689868E+03  0.80155874213E+02 0.  0.
          5    1    3    3  501    0  0.10201093830E+03  0.55313406486E+02  0.71901390508E+02  0.13659320783E+03  0.47000000000E+01 0. -1.
        -13    1    4    4    0    0 -0.18414864001E+02  0.33784605057E+02  0.31295701047E+02  0.49597657797E+02  0.00000000000E+00 0.  1.
         14    1    4    4    0    0  0.44778090147E+01 -0.40863334579E+02  0.55636824559E+02  0.69176001139E+02  0.00000000000E+00 0. -1.
         -5    1    5    5    0  502 -0.50343661631E+02  0.23266759019E+02  0.12764512992E+02  0.57103845173E+02  0.47000000000E+01 0.  1.
         11    1    6    6    0    0 -0.51206048822E+02 -0.45021545887E+02 -0.12985267769E+03  0.14666532287E+03  0.00000000000E+00 0. -1.
        -12    1    6    6    0    0  0.13475827140E+02 -0.26479890095E+02 -0.55282137896E+01  0.30221575807E+02  0.00000000000E+00 0.  1.
</event>
<event>
12    1  0.1039610E+000  0.2700283E+03  0.7818608E-02  0.1101692E+00
         21   -1    0    0  503  502  0.00000000000E+00  0.00000000000E+00  0.64870202489E+02  0.64870202489E+02  0.00000000000E+00 0.  1.
         21   -1    0    0  501  503 -0.00000000000E+00 -0.00000000000E+00 -0.11224601935E+04  0.11224601935E+04  0.00000000000E+00 0.  1.
          6    2    1    2  501    0  0.20417236110E+03 -0.32001413697E+02 -0.47347165217E+03  0.54506026784E+03  0.17379541607E+03 0.  0.
         24    2    3    3    0    0  0.59543946661E+02 -0.26663469939E+02 -0.95855323519E+02  0.14063221049E+03  0.79578598669E+02 0.  0.
         -6    2    1    2    0  502 -0.20417236110E+03  0.32001413697E+02 -0.58411833886E+03  0.64227012817E+03  0.16913379388E+03 0.  0.
        -24    2    5    5    0    0 -0.21850189530E+03  0.10411761137E+01 -0.50425067327E+03  0.55529423571E+03  0.79616483398E+02 0.  0.
          5    1    3    3  501    0  0.14462841444E+03 -0.53379437577E+01 -0.37761632865E+03  0.40442805735E+03  0.47000000000E+01 0. -1.
        -13    1    4    4    0    0  0.30339534041E+02  0.11992357008E+02  0.67025175477E+00  0.32630556076E+02  0.00000000000E+00 0.  1.
         14    1    4    4    0    0  0.29204412620E+02 -0.38655826947E+02 -0.96525575274E+02  0.10800165441E+03  0.00000000000E+00 0. -1.
         -5    1    5    5    0  502  0.14329534201E+02  0.30960237583E+02 -0.79867665596E+02  0.86975892461E+02  0.47000000000E+01 0.  1.
         13    1    6    6    0    0 -0.21958107002E+02  0.25592615963E+02 -0.58616537588E+02  0.67624248120E+02  0.00000000000E+00 0. -1.
        -14    1    6    6    0    0 -0.19654378830E+03 -0.24551439849E+02 -0.44563413568E+03  0.48766998759E+03  0.00000000000E+00 0.  1.
</event>
<event>
12    1  0.1039610E+000  0.2593644E+03  0.7818608E-02  0.1107530E+00
         21   -1    0    0  503  502  0.00000000000E+00  0.00000000000E+00  0.47077051647E+03  0.47077051647E+03  0.00000000000E+00 0. -1.
         21   -1    0    0  501  503 -0.00000000000E+00 -0.00000000000E+00 -0.14691319697E+03  0.14691319697E+03  0.00000000000E+00 0. -1.
          6    2    1    2  501    0  0.27422425869E+02  0.19166629083E+03  0.21312166181E+03  0.33569438596E+03  0.17257439425E+03 0.  0.
         24    2    3    3    0    0 -0.50804201185E+02  0.94207079634E+02  0.12093585781E+03  0.18033024761E+03  0.80233881784E+02 0.  0.
         -6    2    1    2    0  502 -0.27422425869E+02 -0.19166629083E+03  0.11073565769E+03  0.28198932748E+03  0.17253300685E+03 0.  0.
        -24    2    5    5    0    0 -0.21394371802E+02 -0.17912721928E+03  0.14496346195E+03  0.24474421592E+03  0.79630685621E+02 0.  0.
          5    1    3    3  501    0  0.78226627054E+02  0.97459211191E+02  0.92185804002E+02  0.15536413835E+03  0.47000000000E+01 0. -1.
        -11    1    4    4    0    0 -0.38851107272E+02  0.12877642414E+02  0.76805239884E+02  0.87030380237E+02  0.00000000000E+00 0.  1.
         12    1    4    4    0    0 -0.11953093913E+02  0.81329437221E+02  0.44130617926E+02  0.93299867370E+02  0.00000000000E+00 0. -1.
         -5    1    5    5    0  502 -0.60280540669E+01 -0.12539071541E+02 -0.34227804261E+02  0.37245111565E+02  0.47000000000E+01 0.  1.
         11    1    6    6    0    0 -0.97041759595E+01 -0.22462610339E+02  0.62921223789E+02  0.67511630831E+02  0.00000000000E+00 0. -1.
        -12    1    6    6    0    0 -0.11690195842E+02 -0.15666460895E+03  0.82042238158E+02  0.17723258509E+03  0.00000000000E+00 0.  1.
</event>
<event>
12    1  0.1039610E+000  0.2306637E+03  0.7818608E-02  0.1126236E+00
         21   -1    0    0  503  502  0.00000000000E+00  0.00000000000E+00  0.62549429914E+02  0.62549429914E+02  0.00000000000E+00 0.  1.
         21   -1    0    0  501  503 -0.00000000000E+00 -0.00000000000E+00 -0.86385025813E+03  0.86385025813E+03  0.00000000000E+00 0. -1.
          6    2    1    2  501    0 -0.12881597729E+03 -0.82796756280E+02 -0.34086718887E+03  0.41157764920E+03  0.17250177395E+03 0.  0.
         24    2    3    3    0    0 -0.15845753908E+03 -0.54762372442E+02 -0.24578571005E+03  0.30800580709E+03  0.79682198839E+02 0.  0.
         -6    2    1    2    0  502  0.12881597729E+03  0.82796756280E+02 -0.46043363935E+03  0.51482203885E+03  0.17202830170E+03 0.  0.
        -24    2    5    5    0    0  0.41172298517E+02  0.10219403603E+03 -0.32574001260E+03  0.35288954682E+03  0.79282389450E+02 0.  0.
          5    1    3    3  501    0  0.29641561787E+02 -0.28034383838E+02 -0.95081478823E+02  0.10357184211E+03  0.47000000000E+01 0. -1.
        -11    1    4    4    0    0 -0.15751984673E+03 -0.32844863565E+02 -0.19591380452E+03  0.25352220016E+03  0.00000000000E+00 0.  1.
         12    1    4    4    0    0 -0.93769234751E+00 -0.21917508877E+02 -0.49871905532E+02  0.54483606926E+02  0.00000000000E+00 0. -1.
         -5    1    5    5    0  502  0.87643678771E+02 -0.19397279751E+02 -0.13469362675E+03  0.16193249203E+03  0.47000000000E+01 0.  1.
         11    1    6    6    0    0  0.48132211763E+02  0.18418213877E+02 -0.11619664693E+03  0.12711255316E+03  0.00000000000E+00 0. -1.
        -12    1    6    6    0    0 -0.69599132465E+01  0.83775822153E+02 -0.20954336567E+03  0.22577699366E+03  0.00000000000E+00 0.  1.
</event>
<event>
12    1  0.1039610E+000  0.2197768E+03  0.7818608E-02  0.1134068E+00
         21   -1    0    0  501  502  0.00000000000E+00  0.00000000000E+00  0.72281515290E+03  0.72281515290E+03  0.00000000000E+00 0.  1.
         21   -1    0    0  502  503 -0.00000000000E+00 -0.00000000000E+00 -0.69922807849E+02  0.69922807849E+02  0.00000000000E+00 0.  1.
         -6    2    1    2    0  503  0.91138889526E+02 -0.10250760577E+03  0.24254862933E+03  0.32724488246E+03  0.17159623855E+03 0.  0.
        -24    2    3    3    0    0  0.13138506665E+03 -0.73442498937E+02  0.21046339753E+03  0.26794827794E+03  0.69610355292E+02 0.  0.
          6    2    1    2  501    0 -0.91138889526E+02  0.10250760577E+03  0.41034371572E+03  0.46549307829E+03  0.17171993034E+03 0.  0.
         24    2    5    5    0    0 -0.52108912301E+02 -0.18296274279E+02  0.13980905327E+03  0.16661515982E+03  0.71860613086E+02 0.  0.
          5    1    5    5  501    0 -0.39029977225E+02  0.12080388005E+03  0.27053466246E+03  0.29887791846E+03  0.47000000000E+01 0. -1.
        -11    1    6    6    0    0 -0.16058874500E+02 -0.39872175721E+02  0.99518032731E+02  0.10840441267E+03  0.00000000000E+00 0.  1.
         12    1    6    6    0    0 -0.36050037802E+02  0.21575901442E+02  0.40291020538E+02  0.58210747157E+02  0.00000000000E+00 0. -1.
         -5    1    3    3    0  503 -0.40246177123E+02 -0.29065106830E+02  0.32085231798E+02  0.59296604519E+02  0.47000000000E+01 0.  1.
         11    1    4    4    0    0  0.18687790205E+02 -0.45485539847E+02  0.52943569833E+02  0.72257798365E+02  0.00000000000E+00 0. -1.
        -12    1    4    4    0    0  0.11269727644E+03 -0.27956959090E+02  0.15751982770E+03  0.19569047958E+03  0.00000000000E+00 0.  1.
</event>
<event>
12    1  0.1039610E+000  0.7884935E+03  0.7818608E-02  0.9577171E-01
         21   -1    0    0  501  502  0.00000000000E+00  0.00000000000E+00  0.86581728832E+03  0.86581728832E+03  0.00000000000E+00 0. -1.
         21   -1    0    0  502  503 -0.00000000000E+00 -0.00000000000E+00 -0.72956841719E+03  0.72956841719E+03  0.00000000000E+00 0. -1.
         -6    2    1    2    0  503 -0.30334030245E+03  0.70646432429E+03  0.17188096913E+03  0.80608753506E+03  0.17066594868E+03 0.  0.
        -24    2    3    3    0    0 -0.19829505408E+03  0.39668167333E+03  0.16220808238E+03  0.47880256782E+03  0.79140119620E+02 0.  0.
          6    2    1    2  501    0  0.30334030245E+03 -0.70646432429E+03 -0.35632098010E+02  0.78929817045E+03  0.17497078294E+03 0.  0.
         24    2    5    5    0    0  0.29393278970E+03 -0.71048945626E+03 -0.24396729647E+02  0.77339136418E+03  0.79669626963E+02 0.  0.
          5    1    5    5  501    0  0.94075127445E+01  0.40251319654E+01 -0.11235368363E+02  0.15906806267E+02  0.47000000000E+01 0. -1.
        -11    1    6    6    0    0  0.10542100659E+03 -0.19710519419E+03  0.21558131234E+02  0.22456357503E+03  0.00000000000E+00 0.  1.
         12    1    6    6    0    0  0.18851178311E+03 -0.51338426207E+03 -0.45954860881E+02  0.54882778916E+03  0.00000000000E+00 0. -1.
         -5    1    3    3    0  503 -0.10504524837E+03  0.30978265097E+03  0.96728867529E+01  0.32728496724E+03  0.47000000000E+01 0.  1.
         13    1    4    4    0    0 -0.15366401775E+03  0.28454800845E+03  0.81136192313E+02  0.33341157923E+03  0.00000000000E+00 0. -1.
        -14    1    4    4    0    0 -0.44631036332E+02  0.11213366488E+03  0.81071890067E+02  0.14539098859E+03  0.00000000000E+00 0.  1.
</event>
<event>
12    1  0.1039610E+000  0.3104738E+03  0.7818608E-02  0.1080324E+00
         21   -1    0    0  503  502  0.00000000000E+00  0.00000000000E+00  0.42242569233E+03  0.42242569233E+03  0.00000000000E+00 0. -1.
         21   -1    0    0  501  503 -0.00000000000E+00 -0.00000000000E+00 -0.22695984326E+03  0.22695984326E+03  0.00000000000E+00 0. -1.
          6    2    1    2  501    0  0.24385607666E+03  0.84167528108E+02  0.94376543576E+02  0.32286904207E+03  0.16966887587E+03 0.  0.
         24    2    3    3    0    0  0.23551552644E+03  0.71617456548E+02  0.12610942939E+03  0.28742704556E+03  0.78192679077E+02 0.  0.
         -6    2    1    2    0  502 -0.24385607666E+03 -0.84167528108E+02  0.10108930549E+03  0.32651649352E+03  0.17275420094E+03 0.  0.
        -24    2    5    5    0    0 -0.51026992853E+02 -0.63929180601E+02  0.67236209239E+02  0.12963894681E+03  0.74798760453E+02 0.  0.
          5    1    3    3  501    0  0.83405502174E+01  0.12550071560E+02 -0.31732885819E+02  0.35441996508E+02  0.47000000000E+01 0. -1.
        -13    1    4    4    0    0  0.20328254907E+03  0.75446176596E+02  0.80171345895E+02  0.23117821052E+03  0.00000000000E+00 0.  1.
         14    1    4    4    0    0  0.32232977375E+02 -0.38287200482E+01  0.45938083500E+02  0.56248835040E+02  0.00000000000E+00 0. -1.
         -5    1    5    5    0  502 -0.19282908381E+03 -0.20238347507E+02  0.33853096252E+02  0.19687754671E+03  0.47000000000E+01 0.  1.
         11    1    6    6    0    0 -0.25545062607E+02 -0.32781858170E+02  0.77648490971E+02  0.88070929362E+02  0.00000000000E+00 0. -1.
        -12    1    6    6    0    0 -0.25481930246E+02 -0.31147322432E+02 -0.10412281732E+02  0.41568017448E+02  0.00000000000E+00 0.  1.
</event>
<event>
12    1  0.1039610E+000  0.1733368E+03  0.7818608E-02  0.1174727E+00
         21   -1    0    0  501  502  0.00000000000E+00  0.00000000000E+00  0.19179283452E+03  0.19179283452E+03  0.00000000000E+00 0.  1.
         21   -1    0    0  502  503 -0.00000000000E+00 -0.00000000000E+00 -0.15965734341E+03  0.15965734341E+03  0.00000000000E+00 0.  1.
         -6    2    1    2    0  503 -0.19560335460E+02 -0.72547715129E+01  0.44336526034E+02  0.17891723572E+03  0.17207675980E+03 0.  0.
        -24    2    3    3    0    0 -0.28309926600E+02 -0.70675732504E+02  0.42260288377E+02  0.11468971513E+03  0.74641058903E+02 0.  0.
          6    2    1    2  501    0  0.19560335460E+02  0.72547715129E+01 -0.12201034922E+02  0.17253294220E+03  0.17083182508E+03 0.  0.
         24    2    5    5    0    0 -0.11689128385E+02 -0.30603770392E+01  0.56156057117E+02  0.96521671245E+02  0.77568863850E+02 0.  0.
          5    1    5    5  501    0  0.31249463845E+02  0.10315148552E+02 -0.68357092040E+02  0.76011270956E+02  0.47000000000E+01 0. -1.
        -11    1    6    6    0    0  0.25021549677E+02 -0.78869149310E+01 -0.33380063033E+01  0.26446619093E+02  0.00000000000E+00 0.  1.
         12    1    6    6    0    0 -0.36710678062E+02  0.48265378919E+01  0.59494063421E+02  0.70075052152E+02  0.00000000000E+00 0. -1.
         -5    1    3    3    0  503  0.87495911399E+01  0.63420960991E+02  0.20762376575E+01  0.64227520589E+02  0.47000000000E+01 0.  1.
         11    1    4    4    0    0  0.52662182882E+01 -0.70707373449E+02  0.17669783927E+02  0.73071793321E+02  0.00000000000E+00 0. -1.
        -12    1    4    4    0    0 -0.33576144888E+02  0.31640945247E-01  0.24590504450E+02  0.41617921811E+02  0.00000000000E+00 0.  1.
</event>
<event>
12    1  0.1160112E+000  0.4297537E+03  0.7818608E-02  0.1034672E+00
         21   -1    0    0  503  502  0.00000000000E+00  0.00000000000E+00  0.38839570154E+03  0.38839570154E+03  0.00000000000E+00 0.  1.
         21   -1    0    0  501  503 -0.00000000000E+00 -0.00000000000E+00 -0.10443035406E+04  0.10443035406E+04  0.00000000000E+00 0.  1.
          6    2    1    2  501    0  0.12699261353E+03 -0.36215736207E+03  0.20380232606E+03  0.47562976491E+03  0.19339908575E+03 0.  0.
         24    2    3    3    0    0  0.58915492236E+02 -0.65795246685E+02  0.95021782114E+02  0.15264324101E+03  0.80441097944E+02 0.  0.
         -6    2    1    2    0  502 -0.12699261353E+03  0.36215736207E+03 -0.85971016512E+03  0.95706947723E+03  0.17203295451E+03 0.  0.
        -24    2    5    5    0    0 -0.11277431931E+03  0.35223530185E+03 -0.85946677470E+03  0.93910405465E+03  0.80284081119E+02 0.  0.
          5    1    3    3  501    0  0.68077121293E+02 -0.29636211538E+03  0.10878054395E+03  0.32298652389E+03  0.47000000000E+01 0. -1.
        -11    1    4    4    0    0 -0.17186277447E+02 -0.93766109225E+01  0.36137498757E+02  0.41099973008E+02  0.00000000000E+00 0.  1.
         12    1    4    4    0    0  0.76101769683E+02 -0.56418635762E+02  0.58884283357E+02  0.11154326800E+03  0.00000000000E+00 0. -1.
         -5    1    5    5    0  502 -0.14218294220E+02  0.99220602168E+01 -0.24339042057E+00  0.17965422577E+02  0.47000000000E+01 0.  1.
         11    1    6    6    0    0 -0.19734106085E+02  0.11239150284E+03 -0.18647976777E+03  0.21862293713E+03  0.00000000000E+00 0. -1.
        -12    1    6    6    0    0 -0.93040213224E+02  0.23984379901E+03 -0.67298700693E+03  0.72048111752E+03  0.00000000000E+00 0.  1.
</event>
<event>
12    1  0.1039610E+000  0.4840161E+03  0.7818608E-02  0.1018075E+00
         21   -1    0    0  501  502  0.00000000000E+00  0.00000000000E+00  0.12296650173E+04  0.12296650173E+04  0.00000000000E+00 0.  1.
         21   -1    0    0  502  503 -0.00000000000E+00 -0.00000000000E+00 -0.24305972295E+03  0.24305972295E+03  0.00000000000E+00 0.  1.
         -6    2    1    2    0  503 -0.18815797628E+03 -0.41120350154E+03  0.83616067516E+03  0.96586656495E+03  0.17100234759E+03 0.  0.
        -24    2    3    3    0    0 -0.49448009001E+02 -0.21705030840E+03  0.31817525491E+03  0.39554481100E+03  0.75261296190E+02 0.  0.
          6    2    1    2  501    0  0.18815797628E+03  0.41120350154E+03  0.15044461921E+03  0.50685817533E+03  0.17256848709E+03 0.  0.
         24    2    5    5    0    0  0.84984657209E+02  0.33635946876E+03  0.10035158644E+03  0.36982619022E+03  0.79629679698E+02 0.  0.
          5    1    5    5  501    0  0.10317331907E+03  0.74844032778E+02  0.50093032773E+02  0.13703198511E+03  0.47000000000E+01 0. -1.
        -13    1    6    6    0    0  0.52116455996E+01  0.12554164405E+03  0.65643350047E+02  0.14176358858E+03  0.00000000000E+00 0.  1.
         14    1    6    6    0    0  0.79773011610E+02  0.21081782471E+03  0.34708236393E+02  0.22806260164E+03  0.00000000000E+00 0. -1.
         -5    1    3    3    0  503 -0.13870996728E+03 -0.19415319314E+03  0.51798542026E+03  0.57032175395E+03  0.47000000000E+01 0.  1.
         11    1    4    4    0    0 -0.65652271787E+02 -0.16719721747E+03  0.27036713296E+03  0.32459746904E+03  0.00000000000E+00 0. -1.
        -12    1    4    4    0    0  0.16204262787E+02 -0.49853090929E+02  0.47808121952E+02  0.70947341967E+02  0.00000000000E+00 0.  1.
</event>
<event>
12    1  0.1039610E+000  0.1928090E+03  0.7818608E-02  0.1157409E+00
         21   -1    0    0  503  502  0.00000000000E+00  0.00000000000E+00  0.25388161325E+03  0.25388161325E+03  0.00000000000E+00 0.  1.
         21   -1    0    0  501  503 -0.00000000000E+00 -0.00000000000E+00 -0.14817843605E+03  0.14817843605E+03  0.00000000000E+00 0.  1.
          6    2    1    2  501    0  0.30548855836E+02  0.80828932505E+02  0.96198187585E+02  0.21547486919E+03  0.17236234808E+03 0.  0.
         24    2    3    3    0    0 -0.15257516536E+02 -0.14207832233E+02  0.38980909458E+01  0.75219358638E+02  0.72167184324E+02 0.  0.
         -6    2    1    2    0  502 -0.30548855836E+02 -0.80828932505E+02  0.95049896086E+01  0.18658518010E+03  0.16509735214E+03 0.  0.
        -24    2    5    5    0    0  0.40175553799E+02 -0.75391755380E+02  0.22307135123E+01  0.11512533050E+03  0.77141906487E+02 0.  0.
          5    1    3    3  501    0  0.45806372372E+02  0.95036764738E+02  0.92300096639E+02  0.14025551056E+03  0.47000000000E+01 0. -1.
        -13    1    4    4    0    0 -0.26746294635E+02  0.46715737952E+01 -0.26298419162E+02  0.37799401170E+02  0.00000000000E+00 0.  1.
         14    1    4    4    0    0  0.11488778099E+02 -0.18879406028E+02  0.30196510108E+02  0.37419957468E+02  0.00000000000E+00 0. -1.
         -5    1    5    5    0  502 -0.70724409636E+02 -0.54371771243E+01  0.72742760963E+01  0.71459849609E+02  0.47000000000E+01 0.  1.
         11    1    6    6    0    0 -0.31491593855E+01 -0.70828627854E+02 -0.45130681345E+01  0.71042096763E+02  0.00000000000E+00 0. -1.
        -12    1    6    6    0    0  0.43324713185E+02 -0.45631275264E+01  0.67437816468E+01  0.44083233732E+02  0.00000000000E+00 0.  1.
</event>
<event>
12    1  0.1039610E+000  0.1886231E+03  0.7818608E-02  0.1160316E+00
         21   -1    0    0  501  502  0.00000000000E+00  0.00000000000E+00  0.20508386058E+04  0.20508386058E+04  0.00000000000E+00 0.  1.
         21   -1    0    0  502  503 -0.00000000000E+00 -0.00000000000E+00 -0.17527849503E+02  0.17527849503E+02  0.00000000000E+00 0.  1.
         -6    2    1    2    0  503 -0.41040905946E+02 -0.61326229177E+02  0.11700828140E+04  0.11847708639E+04  0.17071305198E+03 0.  0.
        -24    2    3    3    0    0  0.30039738104E+02 -0.17527851233E+02  0.37172493077E+03  0.38204540929E+03  0.81053433997E+02 0.  0.
          6    2    1    2  501    0  0.41040905946E+02  0.61326229177E+02  0.86322794235E+03  0.88359559140E+03  0.17358982211E+03 0.  0.
         24    2    5    5    0    0  0.80504791855E+02  0.13061679575E+02  0.69355157424E+03  0.70276687428E+03  0.78840753881E+02 0.  0.
          5    1    5    5  501    0 -0.39463885909E+02  0.48264549602E+02  0.16967636811E+03  0.18082871712E+03  0.47000000000E+01 0. -1.
        -13    1    6    6    0    0 -0.14885708214E+02  0.65786814541E+01  0.66182874202E+02  0.68154502393E+02  0.00000000000E+00 0.  1.
         14    1    6    6    0    0  0.95390500069E+02  0.64829981204E+01  0.62736870004E+03  0.63461237189E+03  0.00000000000E+00 0. -1.
         -5    1    3    3    0  503 -0.71080644050E+02 -0.43798377943E+02  0.79835788321E+03  0.80272545466E+03  0.47000000000E+01 0.  1.
         11    1    4    4    0    0 -0.65764453897E+01 -0.41201229823E+02  0.23039351229E+03  0.23414090090E+03  0.00000000000E+00 0. -1.
        -12    1    4    4    0    0  0.36616183494E+02  0.23673378590E+02  0.14133141849E+03  0.14790450838E+03  0.00000000000E+00 0.  1.
</event>
<event>
12    1  0.1039610E+000  0.2295431E+03  0.7818608E-02  0.1127167E+00
         21   -1    0    0  501  502  0.00000000000E+00  0.00000000000E+00  0.11686091868E+03  0.11686091868E+03  0.00000000000E+00 0.  1.
         21   -1    0    0  502  503 -0.00000000000E+00 -0.00000000000E+00 -0.71582732880E+03  0.71582732880E+03  0.00000000000E+00 0.  1.
         -6    2    1    2    0  503  0.10447427670E+03  0.11135953931E+03 -0.55338965404E+03  0.59866410745E+03  0.16983163092E+03 0.  0.
        -24    2    3    3    0    0  0.94033166943E+02  0.84076972135E+02 -0.22407530495E+03  0.26802323617E+03  0.75601184570E+02 0.  0.
          6    2    1    2  501    0 -0.10447427670E+03 -0.11135953931E+03 -0.45576756080E+02  0.23402414003E+03  0.17138913599E+03 0.  0.
         24    2    5    5    0    0 -0.72355159690E+02 -0.29248745616E+02  0.30715756864E+02  0.11733456187E+03  0.82055977458E+02 0.  0.
          5    1    5    5  501    0 -0.32119117005E+02 -0.82110793696E+02 -0.76292512943E+02  0.11668957815E+03  0.47000000000E+01 0. -1.
        -11    1    6    6    0    0 -0.76511152631E+02 -0.13669805760E+02 -0.52705395266E+01  0.77901210860E+02  0.00000000000E+00 0.  1.
         12    1    6    6    0    0  0.41559929409E+01 -0.15578939857E+02  0.35986296390E+02  0.39433351015E+02  0.00000000000E+00 0. -1.
         -5    1    3    3    0  503  0.10441109753E+02  0.27282567177E+02 -0.32931434909E+03  0.33064087128E+03  0.47000000000E+01 0.  1.
         11    1    4    4    0    0  0.95601586546E+02  0.88044907260E+02 -0.22785995828E+03  0.26231989942E+03  0.00000000000E+00 0. -1.
        -12    1    4    4    0    0 -0.15684196032E+01 -0.39679351256E+01  0.37846533302E+01  0.57033367464E+01  0.00000000000E+00 0.  1.
</event>
<event>
12    1  0.1039610E+000  0.2696121E+03  0.7818608E-02  0.1101509E+00
         21   -1    0    0  501  502  0.00000000000E+00  0.00000000000E+00  0.61535233784E+03  0.61535233784E+03  0.00000000000E+00 0.  1.
         21   -1    0    0  502  503 -0.00000000000E+00 -0.00000000000E+00 -0.16852497977E+03  0.16852497977E+03  0.00000000000E+00 0. -1.
         -6    2    1    2    0  503 -0.13394695771E+03  0.15975173152E+03  0.90240088036E+01  0.26971544487E+03  0.17088763929E+03 0.  0.
        -24    2    3    3    0    0 -0.32356462288E+02  0.16922320849E+02 -0.24144463484E+02  0.91269075149E+02  0.80086099711E+02 0.  0.
          6    2    1    2  501    0  0.13394695771E+03 -0.15975173152E+03  0.43780334927E+03  0.51416187274E+03  0.17096273145E+03 0.  0.
         24    2    5    5    0    0  0.14665503006E+03 -0.78307712527E+02  0.34137255861E+03  0.38721459738E+03  0.75895487165E+02 0.  0.
          5    1    5    5  501    0 -0.12708072353E+02 -0.81444018996E+02  0.96430790658E+02  0.12694727535E+03  0.47000000000E+01 0. -1.
        -11    1    6    6    0    0  0.30104170374E+02  0.82237572849E+01  0.10764701537E+03  0.11207930753E+03  0.00000000000E+00 0.  1.
         12    1    6    6    0    0  0.11655085969E+03 -0.86531469811E+02  0.23372554324E+03  0.27513528985E+03  0.00000000000E+00 0. -1.
         -5    1    3    3    0  503 -0.10159049542E+03  0.14282941067E+03  0.33168472288E+02  0.17844636972E+03  0.47000000000E+01 0.  1.
         13    1    4    4    0    0 -0.51569963232E+02  0.23886813909E+02  0.34415888272E+01  0.56937558080E+02  0.00000000000E+00 0. -1.
        -14    1    4    4    0    0  0.19213500945E+02 -0.69644930602E+01 -0.27586052311E+02  0.34331517069E+02  0.00000000000E+00 0.  1.
</event>
<event>
12    1  0.1039610E+000  0.2103515E+03  0.7818608E-02  0.1142108E+00
         21   -1    0    0  503  502  0.00000000000E+00  0.00000000000E+00  0.48879413123E+02  0.48879413123E+02  0.00000000000E+00 0.  1.
         21   -1    0    0  501  503 -0.00000000000E+00 -0.00000000000E+00 -0.91899005828E+03  0.91899005828E+03  0.00000000000E+00 0.  1.
          6    2    1    2  501    0 -0.22546878585E+02  0.11795598833E+03 -0.34156916406E+03  0.39900757752E+03  0.16767699951E+03 0.  0.
         24    2    3    3    0    0 -0.40651956756E+02  0.54807853422E+02 -0.30800222808E+03  0.32508660628E+03  0.78482142521E+02 0.  0.
         -6    2    1    2    0  502  0.22546878585E+02 -0.11795598833E+03 -0.52854148110E+03  0.56886189388E+03  0.17270141908E+03 0.  0.
        -24    2    5    5    0    0  0.64741103537E+02 -0.11326282762E+03 -0.47913993424E+03  0.50355507029E+03  0.83503015604E+02 0.  0.
          5    1    3    3  501    0  0.18105078171E+02  0.63148134906E+02 -0.33566935972E+02  0.73920971234E+02  0.47000000000E+01 0. -1.
        -13    1    4    4    0    0 -0.15804291524E+01  0.54357114055E+02 -0.24490969625E+03  0.25087437678E+03  0.00000000000E+00 0.  1.
         14    1    4    4    0    0 -0.39071527604E+02  0.45073936636E+00 -0.63092531832E+02  0.74212229506E+02  0.00000000000E+00 0. -1.
         -5    1    5    5    0  502 -0.42194224951E+02 -0.46931607031E+01 -0.49401546854E+02  0.65306823596E+02  0.47000000000E+01 0.  1.
         13    1    6    6    0    0 -0.10482249540E+02 -0.46814032093E+02 -0.23014708050E+03  0.23509383195E+03  0.00000000000E+00 0. -1.
        -14    1    6    6    0    0  0.75223353077E+02 -0.66448795531E+02 -0.24899285374E+03  0.26846123834E+03  0.00000000000E+00 0.  1.
</event>
<event>
12    1  0.1039610E+000  0.1883853E+03  0.7818608E-02  0.1162278E+00
         21   -1    0    0  501  502  0.00000000000E+00  0.00000000000E+00  0.67049154020E+02  0.67049154020E+02  0.00000000000E+00 0. -1.
         21   -1    0    0  502  503 -0.00000000000E+00 -0.00000000000E+00 -0.51293257103E+03  0.51293257103E+03  0.00000000000E+00 0. -1.
         -6    2    1    2    0  503 -0.52668910124E+02 -0.25498629850E+02 -0.26022855398E+03  0.31548835133E+03  0.16849274554E+03 0.  0.
        -24    2    3    3    0    0 -0.71652159692E+02  0.23230608763E+02 -0.12697518910E+03  0.17226317299E+03  0.88759275276E+02 0.  0.
          6    2    1    2  501    0  0.52668910124E+02  0.25498629850E+02 -0.18565486302E+03  0.26449337371E+03  0.17906653053E+03 0.  0.
         24    2    5    5    0    0  0.66053328277E+02  0.43260914144E+02 -0.20525112801E+03  0.23448095971E+03  0.81355676194E+02 0.  0.
          5    1    5    5  501    0 -0.13384418153E+02 -0.17762284293E+02  0.19596264989E+02  0.30012414001E+02  0.47000000000E+01 0. -1.
        -13    1    6    6    0    0  0.32733000169E+02 -0.39356308417E+01 -0.16073652084E+02  0.36678342132E+02  0.00000000000E+00 0.  1.
         14    1    6    6    0    0  0.33320328108E+02  0.47196544985E+02 -0.18917747593E+03  0.19780261758E+03  0.00000000000E+00 0. -1.
         -5    1    3    3    0  503  0.18983249569E+02 -0.48729238613E+02 -0.13325336488E+03  0.14322517835E+03  0.47000000000E+01 0.  1.
         11    1    4    4    0    0 -0.71632703399E+02 -0.11876666504E+02 -0.51492482125E+02  0.89015589191E+02  0.00000000000E+00 0. -1.
        -12    1    4    4    0    0 -0.19456293000E-01  0.35107275267E+02 -0.75482706976E+02  0.83247583795E+02  0.00000000000E+00 0.  1.
</event>
<event>
12    1  0.1039610E+000  0.1893517E+03  0.7818608E-02  0.1159137E+00
         21   -1    0    0  503  502  0.00000000000E+00  0.00000000000E+00  0.19348694968E+03  0.19348694968E+03  0.00000000000E+00 0.  1.
         21   -1    0    0  501  503 -0.00000000000E+00 -0.00000000000E+00 -0.33275130767E+03  0.33275130767E+03  0.00000000000E+00 0.  1.
          6    2    1    2  501    0 -0.54812217418E+02  0.49313237810E+02  0.10570564718E+03  0.21685882014E+03  0.17440725164E+03 0.  0.
         24    2    3    3    0    0  0.17496133489E+02 -0.42106646132E+00  0.29918147971E+01  0.81676646779E+02  0.79723470128E+02 0.  0.
         -6    2    1    2    0  502  0.54812217418E+02 -0.49313237810E+02 -0.24497000516E+03  0.30937943722E+03  0.17398033837E+03 0.  0.
        -24    2    5    5    0    0  0.62262260994E+02 -0.83294386418E+02 -0.24045319834E+03  0.27398574916E+03  0.80224099879E+02 0.  0.
          5    1    3    3  501    0 -0.72308350907E+02  0.49734304272E+02  0.10271383238E+03  0.13518217336E+03  0.47000000000E+01 0. -1.
        -11    1    4    4    0    0  0.38605083859E+02 -0.98990477076E+01  0.27151195734E+02  0.48223760483E+02  0.00000000000E+00 0.  1.
         12    1    4    4    0    0 -0.21108950371E+02  0.94779812463E+01 -0.24159380937E+02  0.33452886296E+02  0.00000000000E+00 0. -1.
         -5    1    5    5    0  502 -0.74500435763E+01  0.33981148608E+02 -0.45168068267E+01  0.35393688052E+02  0.47000000000E+01 0.  1.
         13    1    6    6    0    0  0.64121563946E+02 -0.22614268959E+02 -0.99473967479E+02  0.12049087239E+03  0.00000000000E+00 0. -1.
        -14    1    6    6    0    0 -0.18593029512E+01 -0.60680117460E+02 -0.14097923086E+03  0.15349487677E+03  0.00000000000E+00 0.  1.
</event>
<event>
12    1  0.1039610E+000  0.2150499E+03  0.7818608E-02  0.1138067E+00
         21   -1    0    0  503  502  0.00000000000E+00  0.00000000000E+00  0.12412332505E+03  0.12412332505E+03  0.00000000000E+00 0. -1.
         21   -1    0    0  501  503 -0.00000000000E+00 -0.00000000000E+00 -0.71025794898E+03  0.71025794898E+03  0.00000000000E+00 0. -1.
          6    2    1    2  501    0  0.65544199152E+02  0.10864191944E+03 -0.45534943329E+01  0.21509809369E+03  0.17362991360E+03 0.  0.
         24    2    3    3    0    0 -0.69929433073E+01  0.11625193774E+03  0.71379803938E+01  0.14108235214E+03  0.79308669378E+02 0.  0.
         -6    2    1    2    0  502 -0.65544199152E+02 -0.10864191944E+03 -0.58158112960E+03  0.61928318034E+03  0.17080965560E+03 0.  0.
        -24    2    5    5    0    0 -0.97215090714E+02 -0.97560826951E+02 -0.54318764246E+03  0.56807785017E+03  0.93224139128E+02 0.  0.
          5    1    3    3  501    0  0.72537142459E+02 -0.76100183007E+01 -0.11691474727E+02  0.74015741541E+02  0.47000000000E+01 0. -1.
        -11    1    4    4    0    0  0.34500750340E+02  0.49004797922E+02 -0.85007943843E+01  0.60531277028E+02  0.00000000000E+00 0.  1.
         12    1    4    4    0    0 -0.41493693647E+02  0.67247139816E+02  0.15638774778E+02  0.80551075117E+02  0.00000000000E+00 0. -1.
         -5    1    5    5    0  502  0.31670891562E+02 -0.11081092486E+02 -0.38393487143E+02  0.51205330172E+02  0.47000000000E+01 0.  1.
         11    1    6    6    0    0 -0.56468450964E+02  0.35274034936E+01 -0.21181775764E+03  0.21924390752E+03  0.00000000000E+00 0. -1.
        -12    1    6    6    0    0 -0.40746639750E+02 -0.10108823044E+03 -0.33136988482E+03  0.34883394266E+03  0.00000000000E+00 0.  1.
</event>
<event>
12    1  0.1039610E+000  0.2110566E+03  0.7818608E-02  0.1141362E+00
         21   -1    0    0  501  502  0.00000000000E+00  0.00000000000E+00  0.22845474623E+03  0.22845474623E+03  0.00000000000E+00 0. -1.
         21   -1    0    0  502  503 -0.00000000000E+00 -0.00000000000E+00 -0.19263428277E+03  0.19263428277E+03  0.00000000000E+00 0. -1.
         -6    2    1    2    0  503  0.11249126925E+03 -0.37724926563E+02  0.62621754620E+01  0.20797265648E+03  0.17069257529E+03 0.  0.
        -24    2    3    3    0    0  0.70580938341E+01  0.24304317947E+01 -0.34370768988E+02  0.87965433950E+02  0.80627812334E+02 0.  0.
          6    2    1    2  501    0 -0.11249126925E+03  0.37724926563E+02  0.29558288006E+02  0.21311637252E+03  0.17454924837E+03 0.  0.
         24    2    5    5    0    0 -0.11213308199E+03  0.16373390105E+02 -0.36637748272E+02  0.14340251719E+03  0.79875161071E+02 0.  0.
          5    1    5    5  501    0 -0.35818726071E+00  0.21351536458E+02  0.66196036277E+02  0.69713855338E+02  0.47000000000E+01 0. -1.
        -11    1    6    6    0    0 -0.90984939393E+02  0.89440578684E+01  0.96914116537E+01  0.91935732049E+02  0.00000000000E+00 0.  1.
         12    1    6    6    0    0 -0.21148142599E+02  0.74293322369E+01 -0.46329159925E+02  0.51466785136E+02  0.00000000000E+00 0. -1.
         -5    1    3    3    0  503  0.10543317542E+03 -0.40155358358E+02  0.40632944450E+02  0.12000722253E+03  0.47000000000E+01 0.  1.
         13    1    4    4    0    0 -0.25188932302E+02  0.28681647715E+01  0.14655462776E+02  0.29282951847E+02  0.00000000000E+00 0. -1.
        -14    1    4    4    0    0  0.32247026136E+02 -0.43773297680E+00 -0.49026231764E+02  0.58682482103E+02  0.00000000000E+00 0.  1.
</event>
<event>
12    1  0.1039610E+000  0.2711137E+03  0.7818608E-02  0.1101562E+00
         21   -1    0    0  503  502  0.00000000000E+00  0.00000000000E+00  0.10007174820E+03  0.10007174820E+03  0.00000000000E+00 0.  1.
         21   -1    0    0  501  503 -0.00000000000E+00 -0.00000000000E+00 -0.71908355758E+03  0.71908355758E+03  0.00000000000E+00 0.  1.
          6    2    1    2  501    0  0.23307523799E+02  0.20239513955E+03 -0.29303288767E+03  0.39921286554E+03  0.17887315498E+03 0.  0.
         24    2    3    3    0    0 -0.47662378167E+02  0.10506051432E+03 -0.10812038004E+03  0.17847437380E+03  0.82786904534E+02 0.  0.
         -6    2    1    2    0  502 -0.23307523799E+02 -0.20239513955E+03 -0.32597892170E+03  0.41994244025E+03  0.16906319099E+03 0.  0.
        -24    2    5    5    0    0  0.37761013325E+02 -0.17078534567E+03 -0.25994340164E+03  0.32448917836E+03  0.84434154175E+02 0.  0.
          5    1    3    3  501    0  0.70969901966E+02  0.97334625236E+02 -0.18491250763E+03  0.22073849173E+03  0.47000000000E+01 0. -1.
        -13    1    4    4    0    0  0.14330035497E+02  0.41948226250E+00 -0.31810214924E+02  0.34891484007E+02  0.00000000000E+00 0.  1.
         14    1    4    4    0    0 -0.61992413664E+02  0.10464103206E+03 -0.76310165120E+02  0.14358288980E+03  0.00000000000E+00 0. -1.
         -5    1    5    5    0  502 -0.61068537123E+02 -0.31609793881E+02 -0.66035520065E+02  0.95453261892E+02  0.47000000000E+01 0.  1.
         11    1    6    6    0    0  0.59382179712E+02 -0.73153858242E+02 -0.12722202716E+03  0.15831353207E+03  0.00000000000E+00 0. -1.
        -12    1    6    6    0    0 -0.21621166388E+02 -0.97631487431E+02 -0.13272137448E+03  0.16617564628E+03  0.00000000000E+00 0.  1.
</event>
<event>
12    1  0.1039610E+000  0.3298774E+03  0.7818608E-02  0.1071281E+00
         21   -1    0    0  503  502  0.00000000000E+00  0.00000000000E+00  0.42281542842E+03  0.42281542842E+03  0.00000000000E+00 0.  1.
         21   -1    0    0  501  503 -0.00000000000E+00 -0.00000000000E+00 -0.28136543450E+03  0.28136543450E+03  0.00000000000E+00 0.  1.
          6    2    1    2  501    0 -0.58469894196E+02  0.27510382479E+03 -0.33373710247E+02  0.33156130647E+03  0.17238982705E+03 0.  0.
         24    2    3    3    0    0 -0.68836838305E+02  0.83349218356E+02 -0.34452702228E+02  0.13946612995E+03  0.81106166248E+02 0.  0.
         -6    2    1    2    0  502  0.58469894196E+02 -0.27510382479E+03  0.17482370417E+03  0.37261955646E+03  0.17082494951E+03 0.  0.
        -24    2    5    5    0    0  0.65307918114E+02 -0.10502877786E+03  0.13354744056E+03  0.19741082352E+03  0.76419539495E+02 0.  0.
          5    1    3    3  501    0  0.10366944108E+02  0.19175460643E+03  0.10789919812E+01  0.19209517652E+03  0.47000000000E+01 0. -1.
        -13    1    4    4    0    0 -0.66870734898E+01 -0.14443566664E+02 -0.15196839020E+02  0.22006305597E+02  0.00000000000E+00 0.  1.
         14    1    4    4    0    0 -0.62149764815E+02  0.97792785020E+02 -0.19255863208E+02  0.11745982435E+03  0.00000000000E+00 0. -1.
         -5    1    5    5    0  502 -0.68380239174E+01 -0.17007504693E+03  0.41276263602E+02  0.17520873293E+03  0.47000000000E+01 0.  1.
         13    1    6    6    0    0  0.43731234676E+02 -0.11255842374E+03  0.12255767989E+03  0.17205291204E+03  0.00000000000E+00 0. -1.
        -14    1    6    6    0    0  0.21576683437E+02  0.75296458816E+01  0.10989760678E+02  0.25357911488E+02  0.00000000000E+00 0.  1.
</event>
<event>
12    1  0.1039610E+000  0.2608233E+03  0.7818608E-02  0.1106932E+00
         21   -1    0    0  501  502  0.00000000000E+00  0.00000000000E+00  0.32558185946E+03  0.32558185946E+03  0.00000000000E+00 0.  1.
         21   -1    0    0  502  503 -0.00000000000E+00 -0.00000000000E+00 -0.20879905988E+03  0.20879905988E+03  0.00000000000E+00 0.  1.
         -6    2    1    2    0  503  0.18689914990E+03 -0.52877939627E+02  0.36619984265E+02  0.26151669444E+03  0.17123839959E+03 0.  0.
        -24    2    3    3    0    0  0.17873658106E+03 -0.85556687871E+02  0.56438730285E+02  0.22215426552E+03  0.83069098729E+02 0.  0.
          6    2    1    2  501    0 -0.18689914990E+03  0.52877939627E+02  0.80162815317E+02  0.27286422491E+03  0.17407308679E+03 0.  0.
         24    2    5    5    0    0 -0.20078998489E+03  0.49975562254E+02  0.30038055975E+02  0.22055781430E+03  0.70208901053E+02 0.  0.
          5    1    5    5  501    0  0.13890834996E+02  0.29023773724E+01  0.50124759342E+02  0.52306410605E+02  0.47000000000E+01 0. -1.
        -11    1    6    6    0    0 -0.92469505782E+02  0.59189894612E+02  0.15219875029E+02  0.11084086665E+03  0.00000000000E+00 0.  1.
         12    1    6    6    0    0 -0.10832047911E+03 -0.92143323578E+01  0.14818180946E+02  0.10971694765E+03  0.00000000000E+00 0. -1.
         -5    1    3    3    0  503  0.81625688340E+01  0.32678748244E+02 -0.19818746020E+02  0.39362428921E+02  0.47000000000E+01 0.  1.
         11    1    4    4    0    0  0.48254874495E+02  0.86386756438E+01 -0.63055576240E+01  0.49425900966E+02  0.00000000000E+00 0. -1.
        -12    1    4    4    0    0  0.13048170657E+03 -0.94195363515E+02  0.62744287909E+02  0.17272836455E+03  0.00000000000E+00 0.  1.
</event>
<event>
12    1  0.1039610E+000  0.2070149E+03  0.7818608E-02  0.1146600E+00
         21   -1    0    0  501  502  0.00000000000E+00  0.00000000000E+00  0.25587344663E+03  0.25587344663E+03  0.00000000000E+00 0. -1.
         21   -1    0    0  502  503 -0.00000000000E+00 -0.00000000000E+00 -0.16392103748E+03  0.16392103748E+03  0.00000000000E+00 0. -1.
         -6    2    1    2    0  503  0.64584437163E+02  0.95630887339E+02  0.86507174500E+02  0.21270798839E+03  0.15634826813E+03 0.  0.
        -24    2    3    3    0    0  0.80056809779E+02  0.95318762242E+02  0.10883612935E+03  0.18513691730E+03  0.83280345030E+02 0.  0.
          6    2    1    2  501    0 -0.64584437163E+02 -0.95630887339E+02  0.54452346521E+01  0.20708649572E+03  0.17186840895E+03 0.  0.
         24    2    5    5    0    0  0.16493190657E+02 -0.99956873110E+00 -0.50943839775E+01  0.81939215469E+02  0.80094056008E+02 0.  0.
          5    1    5    5  501    0 -0.81077627821E+02 -0.94631318608E+02  0.10539618630E+02  0.12514728026E+03  0.47000000000E+01 0. -1.
        -11    1    6    6    0    0 -0.16923181764E+02 -0.28949355720E+02  0.11309712700E+02  0.35388824210E+02  0.00000000000E+00 0.  1.
         12    1    6    6    0    0  0.33416372421E+02  0.27949786989E+02 -0.16404096678E+02  0.46550391258E+02  0.00000000000E+00 0. -1.
         -5    1    3    3    0  503 -0.15472372616E+02  0.31212509720E+00 -0.22328954846E+02  0.27571071088E+02  0.47000000000E+01 0.  1.
         13    1    4    4    0    0  0.85133921503E+02  0.48710575089E+02  0.50579133302E+02  0.11035738961E+03  0.00000000000E+00 0. -1.
        -14    1    4    4    0    0 -0.50771117242E+01  0.46608187153E+02  0.58256996044E+02  0.74779527687E+02  0.00000000000E+00 0.  1.
</event>
<event>
12    1  0.1039610E+000  0.1961313E+03  0.7818608E-02  0.1153085E+00
         21   -1    0    0  501  502  0.00000000000E+00  0.00000000000E+00  0.16992555028E+03  0.16992555028E+03  0.00000000000E+00 0. -1.
         21   -1    0    0  502  503 -0.00000000000E+00 -0.00000000000E+00 -0.66717004770E+03  0.66717004770E+03  0.00000000000E+00 0.  1.
         -6    2    1    2    0  503 -0.30272844510E+02  0.89460536873E+02  0.91709161062E+02  0.21634289510E+03  0.17168006660E+03 0.  0.
        -24    2    3    3    0    0 -0.76380969050E+02  0.36336798162E+02  0.20366049716E+02  0.11604324256E+03  0.76790903304E+02 0.  0.
          6    2    1    2  501    0  0.30272844510E+02 -0.89460536873E+02 -0.58895365848E+03  0.62075270287E+03  0.17189494906E+03 0.  0.
         24    2    5    5    0    0  0.24065987374E+02 -0.37076209319E+02 -0.54252754735E+03  0.55032460732E+03  0.81038365832E+02 0.  0.
          5    1    5    5  501    0  0.62068571362E+01 -0.52384327554E+02 -0.46426111124E+02  0.70428095551E+02  0.47000000000E+01 0. -1.
        -11    1    6    6    0    0  0.52085255736E+02 -0.37553105435E+02 -0.36734147101E+03  0.37291133788E+03  0.00000000000E+00 0.  1.
         12    1    6    6    0    0 -0.28019268361E+02  0.47689611611E+00 -0.17518607634E+03  0.17741326944E+03  0.00000000000E+00 0. -1.
         -5    1    3    3    0  503  0.46108124539E+02  0.53123738712E+02  0.71343111346E+02  0.10029965254E+03  0.47000000000E+01 0.  1.
         11    1    4    4    0    0 -0.23321445462E+02 -0.59948694784E+01 -0.24757256162E+02  0.34536213040E+02  0.00000000000E+00 0. -1.
        -12    1    4    4    0    0 -0.53059523588E+02  0.42331667640E+02  0.45123305878E+02  0.81507029525E+02  0.00000000000E+00 0.  1.
</event>
<event>
12    1  0.1039610E+000  0.2172588E+03  0.7818608E-02  0.1136260E+00
         21   -1    0    0  501  502  0.00000000000E+00  0.00000000000E+00  0.53072869553E+02  0.53072869553E+02  0.00000000000E+00 0.  1.
         21   -1    0    0  502  503 -0.00000000000E+00 -0.00000000000E+00 -0.88338298937E+03  0.88338298937E+03  0.00000000000E+00 0.  1.
         -6    2    1    2    0  503 -0.13313655278E+03  0.47719735133E+01 -0.43091954657E+03  0.48258991598E+03  0.17161951514E+03 0.  0.
        -24    2    3    3    0    0 -0.13660626534E+03 -0.64327135961E+01 -0.22437378594E+03  0.27565798236E+03  0.83313119545E+02 0.  0.
          6    2    1    2  501    0  0.13313655278E+03 -0.47719735133E+01 -0.39939057325E+03  0.45386594293E+03  0.16950914648E+03 0.  0.
         24    2    5    5    0    0  0.69604971359E+02  0.39335047138E+02 -0.33292040332E+03  0.35177742939E+03  0.80741977347E+02 0.  0.
          5    1    5    5  501    0  0.63531581423E+02 -0.44107020651E+02 -0.66470169921E+02  0.10208851355E+03  0.47000000000E+01 0. -1.
        -13    1    6    6    0    0  0.62044103312E+02  0.22639597235E+02 -0.11144802507E+03  0.12954800041E+03  0.00000000000E+00 0.  1.
         14    1    6    6    0    0  0.75608680469E+01  0.16695449902E+02 -0.22147237826E+03  0.22222942898E+03  0.00000000000E+00 0. -1.
         -5    1    3    3    0  503  0.34697125616E+01  0.11204687109E+02 -0.20654576063E+03  0.20693193362E+03  0.47000000000E+01 0.  1.
         13    1    4    4    0    0  0.13831338094E+01  0.14857780095E+02 -0.52241001734E+01  0.15810057277E+02  0.00000000000E+00 0. -1.
        -14    1    4    4    0    0 -0.13798939915E+03 -0.21290493691E+02 -0.21914968577E+03  0.25984792509E+03  0.00000000000E+00 0.  1.
</event>
<event>
12    1  0.1039610E+000  0.2157649E+03  0.7818608E-02  0.1137998E+00
         21   -1    0    0  503  502  0.00000000000E+00  0.00000000000E+00  0.65627173138E+03  0.65627173138E+03  0.00000000000E+00 0. -1.
         21   -1    0    0  501  503 -0.00000000000E+00 -0.00000000000E+00 -0.92676429369E+02  0.92676429369E+02  0.00000000000E+00 0. -1.
          6    2    1    2  501    0  0.26174506682E+02 -0.12703470583E+03  0.47186172657E+03  0.51885257639E+03  0.17242849458E+03 0.  0.
         24    2    3    3    0    0  0.53542429904E+02 -0.12339657240E+03  0.24925028586E+03  0.29448639629E+03  0.80641346223E+02 0.  0.
         -6    2    1    2    0  502 -0.26174506682E+02  0.12703470583E+03  0.91733575438E+02  0.23009558435E+03  0.16645121746E+03 0.  0.
        -24    2    5    5    0    0  0.11868698645E+02  0.57346823041E+02 -0.11792717187E+02  0.99544943823E+02  0.79627906801E+02 0.  0.
          5    1    3    3  501    0 -0.27367923222E+02 -0.36381334229E+01  0.22261144072E+03  0.22436618010E+03  0.47000000000E+01 0. -1.
        -13    1    4    4    0    0  0.30205126779E+02 -0.90007085121E+02  0.92582364815E+02  0.13260889612E+03  0.00000000000E+00 0.  1.
         14    1    4    4    0    0  0.23337303124E+02 -0.33389487282E+02  0.15666792104E+03  0.16187750017E+03  0.00000000000E+00 0. -1.
         -5    1    5    5    0  502 -0.38043205327E+02  0.69687882785E+02  0.10352629263E+03  0.13055064053E+03  0.47000000000E+01 0.  1.
         11    1    6    6    0    0 -0.60240239984E+01  0.65346039633E+02  0.14050325071E+02  0.67110397074E+02  0.00000000000E+00 0. -1.
        -12    1    6    6    0    0  0.17892722644E+02 -0.79992165915E+01 -0.25843042257E+02  0.32434546749E+02  0.00000000000E+00 0.  1.
</event>
<event>
12    1  0.1039610E+000  0.2082114E+03  0.7818608E-02  0.1143085E+00
         21   -1    0    0  501  502  0.00000000000E+00  0.00000000000E+00  0.78260531369E+03  0.78260531369E+03  0.00000000000E+00 0.  1.
         21   -1    0    0  502  503 -0.00000000000E+00 -0.00000000000E+00 -0.56364741446E+02  0.56364741446E+02  0.00000000000E+00 0.  1.
         -6    2    1    2    0  503  0.75102547582E+02 -0.90615044897E+02  0.42203748141E+03  0.47060345889E+03  0.17175709821E+03 0.  0.
        -24    2    3    3    0    0  0.37062380051E+02  0.14177006423E+02  0.12820742831E+03  0.15630007285E+03  0.80112174946E+02 0.  0.
          6    2    1    2  501    0 -0.75102547582E+02  0.90615044897E+02  0.30420309084E+03  0.36836659625E+03  0.17118104377E+03 0.  0.
         24    2    5    5    0    0 -0.36427950516E+02  0.64450548491E+02  0.30227027933E+03  0.32139712648E+03  0.80298956200E+02 0.  0.
          5    1    5    5  501    0 -0.38674597066E+02  0.26164496406E+02  0.19328115127E+01  0.46969469773E+02  0.47000000000E+01 0. -1.
        -11    1    6    6    0    0 -0.16816693406E+02  0.32290072315E+02  0.26803343054E+03  0.27049467616E+03  0.00000000000E+00 0.  1.
         12    1    6    6    0    0 -0.19611257110E+02  0.32160476176E+02  0.34236848788E+02  0.50902450316E+02  0.00000000000E+00 0. -1.
         -5    1    3    3    0  503  0.38040167530E+02 -0.10479205132E+03  0.29383005310E+03  0.31430338603E+03  0.47000000000E+01 0.  1.
         13    1    4    4    0    0  0.36642917303E+02 -0.28037985190E+02  0.78784716719E+02  0.91300950654E+02  0.00000000000E+00 0. -1.
        -14    1    4    4    0    0  0.41946274861E+00  0.42214991612E+02  0.49422711587E+02  0.64999122197E+02  0.00000000000E+00 0.  1.
</event>
<event>
12    1  0.1039610E+000  0.4137877E+03  0.7818608E-02  0.1039217E+00
         21   -1    0    0  501  502  0.00000000000E+00  0.00000000000E+00  0.33403399034E+03  0.33403399034E+03  0.00000000000E+00 0. -1.
         21   -1    0    0  502  503 -0.00000000000E+00 -0.00000000000E+00 -0.52824322458E+03  0.52824322458E+03  0.00000000000E+00 0. -1.
         -6    2    1    2    0  503 -0.37478120518E+03 -0.28004123774E+02 -0.17525766808E+03  0.44937231413E+03  0.17313302335E+03 0.  0.
        -24    2    3    3    0    0 -0.21445860450E+03  0.14589798643E+02 -0.32494937881E+02  0.23046396424E+03  0.76500735661E+02 0.  0.
          6    2    1    2  501    0  0.37478120518E+03  0.28004123774E+02 -0.18951566165E+02  0.41290490079E+03  0.16995914959E+03 0.  0.
         24    2    5    5    0    0  0.30989571785E+03  0.75790788900E+02 -0.34752217295E+02  0.33065259136E+03  0.79648100683E+02 0.  0.
          5    1    5    5  501    0  0.64885487339E+02 -0.47786665126E+02  0.15800651130E+02  0.82252309434E+02  0.47000000000E+01 0. -1.
        -13    1    6    6    0    0  0.28785263681E+03  0.49440055605E+02 -0.18515000336E+02  0.29265383110E+03  0.00000000000E+00 0.  1.
         14    1    6    6    0    0  0.22043081031E+02  0.26350733295E+02 -0.16237216959E+02  0.37998760257E+02  0.00000000000E+00 0. -1.
         -5    1    3    3    0  503 -0.16032260069E+03 -0.42593922416E+02 -0.14276273020E+03  0.21890834989E+03  0.47000000000E+01 0.  1.
         13    1    4    4    0    0 -0.48676998102E+02 -0.28277890646E+02 -0.15492975741E+02  0.58387683127E+02  0.00000000000E+00 0. -1.
        -14    1    4    4    0    0 -0.16578160640E+03  0.42867689289E+02 -0.17001962140E+02  0.17207628111E+03  0.00000000000E+00 0.  1.
</event>
<event>
12    1  0.1039610E+000  0.2044609E+03  0.7818608E-02  0.1146229E+00
         21   -1    0    0  503  502  0.00000000000E+00  0.00000000000E+00  0.94394703886E+02  0.94394703886E+02  0.00000000000E+00 0.  1.
         21   -1    0    0  501  503 -0.00000000000E+00 -0.00000000000E+00 -0.11776192208E+04  0.11776192208E+04  0.00000000000E+00 0.  1.
          6    2    1    2  501    0  0.99797811508E+02  0.43679109868E+02 -0.38999817733E+02  0.20814718137E+03  0.17302252890E+03 0.  0.
         24    2    3    3    0    0 -0.77670358929E+01  0.43327723156E+02  0.78042978777E+01  0.90746009708E+02  0.78970328429E+02 0.  0.
         -6    2    1    2    0  502 -0.99797811508E+02 -0.43679109868E+02 -0.10442246991E+04  0.10638667433E+04  0.17187133949E+03 0.  0.
        -24    2    5    5    0    0 -0.90075547265E+02  0.27876604796E+02 -0.80764637901E+03  0.81646800788E+03  0.73733473048E+02 0.  0.
          5    1    3    3  501    0  0.10756484740E+03  0.35138671175E+00 -0.46804115611E+02  0.11740117166E+03  0.47000000000E+01 0. -1.
        -11    1    4    4    0    0  0.22733365847E+02  0.19695006098E+02 -0.25763153747E+02  0.39603526092E+02  0.00000000000E+00 0.  1.
         12    1    4    4    0    0 -0.30500401740E+02  0.23632717058E+02  0.33567451625E+02  0.51142483616E+02  0.00000000000E+00 0. -1.
         -5    1    5    5    0  502 -0.97222642429E+01 -0.71555714664E+02 -0.23657832013E+03  0.24739873541E+03  0.47000000000E+01 0.  1.
         13    1    6    6    0    0 -0.10890337284E+02  0.34433209433E+02 -0.36169431788E+03  0.36349281278E+03  0.00000000000E+00 0. -1.
        -14    1    6    6    0    0 -0.79185209981E+02 -0.65566046374E+01 -0.44595206114E+03  0.45297519510E+03  0.00000000000E+00 0.  1.
</event>
<event>
12    1  0.1039610E+000  0.1779275E+03  0.7818608E-02  0.1170000E+00
         21   -1    0    0  503  502  0.00000000000E+00  0.00000000000E+00  0.38712445406E+03  0.38712445406E+03  0.00000000000E+00 0. -1.
         21   -1    0    0  501  503 -0.00000000000E+00 -0.00000000000E+00 -0.84016490285E+02  0.84016490285E+02  0.00000000000E+00 0. -1.
          6    2    1    2  501    0 -0.20393268396E+02 -0.41870261329E+02  0.19243581264E+03  0.26160210284E+03  0.17098278873E+03 0.  0.
         24    2    3    3    0    0 -0.22594178553E+02  0.29998615468E+02  0.16801877255E+03  0.18552147913E+03  0.69119443386E+02 0.  0.
         -6    2    1    2    0  502  0.20393268396E+02  0.41870261329E+02  0.11067215113E+03  0.20953884151E+03  0.17172418841E+03 0.  0.
        -24    2    5    5    0    0 -0.50787593965E+02 -0.22006565154E+01  0.69291598429E+02  0.11603268605E+03  0.77961760044E+02 0.  0.
          5    1    3    3  501    0  0.22009101567E+01 -0.71868876797E+02  0.24417040095E+02  0.76080623713E+02  0.47000000000E+01 0. -1.
        -13    1    4    4    0    0 -0.13090355058E+02 -0.22108827070E+02  0.55603721359E+02  0.61253011836E+02  0.00000000000E+00 0.  1.
         14    1    4    4    0    0 -0.95038234947E+01  0.52107442538E+02  0.11241505119E+03  0.12426846729E+03  0.00000000000E+00 0. -1.
         -5    1    5    5    0  502  0.71180862361E+02  0.44070917845E+02  0.41380552704E+02  0.93506155456E+02  0.47000000000E+01 0.  1.
         13    1    6    6    0    0 -0.21174094784E+02 -0.13028479369E+02 -0.12894061513E+02  0.28006077677E+02  0.00000000000E+00 0. -1.
        -14    1    6    6    0    0 -0.29613499181E+02  0.10827822854E+02  0.82185659941E+02  0.88026608372E+02  0.00000000000E+00 0.  1.
</event>
<event>
12    1  0.1039610E+000  0.2011725E+03  0.7818608E-02  0.1149081E+00
         21   -1    0    0  503  502  0.00000000000E+00  0.00000000000E+00  0.19785151379E+04  0.19785151379E+04  0.00000000000E+00 0. -1.
         21   -1    0    0  501  503 -0.00000000000E+00 -0.00000000000E+00 -0.47362915205E+02  0.47362915205E+02  0.00000000000E+00 0. -1.
          6    2    1    2  501    0 -0.10074640856E+03  0.74348414589E+01  0.17329093452E+04  0.17445472743E+04  0.17396918655E+03 0.  0.
         24    2    3    3    0    0 -0.53429641975E+02 -0.39339566886E+02  0.55128640987E+03  0.56104333557E+03  0.80315568351E+02 0.  0.
         -6    2    1    2    0  502  0.10074640856E+03 -0.74348414589E+01  0.19824287744E+03  0.28133077876E+03  0.17216751411E+03 0.  0.
        -24    2    5    5    0    0 -0.13540223851E+02 -0.27611169922E+02  0.87603132094E+02  0.12091955150E+03  0.77469444405E+02 0.  0.
          5    1    3    3  501    0 -0.47316766587E+02  0.46774408345E+02  0.11816229354E+04  0.11835039388E+04  0.47000000000E+01 0. -1.
        -11    1    4    4    0    0 -0.49976440858E+02 -0.36064915180E+01  0.14985802141E+03  0.15801290455E+03  0.00000000000E+00 0.  1.
         12    1    4    4    0    0 -0.34532011168E+01 -0.35733075368E+02  0.40142838846E+03  0.40303043103E+03  0.00000000000E+00 0. -1.
         -5    1    5    5    0  502  0.11428663241E+03  0.20176328463E+02  0.11063974535E+03  0.16041122726E+03  0.47000000000E+01 0.  1.
         11    1    6    6    0    0  0.15680210092E+02 -0.25843037176E+02  0.18241894731E+01  0.30282985755E+02  0.00000000000E+00 0. -1.
        -12    1    6    6    0    0 -0.29220433943E+02 -0.17681327457E+01  0.85778942621E+02  0.90636565747E+02  0.00000000000E+00 0.  1.
</event>
<event>
12    1  0.1039610E+000  0.1780742E+03  0.7818608E-02  0.1169724E+00
         21   -1    0    0  503  502  0.00000000000E+00  0.00000000000E+00  0.32326379399E+03  0.32326379399E+03  0.00000000000E+00 0.  1.
         21   -1    0    0  501  503 -0.00000000000E+00 -0.00000000000E+00 -0.17938482252E+03  0.17938482252E+03  0.00000000000E+00 0.  1.
          6    2    1    2  501    0 -0.43900071158E+02 -0.71110171913E+01  0.24120795108E+03  0.29971180843E+03  0.17224433121E+03 0.  0.
         24    2    3    3    0    0 -0.39736827681E+02  0.59337249684E+02  0.11448364205E+03  0.15648525619E+03  0.79254062569E+02 0.  0.
         -6    2    1    2    0  502  0.43900071158E+02  0.71110171913E+01 -0.97328979622E+02  0.20293680808E+03  0.17243153709E+03 0.  0.
        -24    2    5    5    0    0  0.35692157868E+02  0.37641816232E+02 -0.12966110808E+03  0.15747301961E+03  0.72766149378E+02 0.  0.
          5    1    3    3  501    0 -0.41632434767E+01 -0.66448266876E+02  0.12672430903E+03  0.14322655224E+03  0.47000000000E+01 0. -1.
        -13    1    4    4    0    0 -0.70295339592E+01  0.67099816372E+02  0.98174712959E+02  0.11912209690E+03  0.00000000000E+00 0.  1.
         14    1    4    4    0    0 -0.32707293722E+02 -0.77625666871E+01  0.16308929090E+02  0.37363159292E+02  0.00000000000E+00 0. -1.
         -5    1    5    5    0  502  0.82079132899E+01 -0.30530799041E+02  0.32332128458E+02  0.45463788462E+02  0.47000000000E+01 0.  1.
         11    1    6    6    0    0 -0.19431266346E+02  0.21864566375E+02 -0.63570305724E+02  0.69977261624E+02  0.00000000000E+00 0. -1.
        -12    1    6    6    0    0  0.55123424215E+02  0.15777249857E+02 -0.66090802356E+02  0.87495757990E+02  0.00000000000E+00 0.  1.
</event>
<event>
12    1  0.1039610E+000  0.3062219E+03  0.7818608E-02  0.1082410E+00
         21   -1    0    0  503  502  0.00000000000E+00  0.00000000000E+00  0.20267141932E+03  0.20267141932E+03  0.00000000000E+00 0.  1.
         21   -1    0    0  501  503 -0.00000000000E+00 -0.00000000000E+00 -0.50109853885E+03  0.50109853885E+03  0.00000000000E+00 0. -1.
          6    2    1    2  501    0 -0.23715630469E+03  0.78795347923E+02 -0.47675103335E+02  0.30798156868E+03  0.17357393658E+03 0.  0.
         24    2    3    3    0    0 -0.20151435660E+03  0.10929609309E+03 -0.73064891689E+02  0.25443369036E+03  0.82730602031E+02 0.  0.
         -6    2    1    2    0  502  0.23715630469E+03 -0.78795347923E+02 -0.25075201619E+03  0.39578838949E+03  0.17697473244E+03 0.  0.
        -24    2    5    5    0    0  0.13729782306E+03 -0.10283186653E+03 -0.21675781135E+03  0.28749634665E+03  0.79026043566E+02 0.  0.
          5    1    3    3  501    0 -0.35641948092E+02 -0.30500745170E+02  0.25389788354E+02  0.53547878318E+02  0.47000000000E+01 0. -1.
        -11    1    4    4    0    0 -0.22034854799E+02  0.49586557135E+02 -0.21629375020E+02  0.58413965268E+02  0.00000000000E+00 0.  1.
         12    1    4    4    0    0 -0.17947950180E+03  0.59709535958E+02 -0.51435516669E+02  0.19601972509E+03  0.00000000000E+00 0. -1.
         -5    1    5    5    0  502  0.99858481628E+02  0.24036518609E+02 -0.33994204840E+02  0.10829204284E+03  0.47000000000E+01 0.  1.
         13    1    6    6    0    0  0.47337086724E+02 -0.84464100503E+02 -0.11825112626E+03  0.15283426617E+03  0.00000000000E+00 0. -1.
        -14    1    6    6    0    0  0.89960736340E+02 -0.18367766030E+02 -0.98506685091E+02  0.13466208048E+03  0.00000000000E+00 0.  1.
</event>
<event>
12    1  0.1039610E+000  0.1721099E+03  0.7818608E-02  0.1175751E+00
         21   -1    0    0  501  502  0.00000000000E+00  0.00000000000E+00  0.82482270627E+03  0.82482270627E+03  0.00000000000E+00 0.  1.
         21   -1    0    0  502  503 -0.00000000000E+00 -0.00000000000E+00 -0.36604902782E+02  0.36604902782E+02  0.00000000000E+00 0.  1.
         -6    2    1    2    0  503  0.50303090662E+01  0.48898672479E+01  0.45661784093E+03  0.48797710953E+03  0.17196683387E+03 0.  0.
        -24    2    3    3    0    0 -0.80890159722E+01 -0.52381353646E+02  0.37673248229E+03  0.38870037531E+03  0.79695546678E+02 0.  0.
          6    2    1    2  501    0 -0.50303090662E+01 -0.48898672479E+01  0.33159996255E+03  0.37345049952E+03  0.17163194813E+03 0.  0.
         24    2    5    5    0    0 -0.53780283721E+02  0.40347613556E+02  0.20665554878E+03  0.23183063428E+03  0.80738332358E+02 0.  0.
          5    1    5    5  501    0  0.48749974655E+02 -0.45237480804E+02  0.12494441378E+03  0.14161986525E+03  0.47000000000E+01 0. -1.
        -13    1    6    6    0    0 -0.61759233122E+02  0.22662229868E+02  0.79435434584E+02  0.10313955500E+03  0.00000000000E+00 0.  1.
         14    1    6    6    0    0  0.79789494004E+01  0.17685383689E+02  0.12722011419E+03  0.12869107927E+03  0.00000000000E+00 0. -1.
         -5    1    3    3    0  503  0.13119325038E+02  0.57271220894E+02  0.79885358639E+02  0.99276734218E+02  0.47000000000E+01 0.  1.
         13    1    4    4    0    0 -0.35935278175E+01 -0.25668898453E+02  0.25282004830E+02  0.36207534550E+02  0.00000000000E+00 0. -1.
        -14    1    4    4    0    0 -0.44954881547E+01 -0.26712455193E+02  0.35145047746E+03  0.35249284076E+03  0.00000000000E+00 0.  1.
</event>
<event>
12    1  0.1039610E+000  0.2024505E+03  0.7818608E-02  0.1150419E+00
         21   -1    0    0  501  502  0.00000000000E+00  0.00000000000E+00  0.29724484502E+04  0.29724484502E+04  0.00000000000E+00 0. -1.
         21   -1    0    0  502  503 -0.00000000000E+00 -0.00000000000E+00 -0.17727605373E+02  0.17727605373E+02  0.00000000000E+00 0. -1.
         -6    2    1    2    0  503 -0.27052977490E+02 -0.10179062925E+03  0.66548923193E+03  0.69200991784E+03  0.15782462667E+03 0.  0.
        -24    2    3    3    0    0  0.18977420439E+02 -0.24488774225E+02  0.19086319499E+03  0.20890916307E+03  0.79084996443E+02 0.  0.
          6    2    1    2  501    0  0.27052977490E+02  0.10179062925E+03  0.22892316129E+04  0.22981661377E+04  0.17289598991E+03 0.  0.
         24    2    5    5    0    0 -0.37727851098E+02  0.10534244754E+03  0.13344517000E+04  0.13411729595E+04  0.73913094757E+02 0.  0.
          5    1    5    5  501    0  0.64780828589E+02 -0.35518182881E+01  0.95477991288E+03  0.95699317825E+03  0.47000000000E+01 0. -1.
        -11    1    6    6    0    0  0.89732759303E+01  0.82585497208E+00  0.22515204546E+02  0.24251518573E+02  0.00000000000E+00 0.  1.
         12    1    6    6    0    0 -0.46701127028E+02  0.10451659256E+03  0.13119364955E+04  0.13169214409E+04  0.00000000000E+00 0. -1.
         -5    1    3    3    0  503 -0.46030397929E+02 -0.77301855023E+02  0.47462603693E+03  0.48310075477E+03  0.47000000000E+01 0.  1.
         11    1    4    4    0    0  0.14909152479E+02 -0.22982860516E+02  0.19836264125E+03  0.20024542978E+03  0.00000000000E+00 0. -1.
        -12    1    4    4    0    0  0.40682679600E+01 -0.15059137087E+01 -0.74994462580E+01  0.86637332870E+01  0.00000000000E+00 0.  1.
</event>
<event>
12    1  0.1039610E+000  0.2118547E+03  0.7818608E-02  0.1140250E+00
         21   -1    0    0  503  502  0.00000000000E+00  0.00000000000E+00  0.12215009601E+03  0.12215009601E+03  0.00000000000E+00 0.  1.
         21   -1    0    0  501  503 -0.00000000000E+00 -0.00000000000E+00 -0.38719545910E+03  0.38719545910E+03  0.00000000000E+00 0.  1.
          6    2    1    2  501    0 -0.46020347220E+02 -0.11513507031E+03 -0.73383092414E+02  0.22420411874E+03  0.17178024286E+03 0.  0.
         24    2    3    3    0    0 -0.15965688950E+02 -0.73920029947E+02 -0.11416810264E+03  0.15872535047E+03  0.80251524414E+02 0.  0.
         -6    2    1    2    0  502  0.46020347220E+02  0.11513507031E+03 -0.19166227068E+03  0.28514143636E+03  0.17087204556E+03 0.  0.
        -24    2    5    5    0    0  0.73098765705E+02  0.25795062157E+02 -0.75074026039E+02  0.13570989152E+03  0.82293684399E+02 0.  0.
          5    1    3    3  501    0 -0.30054658271E+02 -0.41215040366E+02  0.40785010222E+02  0.65478768276E+02  0.47000000000E+01 0. -1.
        -11    1    4    4    0    0  0.12457465244E+02  0.76850829172E+01 -0.47149370003E+02  0.49369140477E+02  0.00000000000E+00 0.  1.
         12    1    4    4    0    0 -0.28423154194E+02 -0.81605112865E+02 -0.67018732633E+02  0.10935620999E+03  0.00000000000E+00 0. -1.
         -5    1    5    5    0  502 -0.27078418485E+02  0.89340008157E+02 -0.11658824464E+03  0.14943154484E+03  0.47000000000E+01 0.  1.
         11    1    6    6    0    0  0.33923202274E+02  0.50082182669E+02 -0.64485639267E+02  0.88416097771E+02  0.00000000000E+00 0. -1.
        -12    1    6    6    0    0  0.39175563431E+02 -0.24287120512E+02 -0.10588386772E+02  0.47293793750E+02  0.00000000000E+00 0.  1.
</event>
<event>
12    1  0.1039610E+000  0.1807427E+03  0.7818608E-02  0.1167155E+00
         21   -1    0    0  503  502  0.00000000000E+00  0.00000000000E+00  0.61501504062E+03  0.61501504062E+03  0.00000000000E+00 0. -1.
         21   -1    0    0  501  503 -0.00000000000E+00 -0.00000000000E+00 -0.53400598260E+02  0.53400598260E+02  0.00000000000E+00 0. -1.
          6    2    1    2  501    0  0.53341720138E+02 -0.89238905466E+01  0.25332394065E+03  0.31119277048E+03  0.17246143501E+03 0.  0.
         24    2    3    3    0    0  0.51519360227E+02  0.43197202477E+02  0.23221208374E+03  0.25473278611E+03  0.80287593700E+02 0.  0.
         -6    2    1    2    0  502 -0.53341720138E+02  0.89238905466E+01  0.30829050171E+03  0.35722286840E+03  0.17216320551E+03 0.  0.
        -24    2    5    5    0    0  0.15549299353E+02 -0.12235782577E+02  0.25400910802E+03  0.26687761930E+03  0.79445211578E+02 0.  0.
          5    1    3    3  501    0  0.18223599106E+01 -0.52121093024E+02  0.21111856910E+02  0.56459984377E+02  0.47000000000E+01 0. -1.
        -11    1    4    4    0    0  0.56897646615E+01  0.45506819152E+02  0.17747966104E+03  0.18330923079E+03  0.00000000000E+00 0.  1.
         12    1    4    4    0    0  0.45829595565E+02 -0.23096166748E+01  0.54732422703E+02  0.71423555315E+02  0.00000000000E+00 0. -1.
         -5    1    5    5    0  502 -0.68891019490E+02  0.21159673124E+02  0.54281393692E+02  0.90345249096E+02  0.47000000000E+01 0.  1.
         11    1    6    6    0    0  0.63228988534E+01  0.90887793450E+01  0.23891256270E+03  0.23916897286E+03  0.00000000000E+00 0. -1.
        -12    1    6    6    0    0  0.92264004991E+01 -0.21324561922E+02  0.15096545312E+02  0.27708646443E+02  0.00000000000E+00 0.  1.
</event>
<event>
12    1  0.1039610E+000  0.1927622E+03  0.7818608E-02  0.1156652E+00
         21   -1    0    0  501  502  0.00000000000E+00  0.00000000000E+00  0.19943562833E+03  0.19943562833E+03  0.00000000000E+00 0.  1.
         21   -1    0    0  502  503 -0.00000000000E+00 -0.00000000000E+00 -0.18348061064E+03  0.18348061064E+03  0.00000000000E+00 0.  1.
         -6    2    1    2    0  503  0.81248519401E+02 -0.57416622643E+01  0.66740272260E+01  0.19287773210E+03  0.17470829491E+03 0.  0.
        -24    2    3    3    0    0 -0.24046931738E+02 -0.95507836755E+01 -0.23908550331E+02  0.83064137827E+02  0.75223399413E+02 0.  0.
          6    2    1    2  501    0 -0.81248519401E+02  0.57416622643E+01  0.92809904707E+01  0.19003850687E+03  0.17144739345E+03 0.  0.
         24    2    5    5    0    0 -0.90588696662E+02  0.43462506588E+02  0.46461213970E+02  0.13605184160E+03  0.79095876993E+02 0.  0.
          5    1    5    5  501    0  0.93401772604E+01 -0.37720844324E+02 -0.37180223499E+02  0.53986665272E+02  0.47000000000E+01 0. -1.
        -11    1    6    6    0    0 -0.21519450539E+02  0.30092400691E+02 -0.17541455301E+02  0.40943155532E+02  0.00000000000E+00 0.  1.
         12    1    6    6    0    0 -0.69069246123E+02  0.13370105897E+02  0.64002669271E+02  0.95108686068E+02  0.00000000000E+00 0. -1.
         -5    1    3    3    0  503  0.10529545114E+03  0.38091214112E+01  0.30582577557E+02  0.10981359427E+03  0.47000000000E+01 0.  1.
         13    1    4    4    0    0  0.25637345067E+02 -0.14644094239E+02 -0.70967152719E+01  0.30365874363E+02  0.00000000000E+00 0. -1.
        -14    1    4    4    0    0 -0.49684276805E+02  0.50933105632E+01 -0.16811835059E+02  0.52698263464E+02  0.00000000000E+00 0.  1.
</event>
<event>
12    1  0.1039610E+000  0.1851787E+03  0.7818608E-02  0.1163072E+00
         21   -1    0    0  503  502  0.00000000000E+00  0.00000000000E+00  0.74580522024E+02  0.74580522024E+02  0.00000000000E+00 0. -1.
         21   -1    0    0  501  503 -0.00000000000E+00 -0.00000000000E+00 -0.45905773746E+03  0.45905773746E+03  0.00000000000E+00 0. -1.
          6    2    1    2  501    0  0.66699899983E+02  0.87343403648E+01 -0.17859660025E+03  0.25727006342E+03  0.17252818481E+03 0.  0.
         24    2    3    3    0    0  0.62849473929E+01 -0.53893374982E+02 -0.79088532308E+02  0.12499707748E+03  0.80157825594E+02 0.  0.
         -6    2    1    2    0  502 -0.66699899983E+02 -0.87343403648E+01 -0.20588061519E+03  0.27636819606E+03  0.17166067321E+03 0.  0.
        -24    2    5    5    0    0  0.34861115009E+02 -0.31582655750E+01 -0.71135020704E+02  0.10747711397E+03  0.72566292977E+02 0.  0.
          5    1    3    3  501    0  0.60414952590E+02  0.62627715347E+02 -0.99508067941E+02  0.13227298595E+03  0.47000000000E+01 0. -1.
        -11    1    4    4    0    0  0.45652405586E+01 -0.35323016775E+02 -0.94381851680E+02  0.10087859467E+03  0.00000000000E+00 0.  1.
         12    1    4    4    0    0  0.17197068344E+01 -0.18570358207E+02  0.15293319372E+02  0.24118482808E+02  0.00000000000E+00 0. -1.
         -5    1    5    5    0  502 -0.10156101499E+03 -0.55760747898E+01 -0.13474559448E+03  0.16889108209E+03  0.47000000000E+01 0.  1.
         11    1    6    6    0    0  0.43564763128E+02 -0.15282916471E+02 -0.13733649180E+02  0.48167097090E+02  0.00000000000E+00 0. -1.
        -12    1    6    6    0    0 -0.87036481190E+01  0.12124650896E+02 -0.57401371524E+02  0.59310016884E+02  0.00000000000E+00 0.  1.
</event>
<event>
12    1  0.1039610E+000  0.2019883E+03  0.7818608E-02  0.1148444E+00
         21   -1    0    0  501  502  0.00000000000E+00  0.00000000000E+00  0.26415502065E+03  0.26415502065E+03  0.00000000000E+00 0.  1.
         21   -1    0    0  502  503 -0.00000000000E+00 -0.00000000000E+00 -0.15664834258E+03  0.15664834258E+03  0.00000000000E+00 0.  1.
         -6    2    1    2    0  503  0.80357380620E+02 -0.69651966838E+02  0.22306280305E+02  0.20321626517E+03  0.17172820148E+03 0.  0.
        -24    2    3    3    0    0  0.11424829677E+03 -0.64881406091E+02 -0.12083350178E+02  0.15447112047E+03  0.80330875359E+02 0.  0.
          6    2    1    2  501    0 -0.80357380620E+02  0.69651966838E+02  0.85200397769E+02  0.21758709807E+03  0.16963588170E+03 0.  0.
         24    2    5    5    0    0 -0.93607618115E+02  0.64651304196E+02  0.11736565758E+03  0.18212910377E+03  0.80337634756E+02 0.  0.
          5    1    5    5  501    0  0.13250237495E+02  0.50006626415E+01 -0.32165259814E+02  0.35457994295E+02  0.47000000000E+01 0. -1.
        -13    1    6    6    0    0 -0.17302548309E+02  0.44513202526E+02  0.83624630822E+02  0.96300998215E+02  0.00000000000E+00 0.  1.
         14    1    6    6    0    0 -0.76305069805E+02  0.20138101670E+02  0.33741026761E+02  0.85828105559E+02  0.00000000000E+00 0. -1.
         -5    1    3    3    0  503 -0.33890916147E+02 -0.47705607469E+01  0.34389630483E+02  0.48745144701E+02  0.47000000000E+01 0.  1.
         11    1    4    4    0    0  0.77122976391E+02 -0.78025448713E+02  0.84926752522E+01  0.11003658331E+03  0.00000000000E+00 0. -1.
        -12    1    4    4    0    0  0.37125320375E+02  0.13144042622E+02 -0.20576025430E+02  0.44434537152E+02  0.00000000000E+00 0.  1.
</event>
<event>
12    1  0.1039610E+000  0.6082907E+03  0.7818608E-02  0.9888631E-01
         21   -1    0    0  501  502  0.00000000000E+00  0.00000000000E+00  0.18028075042E+04  0.18028075042E+04  0.00000000000E+00 0. -1.
         21   -1    0    0  502  503 -0.00000000000E+00 -0.00000000000E+00 -0.26820280511E+03  0.26820280511E+03  0.00000000000E+00 0. -1.
         -6    2    1    2    0  503 -0.46576516737E+03  0.35068815062E+03  0.12699981810E+04  0.14081594347E+04  0.17348845454E+03 0.  0.
        -24    2    3    3    0    0 -0.23214486550E+03  0.10608668006E+03  0.62178676488E+03  0.67699019661E+03  0.80940243713E+02 0.  0.
          6    2    1    2  501    0  0.46576516737E+03 -0.35068815062E+03  0.26460651813E+03  0.66285087458E+03  0.17156719494E+03 0.  0.
         24    2    5    5    0    0  0.46017325639E+03 -0.34764053742E+03  0.27944541630E+03  0.64603301760E+03  0.81581554138E+02 0.  0.
          5    1    5    5  501    0  0.55919109763E+01 -0.30476131994E+01 -0.14838898174E+02  0.16817856985E+02  0.47000000000E+01 0. -1.
        -11    1    6    6    0    0  0.30314450125E+03 -0.27144509310E+03  0.21284785171E+03  0.45922024692E+03  0.00000000000E+00 0.  1.
         12    1    6    6    0    0  0.15702875514E+03 -0.76195444318E+02  0.66597564587E+02  0.18681277067E+03  0.00000000000E+00 0. -1.
         -5    1    3    3    0  503 -0.23362030186E+03  0.24460147056E+03  0.64821141607E+03  0.73116923812E+03  0.47000000000E+01 0.  1.
         11    1    4    4    0    0 -0.23698150856E+03  0.10903638910E+03  0.59599761175E+03  0.65058613785E+03  0.00000000000E+00 0. -1.
        -12    1    4    4    0    0  0.48366430582E+01 -0.29497090487E+01  0.25789153136E+02  0.26404058761E+02  0.00000000000E+00 0.  1.
</event>
<event>
12    1  0.1039610E+000  0.1809651E+03  0.7818608E-02  0.1167286E+00
         21   -1    0    0  503  502  0.00000000000E+00  0.00000000000E+00  0.19424373188E+04  0.19424373188E+04  0.00000000000E+00 0. -1.
         21   -1    0    0  501  503 -0.00000000000E+00 -0.00000000000E+00 -0.17867231365E+02  0.17867231365E+02  0.00000000000E+00 0. -1.
          6    2    1    2  501    0 -0.44327973795E+02 -0.24592207420E+02  0.12085017429E+04  0.12217233125E+04  0.17193499818E+03 0.  0.
         24    2    3    3    0    0 -0.82501695227E+02 -0.35710722898E+02  0.10038463355E+04  0.10131884708E+04  0.10373826012E+03 0.  0.
         -6    2    1    2    0  502  0.44327973795E+02  0.24592207420E+02  0.71606834455E+03  0.73858123776E+03  0.17371996078E+03 0.  0.
        -24    2    5    5    0    0  0.17646675124E+02  0.47193621825E+02  0.20206662520E+03  0.22337004501E+03  0.80775076021E+02 0.  0.
          5    1    3    3  501    0  0.38173721432E+02  0.11118515478E+02  0.20465540741E+03  0.20853484163E+03  0.47000000000E+01 0. -1.
        -11    1    4    4    0    0  0.89896539165E+01 -0.38988999055E+02  0.18731060350E+03  0.19153646678E+03  0.00000000000E+00 0.  1.
         12    1    4    4    0    0 -0.91491349143E+02  0.32782761574E+01  0.81653573203E+03  0.82165200404E+03  0.00000000000E+00 0. -1.
         -5    1    5    5    0  502  0.26681298671E+02 -0.22601414405E+02  0.51400171935E+03  0.51521119275E+03  0.47000000000E+01 0.  1.
         11    1    6    6    0    0  0.25350291950E+02 -0.12013300253E+02  0.29239963716E+02  0.40520762123E+02  0.00000000000E+00 0. -1.
        -12    1    6    6    0    0 -0.77036168264E+01  0.59206922078E+02  0.17282666148E+03  0.18284928289E+03  0.00000000000E+00 0.  1.
</event>
<event>
12    1  0.1039610E+000  0.1783747E+03  0.7818608E-02  0.1169626E+00
         21   -1    0    0  503  502  0.00000000000E+00  0.00000000000E+00  0.14962201151E+03  0.14962201151E+03  0.00000000000E+00 0.  1.
         21   -1    0    0  501  503 -0.00000000000E+00 -0.00000000000E+00 -0.22168593605E+03  0.22168593605E+03  0.00000000000E+00 0.  1.
          6    2    1    2  501    0  0.15646197813E+02  0.41073444678E+02  0.37000464312E+01  0.17841308437E+03  0.17287483035E+03 0.  0.
         24    2    3    3    0    0 -0.29990787601E+02  0.37307323556E+02  0.55242510575E+02  0.10930712431E+03  0.81271327777E+02 0.  0.
         -6    2    1    2    0  502 -0.15646197813E+02 -0.41073444678E+02 -0.75763970962E+02  0.19289486319E+03  0.17186162336E+03 0.  0.
        -24    2    5    5    0    0  0.55034486529E+02 -0.42227345308E+02 -0.33771631572E+02  0.11053870256E+03  0.79160206326E+02 0.  0.
          5    1    3    3  501    0  0.45636985414E+02  0.37661211221E+01 -0.51542464144E+02  0.69105960062E+02  0.47000000000E+01 0. -1.
        -11    1    4    4    0    0 -0.25550563914E+02 -0.19169880624E+02  0.38922997240E+02  0.50351915093E+02  0.00000000000E+00 0.  1.
         12    1    4    4    0    0 -0.44402236874E+01  0.56477204180E+02  0.16319513336E+02  0.58955209218E+02  0.00000000000E+00 0. -1.
         -5    1    5    5    0  502 -0.70680684342E+02  0.11539006301E+01 -0.41992339390E+02  0.82356160627E+02  0.47000000000E+01 0.  1.
         11    1    6    6    0    0 -0.10095850757E+02 -0.27248149435E+02 -0.32636835915E+02  0.43698408537E+02  0.00000000000E+00 0. -1.
        -12    1    6    6    0    0  0.65130337286E+02 -0.14979195873E+02 -0.11347956570E+01  0.66840294023E+02  0.00000000000E+00 0.  1.
</event>
<event>
12    1  0.1039610E+000  0.4298831E+03  0.7818608E-02  0.1034130E+00
         21   -1    0    0  503  502  0.00000000000E+00  0.00000000000E+00  0.12715539285E+04  0.12715539285E+04  0.00000000000E+00 0.  1.
         21   -1    0    0  501  503 -0.00000000000E+00 -0.00000000000E+00 -0.23002971246E+03  0.23002971246E+03  0.00000000000E+00 0.  1.
          6    2    1    2  501    0  0.38737818069E+03 -0.66177419590E+02  0.97787716011E+03  0.10670144126E+04  0.16683737781E+03 0.  0.
         24    2    3    3    0    0  0.16580870060E+03 -0.82068819252E+02  0.52694750986E+03  0.56431648085E+03  0.80941930522E+02 0.  0.
         -6    2    1    2    0  502 -0.38737818069E+03  0.66177419590E+02  0.63647055937E+02  0.43456922840E+03  0.17423593430E+03 0.  0.
        -24    2    5    5    0    0 -0.21313046086E+03  0.10532207663E+03  0.27596688312E+02  0.25231585793E+03  0.79902326529E+02 0.  0.
          5    1    3    3  501    0  0.22156948009E+03  0.15891399661E+02  0.45092965025E+03  0.50269793173E+03  0.47000000000E+01 0. -1.
        -11    1    4    4    0    0  0.14037009064E+03 -0.29366450644E+02  0.37670489154E+03  0.40307905686E+03  0.00000000000E+00 0.  1.
         12    1    4    4    0    0  0.25438609969E+02 -0.52702368608E+02  0.15024261832E+03  0.16123742398E+03  0.00000000000E+00 0. -1.
         -5    1    5    5    0  502 -0.17424771983E+03 -0.39144657041E+02  0.36050367625E+02  0.18225337047E+03  0.47000000000E+01 0.  1.
         11    1    6    6    0    0 -0.16778745059E+03  0.45579365848E+02  0.33562347198E+02  0.17707777477E+03  0.00000000000E+00 0. -1.
        -12    1    6    6    0    0 -0.45343010267E+02  0.59742710783E+02 -0.59656588855E+01  0.75238083161E+02  0.00000000000E+00 0.  1.
</event>
<event>
12    1  0.1039610E+000  0.3179517E+03  0.7818608E-02  0.1076649E+00
         21   -1    0    0  501  502  0.00000000000E+00  0.00000000000E+00  0.12423328916E+04  0.12423328916E+04  0.00000000000E+00 0. -1.
         21   -1    0    0  502  503 -0.00000000000E+00 -0.00000000000E+00 -0.89177072592E+02  0.89177072592E+02  0.00000000000E+00 0. -1.
         -6    2    1    2    0  503  0.21015027335E+03 -0.16502776337E+03  0.77537908920E+03  0.83803701829E+03  0.17232530863E+03 0.  0.
        -24    2    3    3    0    0  0.22899103904E+03 -0.16944346629E+03  0.74660664475E+03  0.80304535581E+03  0.79450470583E+02 0.  0.
          6    2    1    2  501    0 -0.21015027335E+03  0.16502776337E+03  0.37777672983E+03  0.49347294592E+03  0.17147300277E+03 0.  0.
         24    2    5    5    0    0 -0.12422821713E+03  0.15942325376E+03  0.19635001440E+03  0.29259548739E+03  0.78805883753E+02 0.  0.
          5    1    5    5  501    0 -0.85922056219E+02  0.56045096090E+01  0.18142671543E+03  0.20087745853E+03  0.47000000000E+01 0. -1.
        -13    1    6    6    0    0 -0.10043179339E+03  0.13633445785E+03  0.19655674877E+03  0.25943821038E+03  0.00000000000E+00 0.  1.
         14    1    6    6    0    0 -0.23796423746E+02  0.23088795910E+02 -0.20673436240E+00  0.33157277011E+02  0.00000000000E+00 0. -1.
         -5    1    3    3    0  503 -0.18840765688E+02  0.44157029145E+01  0.28772444450E+02  0.34991662487E+02  0.47000000000E+01 0.  1.
         11    1    4    4    0    0  0.91865857240E+02 -0.91503186278E+02  0.43317423272E+03  0.45216378085E+03  0.00000000000E+00 0. -1.
        -12    1    4    4    0    0  0.13712518180E+03 -0.77940280008E+02  0.31343241203E+03  0.35088157495E+03  0.00000000000E+00 0.  1.
</event>
<event>
12    1  0.1039610E+000  0.1957223E+03  0.7818608E-02  0.1153587E+00
         21   -1    0    0  501  502  0.00000000000E+00  0.00000000000E+00  0.20347821697E+03  0.20347821697E+03  0.00000000000E+00 0. -1.
         21   -1    0    0  502  503 -0.00000000000E+00 -0.00000000000E+00 -0.30882657973E+03  0.30882657973E+03  0.00000000000E+00 0. -1.
         -6    2    1    2    0  503 -0.92052367652E+02 -0.17866496281E+02 -0.21334432112E+03  0.28952206808E+03  0.17179749262E+03 0.  0.
        -24    2    3    3    0    0 -0.36896583388E+02  0.19580563853E+01 -0.21299697311E+03  0.23072254362E+03  0.80622513782E+02 0.  0.
          6    2    1    2  501    0  0.92052367652E+02  0.17866496281E+02  0.10799595836E+03  0.22278272862E+03  0.17081032484E+03 0.  0.
         24    2    5    5    0    0 -0.15669695266E+02 -0.38436775132E+02  0.53130545284E+02  0.89342087276E+02  0.58619354178E+02 0.  0.
          5    1    5    5  501    0  0.10772206292E+03  0.56303271413E+02  0.54865413074E+02  0.13344064135E+03  0.47000000000E+01 0. -1.
        -13    1    6    6    0    0 -0.24871780901E+02 -0.14541711936E+02 -0.16650469643E+01  0.28858954461E+02  0.00000000000E+00 0.  1.
         14    1    6    6    0    0  0.92020856346E+01 -0.23895063197E+02  0.54795592248E+02  0.60483132815E+02  0.00000000000E+00 0. -1.
         -5    1    3    3    0  503 -0.55155784264E+02 -0.19824552666E+02 -0.34734800804E+00  0.58799524461E+02  0.47000000000E+01 0.  1.
         11    1    4    4    0    0 -0.19088258673E+01  0.37047855955E+02 -0.67548534586E+02  0.77064854323E+02  0.00000000000E+00 0. -1.
        -12    1    4    4    0    0 -0.34987757520E+02 -0.35089799570E+02 -0.14544843852E+03  0.15365768929E+03  0.00000000000E+00 0.  1.
</event>
<event>
12    1  0.1039610E+000  0.2393259E+03  0.7818608E-02  0.1121016E+00
         21   -1    0    0  501  502  0.00000000000E+00  0.00000000000E+00  0.33829565256E+03  0.33829565256E+03  0.00000000000E+00 0.  1.
         21   -1    0    0  502  503 -0.00000000000E+00 -0.00000000000E+00 -0.23028365766E+03  0.23028365766E+03  0.00000000000E+00 0.  1.
         -6    2    1    2    0  503  0.13676895013E+03 -0.90312596078E+02  0.20372784346E+03  0.31082283317E+03  0.16805858707E+03 0.  0.
        -24    2    3    3    0    0  0.13630777877E+03 -0.11026479162E+03  0.21367440594E+03  0.28803408834E+03  0.81047822099E+02 0.  0.
          6    2    1    2  501    0 -0.13676895013E+03  0.90312596078E+02 -0.95715848558E+02  0.25775647705E+03  0.17439830007E+03 0.  0.
         24    2    5    5    0    0 -0.48193442801E+02  0.10879325556E+03 -0.22585673552E+02  0.14132079622E+03  0.72820837753E+02 0.  0.
          5    1    5    5  501    0 -0.88575507333E+02 -0.18480659481E+02 -0.73130175006E+02  0.11643568083E+03  0.47000000000E+01 0. -1.
        -11    1    6    6    0    0  0.18669653380E+02  0.21717022746E+02  0.23617217601E+01  0.28736088181E+02  0.00000000000E+00 0.  1.
         12    1    6    6    0    0 -0.66863096182E+02  0.87076232813E+02 -0.24947395312E+02  0.11258470804E+03  0.00000000000E+00 0. -1.
         -5    1    3    3    0  503  0.46117136663E+00  0.19952195538E+02 -0.99465624841E+01  0.22788744833E+02  0.47000000000E+01 0.  1.
         11    1    4    4    0    0  0.31778224411E+02 -0.64066019681E+02  0.45701960805E+02  0.84870369658E+02  0.00000000000E+00 0. -1.
        -12    1    4    4    0    0  0.10452955436E+03 -0.46198771935E+02  0.16797244514E+03  0.20316371868E+03  0.00000000000E+00 0.  1.
</event>
<event>
12    1  0.1039610E+000  0.1910990E+03  0.7818608E-02  0.1157496E+00
         21   -1    0    0  501  502  0.00000000000E+00  0.00000000000E+00  0.34341609493E+02  0.34341609493E+02  0.00000000000E+00 0.  1.
         21   -1    0    0  502  503 -0.00000000000E+00 -0.00000000000E+00 -0.13861333496E+04  0.13861333496E+04  0.00000000000E+00 0.  1.
         -6    2    1    2    0  503 -0.78614951859E+02 -0.80160139961E+01 -0.33276154465E+03  0.38368117025E+03  0.17388624923E+03 0.  0.
        -24    2    3    3    0    0 -0.95918031484E+02 -0.55983176123E+02 -0.20986556219E+03  0.25054305508E+03  0.79961762627E+02 0.  0.
          6    2    1    2  501    0  0.78614951859E+02  0.80160139961E+01 -0.10190301955E+04  0.10367937889E+04  0.17399498324E+03 0.  0.
         24    2    5    5    0    0 -0.16283894803E+01  0.46348407519E+02 -0.32904705278E+03  0.34108753373E+03  0.76927993545E+02 0.  0.
          5    1    5    5  501    0  0.80243341339E+02 -0.38332393523E+02 -0.68998314271E+03  0.69570625515E+03  0.47000000000E+01 0. -1.
        -13    1    6    6    0    0  0.81778004507E+01 -0.51849513977E+01 -0.21861415211E+03  0.21882848911E+03  0.00000000000E+00 0.  1.
         14    1    6    6    0    0 -0.98061899310E+01  0.51533358917E+02 -0.11043290067E+03  0.12225904463E+03  0.00000000000E+00 0. -1.
         -5    1    3    3    0  503  0.17303079625E+02  0.47967162127E+02 -0.12289598246E+03  0.13313811517E+03  0.47000000000E+01 0.  1.
         13    1    4    4    0    0 -0.78943073894E+02 -0.18734076997E+02 -0.78297309184E+02  0.11275390540E+03  0.00000000000E+00 0. -1.
        -14    1    4    4    0    0 -0.16974957590E+02 -0.37249099126E+02 -0.13156825301E+03  0.13778914969E+03  0.00000000000E+00 0.  1.
</event>
<event>
12    1  0.1039610E+000  0.2593894E+03  0.7818608E-02  0.1107943E+00
         21   -1    0    0  503  502  0.00000000000E+00  0.00000000000E+00  0.53908194373E+03  0.53908194373E+03  0.00000000000E+00 0. -1.
         21   -1    0    0  501  503 -0.00000000000E+00 -0.00000000000E+00 -0.27448472264E+03  0.27448472264E+03  0.00000000000E+00 0. -1.
          6    2    1    2  501    0  0.18535144190E+03  0.42926610263E+02 -0.16912618241E+03  0.30965549828E+03  0.17630941880E+03 0.  0.
         24    2    3    3    0    0  0.20430805724E+03  0.47765047934E+02 -0.11565380077E+03  0.25252276387E+03  0.79803900791E+02 0.  0.
         -6    2    1    2    0  502 -0.18535144190E+03 -0.42926610263E+02  0.43372340349E+03  0.50391116809E+03  0.17208318832E+03 0.  0.
        -24    2    5    5    0    0 -0.84289450718E+02 -0.78126484940E+01  0.34812099279E+03  0.36681128081E+03  0.78718111822E+02 0.  0.
          5    1    3    3  501    0 -0.18956615335E+02 -0.48384376707E+01 -0.53472381634E+02  0.57132734414E+02  0.47000000000E+01 0. -1.
        -11    1    4    4    0    0  0.74383523152E+02  0.65982901367E+01 -0.84402450186E+02  0.11269525077E+03  0.00000000000E+00 0.  1.
         12    1    4    4    0    0  0.12992453409E+03  0.41166757797E+02 -0.31251350589E+02  0.13982751310E+03  0.00000000000E+00 0. -1.
         -5    1    5    5    0  502 -0.10106199119E+03 -0.35113961769E+02  0.85602410706E+02  0.13709988728E+03  0.47000000000E+01 0.  1.
         13    1    6    6    0    0 -0.38137230133E+02 -0.42077258373E+02  0.20072446156E+03  0.20860310032E+03  0.00000000000E+00 0. -1.
        -14    1    6    6    0    0 -0.46152220584E+02  0.34264609879E+02  0.14739653123E+03  0.15820818049E+03  0.00000000000E+00 0.  1.
</event>
<event>
12    1  0.1039610E+000  0.3581893E+03  0.7818608E-02  0.1059325E+00
         21   -1    0    0  501  502  0.00000000000E+00  0.00000000000E+00  0.12834991870E+04  0.12834991870E+04  0.00000000000E+00 0. -1.
         21   -1    0    0  502  503 -0.00000000000E+00 -0.00000000000E+00 -0.10805341048E+03  0.10805341048E+03  0.00000000000E+00 0. -1.
         -6    2    1    2    0  503 -0.10012365674E+03  0.29670369079E+03  0.77903560918E+03  0.85743573576E+03  0.17390150613E+03 0.  0.
        -24    2    3    3    0    0 -0.54578496740E+02  0.20845391872E+03  0.36575830867E+03  0.43236797530E+03  0.82043142132E+02 0.  0.
          6    2    1    2  501    0  0.10012365674E+03 -0.29670369079E+03  0.39641016731E+03  0.53411686169E+03  0.17344155911E+03 0.  0.
         24    2    5    5    0    0  0.13697569915E+03 -0.23420592073E+03  0.28720324389E+03  0.40292125805E+03  0.79025827585E+02 0.  0.
          5    1    5    5  501    0 -0.36852042402E+02 -0.62497770055E+02  0.10920692342E+03  0.13119560364E+03  0.47000000000E+01 0. -1.
        -11    1    6    6    0    0  0.33626037223E+02 -0.80694425428E+02  0.45633268391E+02  0.98613872546E+02  0.00000000000E+00 0.  1.
         12    1    6    6    0    0  0.10334966192E+03 -0.15351149530E+03  0.24156997550E+03  0.30430738550E+03  0.00000000000E+00 0. -1.
         -5    1    3    3    0  503 -0.45545160003E+02  0.88249772070E+02  0.41327730051E+03  0.42506776046E+03  0.47000000000E+01 0.  1.
         13    1    4    4    0    0 -0.20791928812E+02  0.56081656474E+02  0.42404401282E+02  0.73318413408E+02  0.00000000000E+00 0. -1.
        -14    1    4    4    0    0 -0.33786567928E+02  0.15237226224E+03  0.32335390739E+03  0.35904956189E+03  0.00000000000E+00 0.  1.
</event>
<event>
12    1  0.1039610E+000  0.1870971E+03  0.7818608E-02  0.1161365E+00
         21   -1    0    0  503  502  0.00000000000E+00  0.00000000000E+00  0.18780164723E+03  0.18780164723E+03  0.00000000000E+00 0. -1.
         21   -1    0    0  501  503 -0.00000000000E+00 -0.00000000000E+00 -0.20654697064E+03  0.20654697064E+03  0.00000000000E+00 0. -1.
          6    2    1    2  501    0 -0.71244668172E+02  0.17922659062E+02  0.53876236192E+02  0.19469968236E+03  0.17207060479E+03 0.  0.
         24    2    3    3    0    0 -0.10687408760E+03  0.36253791538E+02  0.63588030643E+02  0.15320396092E+03  0.81802249358E+02 0.  0.
         -6    2    1    2    0  502  0.71244668172E+02 -0.17922659062E+02 -0.72621559605E+02  0.19964893551E+03  0.17084724780E+03 0.  0.
        -24    2    5    5    0    0  0.87337713728E+02 -0.64425900712E+02 -0.72793062975E+02  0.15021557620E+03  0.74076422664E+02 0.  0.
          5    1    3    3  501    0  0.35629419423E+02 -0.18331132476E+02 -0.97117944518E+01  0.41495721439E+02  0.47000000000E+01 0. -1.
        -13    1    4    4    0    0 -0.33456934079E+02  0.53104551165E+02  0.18587392300E+02  0.65459536699E+02  0.00000000000E+00 0.  1.
         14    1    4    4    0    0 -0.73417153516E+02 -0.16850759626E+02  0.45000638343E+02  0.87744424220E+02  0.00000000000E+00 0. -1.
         -5    1    5    5    0  502 -0.16093045556E+02  0.46503241650E+02  0.17150337011E+00  0.49433359309E+02  0.47000000000E+01 0.  1.
         11    1    6    6    0    0 -0.51153692832E+01 -0.27664516568E+02 -0.32201811122E+02  0.42760368560E+02  0.00000000000E+00 0. -1.
        -12    1    6    6    0    0  0.92453083011E+02 -0.36761384144E+02 -0.40591251853E+02  0.10745520764E+03  0.00000000000E+00 0.  1.
</event>
<event>
12    1  0.1039610E+000  0.2135994E+03  0.7818608E-02  0.1138843E+00
         21   -1    0    0  503  502  0.00000000000E+00  0.00000000000E+00  0.12498017753E+03  0.12498017753E+03  0.00000000000E+00 0.  1.
         21   -1    0    0  501  503 -0.00000000000E+00 -0.00000000000E+00 -0.44619957146E+03  0.44619957146E+03  0.00000000000E+00 0.  1.
          6    2    1    2  501    0  0.10571547262E+03  0.67822158863E+02 -0.38034559514E+02  0.21647092345E+03  0.17215523982E+03 0.  0.
         24    2    3    3    0    0  0.90426752603E+02  0.68523043655E+02 -0.92322196602E+02  0.15987168547E+03  0.64522575363E+02 0.  0.
         -6    2    1    2    0  502 -0.10571547262E+03 -0.67822158863E+02 -0.28318483442E+03  0.35470882554E+03  0.17276890370E+03 0.  0.
        -24    2    5    5    0    0 -0.11302511630E+03 -0.18746947297E+02 -0.11905476451E+03  0.18317871993E+03  0.79084015675E+02 0.  0.
          5    1    3    3  501    0  0.15288720016E+02 -0.70088479223E+00  0.54287637088E+02  0.56599237979E+02  0.47000000000E+01 0. -1.
        -13    1    4    4    0    0 -0.84878353887E+01  0.53522614324E+01  0.77745195615E+00  0.10064516062E+02  0.00000000000E+00 0.  1.
         14    1    4    4    0    0  0.98914587991E+02  0.63170782223E+02 -0.93099648558E+02  0.14980716941E+03  0.00000000000E+00 0. -1.
         -5    1    5    5    0  502  0.73096436841E+01 -0.49075211566E+02 -0.16413006991E+03  0.17153010561E+03  0.47000000000E+01 0.  1.
         11    1    6    6    0    0 -0.23452414945E+02  0.10041539638E+02 -0.75133271555E+02  0.79346435204E+02  0.00000000000E+00 0. -1.
        -12    1    6    6    0    0 -0.89572701358E+02 -0.28788486935E+02 -0.43921492958E+02  0.10383228473E+03  0.00000000000E+00 0.  1.
</event>
<event>
12    1  0.1039610E+000  0.2491229E+03  0.7818608E-02  0.1114526E+00
         21   -1    0    0  503  502  0.00000000000E+00  0.00000000000E+00  0.55174059767E+03  0.55174059767E+03  0.00000000000E+00 0.  1.
         21   -1    0    0  501  503 -0.00000000000E+00 -0.00000000000E+00 -0.14018250234E+03  0.14018250234E+03  0.00000000000E+00 0.  1.
          6    2    1    2  501    0  0.17611071036E+03 -0.14920824136E+02  0.45533582014E+02  0.24916341314E+03  0.16962159668E+03 0.  0.
         24    2    3    3    0    0  0.17939968163E+03 -0.90638383365E+01  0.81483731936E+02  0.21229032140E+03  0.78493203872E+02 0.  0.
         -6    2    1    2    0  502 -0.17611071036E+03  0.14920824136E+02  0.36602451331E+03  0.44275968688E+03  0.17556931021E+03 0.  0.
        -24    2    5    5    0    0 -0.32070779945E+02 -0.13704314468E+02  0.21496240571E+03  0.23202584891E+03  0.80067568540E+02 0.  0.
          5    1    3    3  501    0 -0.32889712779E+01 -0.58569857992E+01 -0.35950149922E+02  0.36873091736E+02  0.47000000000E+01 0. -1.
        -13    1    4    4    0    0  0.91595726725E+02  0.14419748489E+01  0.83334666690E+02  0.12384071672E+03  0.00000000000E+00 0.  1.
         14    1    4    4    0    0  0.87803954909E+02 -0.10505813185E+02 -0.18509347535E+01  0.88449604679E+02  0.00000000000E+00 0. -1.
         -5    1    5    5    0  502 -0.14403993041E+03  0.28625138604E+02  0.15106210760E+03  0.21073383797E+03  0.47000000000E+01 0.  1.
         11    1    6    6    0    0 -0.29442246716E+02  0.30788657125E+02  0.11213817626E+03  0.11995731688E+03  0.00000000000E+00 0. -1.
        -12    1    6    6    0    0 -0.26285332290E+01 -0.44492971593E+02  0.10282422946E+03  0.11206853203E+03  0.00000000000E+00 0.  1.
</event>
<event>
12    1  0.1039610E+000  0.2117933E+03  0.7818608E-02  0.1140434E+00
         21   -1    0    0  501  502  0.00000000000E+00  0.00000000000E+00  0.19287211495E+03  0.19287211495E+03  0.00000000000E+00 0. -1.
         21   -1    0    0  502  503 -0.00000000000E+00 -0.00000000000E+00 -0.23965270289E+03  0.23965270289E+03  0.00000000000E+00 0. -1.
         -6    2    1    2    0  503  0.67801192398E+02 -0.10244196726E+03  0.17605783836E+02  0.21252380131E+03  0.17252548842E+03 0.  0.
        -24    2    3    3    0    0  0.17546762419E+02 -0.12034858793E+03  0.43463134745E+02  0.15305240153E+03  0.82123821407E+02 0.  0.
          6    2    1    2  501    0 -0.67801192398E+02  0.10244196726E+03 -0.64386371782E+02  0.22000101653E+03  0.17077319478E+03 0.  0.
         24    2    5    5    0    0 -0.19607050618E+02  0.92449869218E+02  0.15220542064E+02  0.12628939474E+03  0.82376765971E+02 0.  0.
          5    1    5    5  501    0 -0.48194141779E+02  0.99920980390E+01 -0.79606913846E+02  0.93711621783E+02  0.47000000000E+01 0. -1.
        -13    1    6    6    0    0 -0.59260673861E+01  0.86680375495E+02 -0.19044717206E+02  0.88945528409E+02  0.00000000000E+00 0.  1.
         14    1    6    6    0    0 -0.13680983232E+02  0.57694937230E+01  0.34265259270E+02  0.37343866335E+02  0.00000000000E+00 0. -1.
         -5    1    3    3    0  503  0.50254429979E+02  0.17906620677E+02 -0.25857350909E+02  0.59471399787E+02  0.47000000000E+01 0.  1.
         13    1    4    4    0    0  0.31886004400E+02 -0.12572008286E+03  0.45827198169E+02  0.13755867331E+03  0.00000000000E+00 0. -1.
        -14    1    4    4    0    0 -0.14339241982E+02  0.53714949222E+01 -0.23640634238E+01  0.15493728221E+02  0.00000000000E+00 0.  1.
</event>
<event>
12    1  0.1039610E+000  0.2553120E+03  0.7818608E-02  0.1110007E+00
         21   -1    0    0  501  502  0.00000000000E+00  0.00000000000E+00  0.10598147239E+03  0.10598147239E+03  0.00000000000E+00 0. -1.
         21   -1    0    0  502  503 -0.00000000000E+00 -0.00000000000E+00 -0.61815936141E+03  0.61815936141E+03  0.00000000000E+00 0.  1.
         -6    2    1    2    0  503 -0.18487812602E+03 -0.37141774939E+02 -0.22950675494E+03  0.34323772781E+03  0.17198649452E+03 0.  0.
        -24    2    3    3    0    0 -0.18269748505E+03 -0.78168596301E+02 -0.19120977431E+03  0.28687547100E+03  0.79042125364E+02 0.  0.
          6    2    1    2  501    0  0.18487812602E+03  0.37141774939E+02 -0.28267113408E+03  0.38090310599E+03  0.17211848589E+03 0.  0.
         24    2    5    5    0    0  0.15341978892E+03 -0.25769395552E+02 -0.14595586372E+03  0.22708308943E+03  0.77858345541E+02 0.  0.
          5    1    5    5  501    0  0.31458337105E+02  0.62911170490E+02 -0.13671527037E+03  0.15382001657E+03  0.47000000000E+01 0. -1.
        -11    1    6    6    0    0  0.49930364776E+02 -0.46073612106E+02 -0.66193977381E+02  0.94854950850E+02  0.00000000000E+00 0.  1.
         12    1    6    6    0    0  0.10348942414E+03  0.20304216555E+02 -0.79761886338E+02  0.13222813858E+03  0.00000000000E+00 0. -1.
         -5    1    3    3    0  503 -0.21806409735E+01  0.41026821362E+02 -0.38296980636E+02  0.56362256804E+02  0.47000000000E+01 0.  1.
         13    1    4    4    0    0 -0.98120799361E+02 -0.43196378478E+01 -0.11470407213E+03  0.15100786305E+03  0.00000000000E+00 0. -1.
        -14    1    4    4    0    0 -0.84576685689E+02 -0.73848958453E+02 -0.76505702177E+02  0.13586760796E+03  0.00000000000E+00 0.  1.
</event>
<event>
12    1  0.1039610E+000  0.2295725E+03  0.7818608E-02  0.1127126E+00
         21   -1    0    0  503  502  0.00000000000E+00  0.00000000000E+00  0.18134235626E+03  0.18134235626E+03  0.00000000000E+00 0.  1.
         21   -1    0    0  501  503 -0.00000000000E+00 -0.00000000000E+00 -0.30155727723E+03  0.30155727723E+03  0.00000000000E+00 0.  1.
          6    2    1    2  501    0  0.23576562399E+02 -0.14922227667E+03 -0.10863502885E+03  0.25303530025E+03  0.17147055586E+03 0.  0.
         24    2    3    3    0    0 -0.26051695478E+02 -0.21839660910E+02 -0.17066797579E+02  0.88426291511E+02  0.79826510790E+02 0.  0.
         -6    2    1    2    0  502 -0.23576562399E+02  0.14922227667E+03 -0.11579892116E+02  0.22986433325E+03  0.17285941006E+03 0.  0.
        -24    2    5    5    0    0  0.73551826791E+01  0.16730132542E+03 -0.31629969174E+02  0.18853975887E+03  0.80640892399E+02 0.  0.
          5    1    3    3  501    0  0.49628257876E+02 -0.12738261576E+03 -0.91568231276E+02  0.16460900874E+03  0.47000000000E+01 0. -1.
        -11    1    4    4    0    0  0.37238757904E+01 -0.16927720278E+02 -0.44429235692E+02  0.47690375852E+02  0.00000000000E+00 0.  1.
         12    1    4    4    0    0 -0.29775571268E+02 -0.49119406317E+01  0.27362438113E+02  0.40735915659E+02  0.00000000000E+00 0. -1.
         -5    1    5    5    0  502 -0.30931745078E+02 -0.18079048744E+02  0.20050077059E+02  0.41324574373E+02  0.47000000000E+01 0.  1.
         13    1    6    6    0    0 -0.36357458987E+02  0.89595939300E+02 -0.17808670896E+02  0.98318085428E+02  0.00000000000E+00 0. -1.
        -14    1    6    6    0    0  0.43712641666E+02  0.77705386118E+02 -0.13821298278E+02  0.90221673445E+02  0.00000000000E+00 0.  1.
</event>
<event>
12    1  0.1039610E+000  0.1880816E+03  0.7818608E-02  0.1160902E+00
         21   -1    0    0  501  502  0.00000000000E+00  0.00000000000E+00  0.79957137608E+03  0.79957137608E+03  0.00000000000E+00 0.  1.
         21   -1    0    0  502  503 -0.00000000000E+00 -0.00000000000E+00 -0.45048761360E+02  0.45048761360E+02  0.00000000000E+00 0.  1.
         -6    2    1    2    0  503  0.61122608125E+02  0.28455827144E+02  0.30271802113E+03  0.35638866301E+03  0.17558180852E+03 0.  0.
        -24    2    3    3    0    0 -0.32856236376E+02 -0.88987366180E+01  0.14980853872E+03  0.17300167749E+03  0.79550376234E+02 0.  0.
          6    2    1    2  501    0 -0.61122608125E+02 -0.28455827144E+02  0.45180459359E+03  0.48823147443E+03  0.17232781120E+03 0.  0.
         24    2    5    5    0    0 -0.53717909021E+02 -0.76231997151E+02  0.39752675151E+03  0.41539215723E+03  0.76329515799E+02 0.  0.
          5    1    5    5  501    0 -0.74046991034E+01  0.47776170006E+02  0.54277842078E+02  0.72839317199E+02  0.47000000000E+01 0. -1.
        -13    1    6    6    0    0 -0.71703444167E+02 -0.48969042990E+02  0.26324317390E+03  0.27719365014E+03  0.00000000000E+00 0.  1.
         14    1    6    6    0    0  0.17985535145E+02 -0.27262954161E+02  0.13428357761E+03  0.13819850708E+03  0.00000000000E+00 0. -1.
         -5    1    3    3    0  503  0.93978844501E+02  0.37354563762E+02  0.15290948242E+03  0.18338698553E+03  0.47000000000E+01 0.  1.
         13    1    4    4    0    0  0.21916870595E+02 -0.10858811151E+02  0.18357019851E+02  0.30581745766E+02  0.00000000000E+00 0. -1.
        -14    1    4    4    0    0 -0.54773106972E+02  0.19600745333E+01  0.13145151887E+03  0.14241993172E+03  0.00000000000E+00 0.  1.
</event>
<event>
12    1  0.1039610E+000  0.2141061E+03  0.7818608E-02  0.1138634E+00
         21   -1    0    0  501  502  0.00000000000E+00  0.00000000000E+00  0.81002137748E+02  0.81002137748E+02  0.00000000000E+00 0.  1.
         21   -1    0    0  502  503 -0.00000000000E+00 -0.00000000000E+00 -0.68545410764E+03  0.68545410764E+03  0.00000000000E+00 0.  1.
         -6    2    1    2    0  503 -0.10231817693E+03  0.72076628686E+02 -0.14050833778E+03  0.25609373559E+03  0.17371631671E+03 0.  0.
        -24    2    3    3    0    0 -0.43932103605E+02  0.99509291001E+02 -0.51525667122E+02  0.14608696217E+03  0.82791167535E+02 0.  0.
          6    2    1    2  501    0  0.10231817693E+03 -0.72076628686E+02 -0.46394363211E+03  0.51036250980E+03  0.17193646472E+03 0.  0.
         24    2    5    5    0    0  0.24341087255E+02 -0.34129268394E+02 -0.18969726394E+03  0.22269327418E+03  0.10885746152E+03 0.  0.
          5    1    5    5  501    0  0.77977089675E+02 -0.37947360291E+02 -0.27424636817E+03  0.28766923562E+03  0.47000000000E+01 0. -1.
        -11    1    6    6    0    0  0.56212740531E+02  0.17218776444E+00 -0.49559952580E+02  0.74940581439E+02  0.00000000000E+00 0.  1.
         12    1    6    6    0    0 -0.31871653275E+02 -0.34301456159E+02 -0.14013731136E+03  0.14775269274E+03  0.00000000000E+00 0. -1.
         -5    1    3    3    0  503 -0.58386073325E+02 -0.27432662315E+02 -0.88982670662E+02  0.11000677342E+03  0.47000000000E+01 0.  1.
         13    1    4    4    0    0 -0.71299745512E+01  0.40788248250E+02 -0.63452486625E+02  0.75767643432E+02  0.00000000000E+00 0. -1.
        -14    1    4    4    0    0 -0.36802129054E+02  0.58721042751E+02  0.11926819503E+02  0.70319318741E+02  0.00000000000E+00 0.  1.
</event>
<event>
12    1  0.1039610E+000  0.1962212E+03  0.7818608E-02  0.1153207E+00
         21   -1    0    0  503  502  0.00000000000E+00  0.00000000000E+00  0.22356067860E+03  0.22356067860E+03  0.00000000000E+00 0.  1.
         21   -1    0    0  501  503 -0.00000000000E+00 -0.00000000000E+00 -0.18475349511E+03  0.18475349511E+03  0.00000000000E+00 0.  1.
          6    2    1    2  501    0  0.93668390997E+02 -0.54432710091E+01 -0.35827766297E+02  0.19837813210E+03  0.17107559086E+03 0.  0.
         24    2    3    3    0    0  0.77781321745E+02  0.56479782807E+02  0.58575254266E+00  0.12465637196E+03  0.79366038624E+02 0.  0.
         -6    2    1    2    0  502 -0.93668390997E+02  0.54432710091E+01  0.74634949783E+02  0.20993604161E+03  0.17233504915E+03 0.  0.
        -24    2    5    5    0    0 -0.11065026417E+03 -0.44713681160E+02  0.51992947385E+02  0.15215322288E+03  0.78768917801E+02 0.  0.
          5    1    3    3  501    0  0.15887069252E+02 -0.61923053816E+02 -0.36413518839E+02  0.73721760136E+02  0.47000000000E+01 0. -1.
        -13    1    4    4    0    0  0.23200586665E+02 -0.14556457254E+02  0.18825479411E+02  0.33234866397E+02  0.00000000000E+00 0.  1.
         14    1    4    4    0    0  0.54580735080E+02  0.71036240061E+02 -0.18239726869E+02  0.91421505567E+02  0.00000000000E+00 0. -1.
         -5    1    5    5    0  502  0.16981873177E+02  0.50156952169E+02  0.22642002398E+02  0.57782818727E+02  0.47000000000E+01 0.  1.
         13    1    6    6    0    0  0.11588167386E+02 -0.11269075657E+02  0.77038773073E+01  0.17906072017E+02  0.00000000000E+00 0. -1.
        -14    1    6    6    0    0 -0.12223843156E+03 -0.33444605503E+02  0.44289070077E+02  0.13424715087E+03  0.00000000000E+00 0.  1.
</event>
<event>
12    1  0.1039610E+000  0.1800425E+03  0.7818608E-02  0.1169998E+00
         21   -1    0    0  501  502  0.00000000000E+00  0.00000000000E+00  0.19283334629E+04  0.19283334629E+04  0.00000000000E+00 0. -1.
         21   -1    0    0  502  503 -0.00000000000E+00 -0.00000000000E+00 -0.34808273015E+02  0.34808273015E+02  0.00000000000E+00 0. -1.
         -6    2    1    2    0  503  0.48962066568E+02  0.25020939059E+01  0.16796940841E+04  0.16893156971E+04  0.17323903708E+03 0.  0.
        -24    2    3    3    0    0  0.85484252970E+02  0.37306250551E+02  0.96155424649E+03  0.96939062062E+03  0.80201574630E+02 0.  0.
          6    2    1    2  501    0 -0.48962066568E+02 -0.25020939059E+01  0.21383110578E+03  0.27382603878E+03  0.16387011100E+03 0.  0.
         24    2    5    5    0    0 -0.31816893602E+02 -0.64317663473E+02  0.13089766972E+03  0.16887287583E+03  0.78960570537E+02 0.  0.
          5    1    5    5  501    0 -0.17145172966E+02  0.61815569567E+02  0.82933436063E+02  0.10495316295E+03  0.47000000000E+01 0. -1.
        -11    1    6    6    0    0  0.14421205545E+02 -0.54702541195E+02  0.51560064523E+02  0.76542664157E+02  0.00000000000E+00 0.  1.
         12    1    6    6    0    0 -0.46238099147E+02 -0.96151222781E+01  0.79337605195E+02  0.92330211671E+02  0.00000000000E+00 0. -1.
         -5    1    3    3    0  503 -0.36522186402E+02 -0.34804156645E+02  0.71813983757E+03  0.71992507646E+03  0.47000000000E+01 0.  1.
         11    1    4    4    0    0  0.67019541767E+02  0.46368287554E+02  0.44333275650E+03  0.45076110086E+03  0.00000000000E+00 0. -1.
        -12    1    4    4    0    0  0.18464711204E+02 -0.90620370033E+01  0.51822149000E+03  0.51862951976E+03  0.00000000000E+00 0.  1.
</event>
<event>
12    1  0.1039610E+000  0.2821471E+03  0.7818608E-02  0.1094596E+00
         21   -1    0    0  503  502  0.00000000000E+00  0.00000000000E+00  0.26235991821E+03  0.26235991821E+03  0.00000000000E+00 0. -1.
         21   -1    0    0  501  503 -0.00000000000E+00 -0.00000000000E+00 -0.76127233783E+03  0.76127233783E+03  0.00000000000E+00 0.  1.
          6    2    1    2  501    0  0.80434426549E+02  0.21080944077E+03  0.14762223674E+03  0.31843254721E+03  0.16940084135E+03 0.  0.
         24    2    3    3    0    0 -0.29873086124E+01  0.76557607233E+02  0.13028993713E+02  0.11077857596E+03  0.78943948324E+02 0.  0.
         -6    2    1    2    0  502 -0.80434426549E+02 -0.21080944077E+03 -0.64653465636E+03  0.70519970883E+03  0.16849109818E+03 0.  0.
        -24    2    5    5    0    0 -0.26961977118E+02 -0.18666135664E+03 -0.40689340248E+03  0.45843574595E+03  0.95035161433E+02 0.  0.
          5    1    3    3  501    0  0.83421735162E+02  0.13425183354E+03  0.13459324303E+03  0.20765397125E+03  0.47000000000E+01 0. -1.
        -11    1    4    4    0    0  0.28717113283E+02  0.71815687481E+02  0.14481995037E+02  0.78688587126E+02  0.00000000000E+00 0.  1.
         12    1    4    4    0    0 -0.31704421895E+02  0.47419197517E+01 -0.14530013238E+01  0.32089988836E+02  0.00000000000E+00 0. -1.
         -5    1    5    5    0  502 -0.53472449432E+02 -0.24148084129E+02 -0.23964125387E+03  0.24676396287E+03  0.47000000000E+01 0.  1.
         13    1    6    6    0    0  0.32813118385E+02 -0.67852944326E+02 -0.18459652524E+03  0.19939057130E+03  0.00000000000E+00 0. -1.
        -14    1    6    6    0    0 -0.59775095503E+02 -0.11880841232E+03 -0.22229687725E+03  0.25904517466E+03  0.00000000000E+00 0.  1.
</event>
<event>
12    1  0.1039610E+000  0.2967214E+03  0.7818608E-02  0.1086916E+00
         21   -1    0    0  501  502  0.00000000000E+00  0.00000000000E+00  0.51067389643E+02  0.51067389643E+02  0.00000000000E+00 0. -1.
         21   -1    0    0  502  503 -0.00000000000E+00 -0.00000000000E+00 -0.17276043724E+04  0.17276043724E+04  0.00000000000E+00 0. -1.
         -6    2    1    2    0  503  0.53145479541E+00 -0.24182054398E+03 -0.88435461192E+03  0.93274237971E+03  0.17160364028E+03 0.  0.
        -24    2    3    3    0    0 -0.47361292471E+02 -0.94166396253E+02 -0.29425497417E+03  0.32254967651E+03  0.79636058294E+02 0.  0.
          6    2    1    2  501    0 -0.53145479541E+00  0.24182054398E+03 -0.79218237083E+03  0.84592938232E+03  0.17194811219E+03 0.  0.
         24    2    5    5    0    0 -0.57370518376E+01  0.23109809449E+03 -0.79596507287E+03  0.83257019079E+03  0.78571510911E+02 0.  0.
          5    1    5    5  501    0  0.52055970422E+01  0.10722449490E+02  0.37827020375E+01  0.13359191530E+02  0.47000000000E+01 0. -1.
        -13    1    6    6    0    0 -0.37993950066E+02  0.13491382712E+03 -0.51963395593E+03  0.53820509951E+03  0.00000000000E+00 0.  1.
         14    1    6    6    0    0  0.32256898229E+02  0.96184267371E+02 -0.27633111694E+03  0.29436509128E+03  0.00000000000E+00 0. -1.
         -5    1    3    3    0  503  0.47892747266E+02 -0.14765414773E+03 -0.59009963775E+03  0.61019270321E+03  0.47000000000E+01 0.  1.
         13    1    4    4    0    0 -0.61855278396E+02 -0.35020535308E+02 -0.16559802975E+03  0.18020882558E+03  0.00000000000E+00 0. -1.
        -14    1    4    4    0    0  0.14493985925E+02 -0.59145860945E+02 -0.12865694442E+03  0.14234085093E+03  0.00000000000E+00 0.  1.
</event>
<event>
12    1  0.1039610E+000  0.2080202E+03  0.7818608E-02  0.1143515E+00
         21   -1    0    0  501  502  0.00000000000E+00  0.00000000000E+00  0.20194182224E+03  0.20194182224E+03  0.00000000000E+00 0. -1.
         21   -1    0    0  502  503 -0.00000000000E+00 -0.00000000000E+00 -0.34527290965E+03  0.34527290965E+03  0.00000000000E+00 0. -1.
         -6    2    1    2    0  503  0.11280365660E+03  0.19782768895E+02 -0.24160290570E+03  0.31881711267E+03  0.17365587926E+03 0.  0.
        -24    2    3    3    0    0  0.52232733804E+02  0.93231948362E+01 -0.32514441646E+02  0.10083015164E+03  0.79336940466E+02 0.  0.
          6    2    1    2  501    0 -0.11280365660E+03 -0.19782768895E+02  0.98271818286E+02  0.22839761921E+03  0.17144124155E+03 0.  0.
         24    2    5    5    0    0 -0.19047671777E+01  0.18340622522E+02  0.12845828097E+02  0.83236858504E+02  0.80145821736E+02 0.  0.
          5    1    5    5  501    0 -0.11089888943E+03 -0.38123391417E+02  0.85425990188E+02  0.14516076071E+03  0.47000000000E+01 0. -1.
        -13    1    6    6    0    0 -0.40294729632E+02  0.16054007778E+02  0.26791537129E+01  0.43457729652E+02  0.00000000000E+00 0.  1.
         14    1    6    6    0    0  0.38389962454E+02  0.22866147431E+01  0.10166674384E+02  0.39779128853E+02  0.00000000000E+00 0. -1.
         -5    1    3    3    0  503  0.60570922800E+02  0.10459574059E+02 -0.20908846405E+03  0.21798696103E+03  0.47000000000E+01 0.  1.
         11    1    4    4    0    0 -0.11252941161E+02 -0.97671965606E+01  0.13520366541E+02  0.20120316221E+02  0.00000000000E+00 0. -1.
        -12    1    4    4    0    0  0.63485674964E+02  0.19090391397E+02 -0.46034808187E+02  0.80709835424E+02  0.00000000000E+00 0.  1.
</event>
<event>
12    1  0.1039610E+000  0.2215407E+03  0.7818608E-02  0.1132811E+00
         21   -1    0    0  503  502  0.00000000000E+00  0.00000000000E+00  0.26950256998E+02  0.26950256998E+02  0.00000000000E+00 0. -1.
         21   -1    0    0  501  503 -0.00000000000E+00 -0.00000000000E+00 -0.18196399705E+04  0.18196399705E+04  0.00000000000E+00 0. -1.
          6    2    1    2  501    0 -0.12037579138E+03  0.69904150722E+02 -0.86931743738E+03  0.89710260421E+03  0.17234661041E+03 0.  0.
         24    2    3    3    0    0 -0.15170101186E+03  0.76078986072E+02 -0.77853478935E+03  0.80075439607E+03  0.79309365615E+02 0.  0.
         -6    2    1    2    0  502  0.12037579138E+03 -0.69904150722E+02 -0.92337227608E+03  0.94948762324E+03  0.17185303318E+03 0.  0.
        -24    2    5    5    0    0  0.36673283805E+02 -0.58467529560E+02 -0.27242897071E+03  0.29306841048E+03  0.83115385936E+02 0.  0.
          5    1    3    3  501    0  0.31325220480E+02 -0.61748353499E+01 -0.90782648024E+02  0.96348208141E+02  0.47000000000E+01 0. -1.
        -13    1    4    4    0    0 -0.57315668170E+02 -0.62953360253E+00 -0.37284333536E+03  0.37722358735E+03  0.00000000000E+00 0.  1.
         14    1    4    4    0    0 -0.94385343693E+02  0.76708519675E+02 -0.40569145400E+03  0.42353080873E+03  0.00000000000E+00 0. -1.
         -5    1    5    5    0  502  0.83702507579E+02 -0.11436621163E+02 -0.65094330537E+03  0.65641921276E+03  0.47000000000E+01 0.  1.
         13    1    6    6    0    0  0.33503138692E+02 -0.79373326221E+02 -0.23125821238E+03  0.24678522244E+03  0.00000000000E+00 0. -1.
        -14    1    6    6    0    0  0.31701451135E+01  0.20905796661E+02 -0.41170758325E+02  0.46283188040E+02  0.00000000000E+00 0.  1.
</event>
<event>
12    1  0.1039610E+000  0.2257103E+03  0.7818608E-02  0.1131289E+00
         21   -1    0    0  503  502  0.00000000000E+00  0.00000000000E+00  0.43819321818E+03  0.43819321818E+03  0.00000000000E+00 0. -1.
         21   -1    0    0  501  503 -0.00000000000E+00 -0.00000000000E+00 -0.12609929756E+03  0.12609929756E+03  0.00000000000E+00 0.  1.
          6    2    1    2  501    0 -0.11840471523E+03  0.63050065239E+02  0.25358331024E+03  0.33948439846E+03  0.18152182858E+03 0.  0.
         24    2    3    3    0    0 -0.12875795343E+03  0.66065920508E+02  0.11751589861E+03  0.20290945409E+03  0.80118310685E+02 0.  0.
         -6    2    1    2    0  502  0.11840471523E+03 -0.63050065239E+02  0.58510610384E+02  0.22480811728E+03  0.17064644957E+03 0.  0.
        -24    2    5    5    0    0  0.10439191060E+03  0.11666918868E+02  0.68072132708E+02  0.14804550192E+03  0.79056102812E+02 0.  0.
          5    1    3    3  501    0  0.10353238203E+02 -0.30158552689E+01  0.13606741162E+03  0.13657494437E+03  0.47000000000E+01 0. -1.
        -11    1    4    4    0    0 -0.10698982108E+03  0.42556632196E+02  0.44987490739E+02  0.12361942841E+03  0.00000000000E+00 0.  1.
         12    1    4    4    0    0 -0.21768132357E+02  0.23509288312E+02  0.72528407874E+02  0.79290025678E+02  0.00000000000E+00 0. -1.
         -5    1    5    5    0  502  0.14012804628E+02 -0.74716984108E+02 -0.95615223241E+01  0.76762615360E+02  0.47000000000E+01 0.  1.
         11    1    6    6    0    0  0.40892266289E+02 -0.36896731406E+01  0.71690204812E+02  0.82615232228E+02  0.00000000000E+00 0. -1.
        -12    1    6    6    0    0  0.63499644312E+02  0.15356592009E+02 -0.36180721040E+01  0.65430269689E+02  0.00000000000E+00 0.  1.
</event>
<event>
12    1  0.1039610E+000  0.1992371E+03  0.7818608E-02  0.1150461E+00
         21   -1    0    0  501  502  0.00000000000E+00  0.00000000000E+00  0.10049813124E+03  0.10049813124E+03  0.00000000000E+00 0.  1.
         21   -1    0    0  502  503 -0.00000000000E+00 -0.00000000000E+00 -0.78213622871E+03  0.78213622871E+03  0.00000000000E+00 0.  1.
         -6    2    1    2    0  503  0.42265413311E+01 -0.10002787866E+03 -0.65144054264E+03  0.68112182393E+03  0.17183922214E+03 0.  0.
        -24    2    3    3    0    0  0.69639639618E+02 -0.62849338561E+02 -0.37324871423E+03  0.39289639016E+03  0.79077506058E+02 0.  0.
          6    2    1    2  501    0 -0.42265413311E+01  0.10002787866E+03 -0.30197554824E+02  0.20151253602E+03  0.17225553603E+03 0.  0.
         24    2    5    5    0    0 -0.66641566613E+01  0.67866752634E+02  0.42815111937E+02  0.12155492535E+03  0.91061292381E+02 0.  0.
          5    1    5    5  501    0  0.24376153302E+01  0.32161126026E+02 -0.73012666761E+02  0.79957610665E+02  0.47000000000E+01 0. -1.
        -13    1    6    6    0    0 -0.45939979870E+02  0.56426291832E+02  0.29770087214E+02  0.78617213465E+02  0.00000000000E+00 0.  1.
         14    1    6    6    0    0  0.39275823208E+02  0.11440460802E+02  0.13045024723E+02  0.42937711887E+02  0.00000000000E+00 0. -1.
         -5    1    3    3    0  503 -0.65413098287E+02 -0.37178540098E+02 -0.27819182842E+03  0.28822543377E+03  0.47000000000E+01 0.  1.
         13    1    4    4    0    0  0.41862371289E+02 -0.29500505476E+02 -0.70974165585E+02  0.87521826614E+02  0.00000000000E+00 0. -1.
        -14    1    4    4    0    0  0.27777268329E+02 -0.33348833085E+02 -0.30227454864E+03  0.30537456355E+03  0.00000000000E+00 0.  1.
</event>
<event>
12    1  0.1039610E+000  0.3871044E+03  0.7818608E-02  0.1048473E+00
         21   -1    0    0  501  502  0.00000000000E+00  0.00000000000E+00  0.97952470468E+03  0.97952470468E+03  0.00000000000E+00 0.  1.
         21   -1    0    0  502  503 -0.00000000000E+00 -0.00000000000E+00 -0.16002106012E+03  0.16002106012E+03  0.00000000000E+00 0.  1.
         -6    2    1    2    0  503  0.22172667665E+03  0.26408674995E+03  0.28462007619E+03  0.47928047162E+03  0.17261706772E+03 0.  0.
        -24    2    3    3    0    0  0.19295364239E+03  0.22108357492E+03  0.15518523367E+03  0.33980778963E+03  0.72648619632E+02 0.  0.
          6    2    1    2  501    0 -0.22172667665E+03 -0.26408674995E+03  0.53488356837E+03  0.66026529319E+03  0.17591274836E+03 0.  0.
         24    2    5    5    0    0 -0.75111830300E+02 -0.11596934366E+03  0.13349787279E+03  0.20797418579E+03  0.79629794644E+02 0.  0.
          5    1    5    5  501    0 -0.14661484635E+03 -0.14811740629E+03  0.40138569558E+03  0.45229110740E+03  0.47000000000E+01 0. -1.
        -13    1    6    6    0    0  0.82291651362E+01 -0.92521014629E+00  0.32840628983E+02  0.33868600276E+02  0.00000000000E+00 0.  1.
         14    1    6    6    0    0 -0.83340995436E+02 -0.11504413351E+03  0.10065724381E+03  0.17410558551E+03  0.00000000000E+00 0. -1.
         -5    1    3    3    0  503  0.28773034263E+02  0.43003175032E+02  0.12943484252E+03  0.13947268199E+03  0.47000000000E+01 0.  1.
         13    1    4    4    0    0  0.93039172013E+02  0.11939875633E+03  0.11949391386E+03  0.19285006091E+03  0.00000000000E+00 0. -1.
        -14    1    4    4    0    0  0.99914470376E+02  0.10168481858E+03  0.35691319808E+02  0.14695772872E+03  0.00000000000E+00 0.  1.
</event>
<event>
12    1  0.1039610E+000  0.3613703E+03  0.7818608E-02  0.1058058E+00
         21   -1    0    0  501  502  0.00000000000E+00  0.00000000000E+00  0.21210698844E+03  0.21210698844E+03  0.00000000000E+00 0. -1.
         21   -1    0    0  502  503 -0.00000000000E+00 -0.00000000000E+00 -0.79947352524E+03  0.79947352524E+03  0.00000000000E+00 0.  1.
         -6    2    1    2    0  503  0.12491595145E+03  0.29197126597E+03 -0.50940441135E+02  0.36478733074E+03  0.17211523189E+03 0.  0.
        -24    2    3    3    0    0  0.10110473620E+03  0.10155883799E+03 -0.50865676688E+02  0.17283430969E+03  0.82146310237E+02 0.  0.
          6    2    1    2  501    0 -0.12491595145E+03 -0.29197126597E+03 -0.53642609566E+03  0.64679318295E+03  0.17244491967E+03 0.  0.
         24    2    5    5    0    0 -0.49104836045E+02 -0.22697979178E+03 -0.28355110059E+03  0.37487578728E+03  0.78737020756E+02 0.  0.
          5    1    5    5  501    0 -0.75811115405E+02 -0.64991474182E+02 -0.25287499507E+03  0.27191739567E+03  0.47000000000E+01 0. -1.
        -13    1    6    6    0    0  0.10803775734E+02 -0.94197476578E+02 -0.14877596702E+03  0.17642044816E+03  0.00000000000E+00 0.  1.
         14    1    6    6    0    0 -0.59908611779E+02 -0.13278231521E+03 -0.13477513357E+03  0.19845533912E+03  0.00000000000E+00 0. -1.
         -5    1    3    3    0  503  0.23811215251E+02  0.19041242798E+03 -0.74764446740E-01  0.19195302105E+03  0.47000000000E+01 0.  1.
         11    1    4    4    0    0  0.96430001399E+02  0.83146197348E+02 -0.99391667092E+01  0.12771382986E+03  0.00000000000E+00 0. -1.
        -12    1    4    4    0    0  0.46747347999E+01  0.18412640641E+02 -0.40926509979E+02  0.45120479828E+02  0.00000000000E+00 0.  1.
</event>
<event>
12    1  0.1039610E+000  0.2595142E+03  0.7818608E-02  0.1107530E+00
         21   -1    0    0  501  502  0.00000000000E+00  0.00000000000E+00  0.28398742231E+03  0.28398742231E+03  0.00000000000E+00 0.  1.
         21   -1    0    0  502  503 -0.00000000000E+00 -0.00000000000E+00 -0.23772495583E+03  0.23772495583E+03  0.00000000000E+00 0.  1.
         -6    2    1    2    0  503 -0.10032132172E+03 -0.16717891079E+03  0.50435593692E+01  0.25956324311E+03  0.17127312656E+03 0.  0.
        -24    2    3    3    0    0 -0.67086081969E+02 -0.11051912893E+03 -0.64709879952E+02  0.16363335028E+03  0.76638661964E+02 0.  0.
          6    2    1    2  501    0  0.10032132172E+03  0.16717891079E+03  0.41218907111E+02  0.26214913503E+03  0.17032326584E+03 0.  0.
         24    2    5    5    0    0  0.10962870760E+03  0.13406876563E+03  0.83833421204E+02  0.20718554748E+03  0.76843484616E+02 0.  0.
          5    1    5    5  501    0 -0.93073858757E+01  0.33110145158E+02 -0.42614514093E+02  0.54963587543E+02  0.47000000000E+01 0. -1.
        -13    1    6    6    0    0  0.49049893542E+02  0.10243208559E+03  0.79647125640E+02  0.13871513557E+03  0.00000000000E+00 0.  1.
         14    1    6    6    0    0  0.60578814057E+02  0.31636680040E+02  0.41862955646E+01  0.68470411910E+02  0.00000000000E+00 0. -1.
         -5    1    3    3    0  503 -0.33235239755E+02 -0.56659781854E+02  0.69753439321E+02  0.95929892830E+02  0.47000000000E+01 0.  1.
         11    1    4    4    0    0 -0.49393736961E+02 -0.85765981849E+02 -0.80228660107E+01  0.99297085922E+02  0.00000000000E+00 0. -1.
        -12    1    4    4    0    0 -0.17692345007E+02 -0.24753147083E+02 -0.56687013941E+02  0.64336264361E+02  0.00000000000E+00 0.  1.
</event>
<event>
12    1  0.1039610E+000  0.1834348E+03  0.7818608E-02  0.1164724E+00
         21   -1    0    0  503  502  0.00000000000E+00  0.00000000000E+00  0.28956314694E+03  0.28956314694E+03  0.00000000000E+00 0.  1.
         21   -1    0    0  501  503 -0.00000000000E+00 -0.00000000000E+00 -0.11567345898E+03  0.11567345898E+03  0.00000000000E+00 0.  1.
          6    2    1    2  501    0 -0.49892209474E+02  0.40620378113E+02  0.84848864115E+02  0.20210804093E+03  0.17178207934E+03 0.  0.
         24    2    3    3    0    0 -0.54303569268E+02 -0.38002116293E+02  0.56242248197E+02  0.11819507890E+03  0.80086501465E+02 0.  0.
         -6    2    1    2    0  502  0.49892209474E+02 -0.40620378113E+02  0.89040823841E+02  0.20312856499E+03  0.17086163385E+03 0.  0.
        -24    2    5    5    0    0  0.54765860284E+02  0.38062291359E+02  0.48454623965E+02  0.11433642250E+03  0.79227075240E+02 0.  0.
          5    1    3    3  501    0  0.44113597938E+01  0.78622494406E+02  0.28606615917E+02  0.83912962027E+02  0.47000000000E+01 0. -1.
        -13    1    4    4    0    0 -0.25752987993E+02 -0.68092306304E+01 -0.18422217424E+02  0.32387653622E+02  0.00000000000E+00 0.  1.
         14    1    4    4    0    0 -0.28550581275E+02 -0.31192885663E+02  0.74664465621E+02  0.85807425282E+02  0.00000000000E+00 0. -1.
         -5    1    5    5    0  502 -0.48736508106E+01 -0.78682669471E+02  0.40586199876E+02  0.88792142489E+02  0.47000000000E+01 0.  1.
         13    1    6    6    0    0  0.53851989446E+02 -0.10541544328E+02  0.23520580793E+02  0.59702417413E+02  0.00000000000E+00 0. -1.
        -14    1    6    6    0    0  0.91387083842E+00  0.48603835686E+02  0.24934043171E+02  0.54634005090E+02  0.00000000000E+00 0.  1.
</event>
<event>
12    1  0.1039610E+000  0.2577832E+03  0.7818608E-02  0.1108509E+00
         21   -1    0    0  503  502  0.00000000000E+00  0.00000000000E+00  0.81306156839E+03  0.81306156839E+03  0.00000000000E+00 0. -1.
         21   -1    0    0  501  503 -0.00000000000E+00 -0.00000000000E+00 -0.16768156902E+03  0.16768156902E+03  0.00000000000E+00 0. -1.
          6    2    1    2  501    0 -0.11699855049E+03 -0.15242870981E+03  0.67383172677E+03  0.72139452845E+03  0.17157417431E+03 0.  0.
         24    2    3    3    0    0 -0.96044847735E+02 -0.41734644373E+02  0.25040287659E+03  0.28320927659E+03  0.80867177688E+02 0.  0.
         -6    2    1    2    0  502  0.11699855049E+03  0.15242870981E+03 -0.28451727400E+02  0.25934860896E+03  0.17184012275E+03 0.  0.
        -24    2    5    5    0    0  0.34621222099E+02  0.44459728668E+02  0.41316803959E+02  0.10659697038E+03  0.80501796943E+02 0.  0.
          5    1    3    3  501    0 -0.20953702750E+02 -0.11069406544E+03  0.42342885018E+03  0.43818525186E+03  0.47000000000E+01 0. -1.
        -11    1    4    4    0    0 -0.10829783071E+03 -0.43560807485E+02  0.20254834855E+03  0.23377723924E+03  0.00000000000E+00 0.  1.
         12    1    4    4    0    0  0.12252982973E+02  0.18261631123E+01  0.47854528037E+02  0.49432037356E+02  0.00000000000E+00 0. -1.
         -5    1    5    5    0  502  0.82377328387E+02  0.10796898114E+03 -0.69768531359E+02  0.15275163858E+03  0.47000000000E+01 0.  1.
         11    1    6    6    0    0 -0.40866668468E+01  0.50483162932E+02  0.13979751522E+01  0.50667592405E+02  0.00000000000E+00 0. -1.
        -12    1    6    6    0    0  0.38707888946E+02 -0.60234342639E+01  0.39918828807E+02  0.55929377971E+02  0.00000000000E+00 0.  1.
</event>
<event>
12    1  0.1039610E+000  0.3150296E+03  0.7818608E-02  0.1078141E+00
         21   -1    0    0  503  502  0.00000000000E+00  0.00000000000E+00  0.13348155277E+04  0.13348155277E+04  0.00000000000E+00 0. -1.
         21   -1    0    0  501  503 -0.00000000000E+00 -0.00000000000E+00 -0.13199820735E+03  0.13199820735E+03  0.00000000000E+00 0. -1.
          6    2    1    2  501    0  0.15997499960E+02  0.26298944126E+03  0.10884387026E+04  0.11331118404E+04  0.17269703912E+03 0.  0.
         24    2    3    3    0    0  0.24009469856E+02  0.44983398618E+02  0.33807638813E+03  0.35166669244E+03  0.82303448098E+02 0.  0.
         -6    2    1    2    0  502 -0.15997499960E+02 -0.26298944126E+03  0.11437861773E+03  0.33370189463E+03  0.16986794892E+03 0.  0.
        -24    2    5    5    0    0 -0.57621596506E+02 -0.95476502595E+02  0.76526805575E+02  0.15693085708E+03  0.79592279786E+02 0.  0.
          5    1    3    3  501    0 -0.80119698968E+01  0.21800604264E+03  0.75036231446E+03  0.78144514795E+03  0.47000000000E+01 0. -1.
        -11    1    4    4    0    0  0.47140902265E+02  0.34810704032E+02  0.30192413813E+03  0.30755850658E+03  0.00000000000E+00 0.  1.
         12    1    4    4    0    0 -0.23131432409E+02  0.10172694587E+02  0.36152250000E+02  0.44108185867E+02  0.00000000000E+00 0. -1.
         -5    1    5    5    0  502  0.41624096547E+02 -0.16751293866E+03  0.37851812155E+02  0.17677103755E+03  0.47000000000E+01 0.  1.
         11    1    6    6    0    0  0.41661968222E+01 -0.65429159054E+02  0.53009737774E+02  0.84311116404E+02  0.00000000000E+00 0. -1.
        -12    1    6    6    0    0 -0.61787793328E+02 -0.30047343541E+02  0.23517067801E+02  0.72619740679E+02  0.00000000000E+00 0.  1.
</event>
<event>
12    1  0.1039610E+000  0.2166584E+03  0.7818608E-02  0.1136495E+00
         21   -1    0    0  503  502  0.00000000000E+00  0.00000000000E+00  0.59674433962E+02  0.59674433962E+02  0.00000000000E+00 0.  1.
         21   -1    0    0  501  503 -0.00000000000E+00 -0.00000000000E+00 -0.85200062432E+03  0.85200062432E+03  0.00000000000E+00 0.  1.
          6    2    1    2  501    0  0.43279849347E+02 -0.12453883493E+03 -0.26856227833E+03  0.34506023440E+03  0.17192382400E+03 0.  0.
         24    2    3    3    0    0 -0.52071067674E+00 -0.69739457968E+02 -0.53094754438E+02  0.11841115625E+03  0.79613352139E+02 0.  0.
         -6    2    1    2    0  502 -0.43279849347E+02  0.12453883493E+03 -0.52376391203E+03  0.56661482388E+03  0.17129114494E+03 0.  0.
        -24    2    5    5    0    0  0.39062329424E+01  0.54804172864E+02 -0.12040014333E+03  0.15453003971E+03  0.79778334385E+02 0.  0.
          5    1    3    3  501    0  0.43800560024E+02 -0.54799376960E+02 -0.21546752389E+03  0.22664907814E+03  0.47000000000E+01 0. -1.
        -13    1    4    4    0    0 -0.27260440084E+02 -0.22879504895E+02 -0.53738484052E+02  0.64454852463E+02  0.00000000000E+00 0.  1.
         14    1    4    4    0    0  0.26739729407E+02 -0.46859953073E+02  0.64372961395E+00  0.53956303789E+02  0.00000000000E+00 0. -1.
         -5    1    5    5    0  502 -0.47186082290E+02  0.69734662064E+02 -0.40336376870E+03  0.41208478418E+03  0.47000000000E+01 0.  1.
         11    1    6    6    0    0  0.33584288549E+02  0.55546004174E+02 -0.97069307556E+02  0.11677205782E+03  0.00000000000E+00 0. -1.
        -12    1    6    6    0    0 -0.29678055607E+02 -0.74183130972E+00 -0.23330835778E+02  0.37757981890E+02  0.00000000000E+00 0.  1.
</event>
<event>
12    1  0.1039610E+000  0.2911009E+03  0.7818608E-02  0.1089908E+00
         21   -1    0    0  501  502  0.00000000000E+00  0.00000000000E+00  0.17352235710E+04  0.17352235710E+04  0.00000000000E+00 0. -1.
         21   -1    0    0  502  503 -0.00000000000E+00 -0.00000000000E+00 -0.69185391864E+02  0.69185391864E+02  0.00000000000E+00 0. -1.
         -6    2    1    2    0  503  0.22910640518E+03  0.49819065987E+02  0.13254074235E+04  0.13569983720E+04  0.17253422593E+03 0.  0.
        -24    2    3    3    0    0  0.31588391096E+02  0.21488151458E+02  0.31916838078E+03  0.33115476419E+03  0.79595574294E+02 0.  0.
          6    2    1    2  501    0 -0.22910640518E+03 -0.49819065987E+02  0.34063075562E+03  0.44741059085E+03  0.17080761369E+03 0.  0.
         24    2    5    5    0    0 -0.11297551052E+03  0.27810201568E+02  0.11615956092E+03  0.18298272709E+03  0.80329082747E+02 0.  0.
          5    1    5    5  501    0 -0.11613089467E+03 -0.77629267555E+02  0.22447119470E+03  0.26442786375E+03  0.47000000000E+01 0. -1.
        -13    1    6    6    0    0 -0.79561230771E+02  0.43796966786E+02  0.11417111253E+03  0.14588765087E+03  0.00000000000E+00 0.  1.
         14    1    6    6    0    0 -0.33414279744E+02 -0.15986765218E+02  0.19884483915E+01  0.37095076223E+02  0.00000000000E+00 0. -1.
         -5    1    3    3    0  503  0.19751801409E+03  0.28330914530E+02  0.10062390427E+04  0.10258436078E+04  0.47000000000E+01 0.  1.
         13    1    4    4    0    0  0.20009364367E+02 -0.68619816623E+00  0.29716663172E+03  0.29784031382E+03  0.00000000000E+00 0. -1.
        -14    1    4    4    0    0  0.11579026729E+02  0.22174349624E+02  0.22001749063E+02  0.33314450364E+02  0.00000000000E+00 0.  1.
</event>
<event>
12    1  0.1039610E+000  0.3162938E+03  0.7818608E-02  0.1077395E+00
         21   -1    0    0  503  502  0.00000000000E+00  0.00000000000E+00  0.23990929826E+03  0.23990929826E+03  0.00000000000E+00 0. -1.
         21   -1    0    0  501  503 -0.00000000000E+00 -0.00000000000E+00 -0.42440847625E+03  0.42440847625E+03  0.00000000000E+00 0.  1.
          6    2    1    2  501    0 -0.23034221988E+03 -0.12841526382E+03 -0.47496010234E+02  0.31984002702E+03  0.17462460783E+03 0.  0.
         24    2    3    3    0    0 -0.18987433328E+03 -0.16051328773E+03 -0.57686940921E+02  0.26698287941E+03  0.78328135264E+02 0.  0.
         -6    2    1    2    0  502  0.23034221988E+03  0.12841526382E+03 -0.13700316775E+03  0.34447774749E+03  0.17420399623E+03 0.  0.
        -24    2    5    5    0    0  0.16922476338E+03  0.15739733111E+03 -0.12621917359E+03  0.27582144229E+03  0.82068555893E+02 0.  0.
          5    1    3    3  501    0 -0.40467886602E+02  0.32098023910E+02  0.10190930687E+02  0.52857147608E+02  0.47000000000E+01 0. -1.
        -13    1    4    4    0    0 -0.38611516475E+02 -0.53115508204E+02 -0.47773758920E+02  0.81206147905E+02  0.00000000000E+00 0.  1.
         14    1    4    4    0    0 -0.15126281680E+03 -0.10739777952E+03 -0.99131820012E+01  0.18577673151E+03  0.00000000000E+00 0. -1.
         -5    1    5    5    0  502  0.61117456501E+02 -0.28982067290E+02 -0.10783994162E+02  0.68656305199E+02  0.47000000000E+01 0.  1.
         13    1    6    6    0    0  0.60728462593E+02  0.10867927661E+03 -0.47767488061E+02  0.13334490710E+03  0.00000000000E+00 0. -1.
        -14    1    6    6    0    0  0.10849630078E+03  0.48718054494E+02 -0.78451685530E+02  0.14247653519E+03  0.00000000000E+00 0.  1.
</event>
<event>
12    1  0.1039610E+000  0.1910935E+03  0.7818608E-02  0.1157537E+00
         21   -1    0    0  503  502  0.00000000000E+00  0.00000000000E+00  0.11944024597E+03  0.11944024597E+03  0.00000000000E+00 0.  1.
         21   -1    0    0  501  503 -0.00000000000E+00 -0.00000000000E+00 -0.50349843701E+03  0.50349843701E+03  0.00000000000E+00 0.  1.
          6    2    1    2  501    0 -0.62419634464E+02 -0.54836179602E+02 -0.38736025208E+03  0.43181668439E+03  0.17179774931E+03 0.  0.
         24    2    3    3    0    0 -0.41211148076E+02 -0.84591595715E+02 -0.37159888473E+03  0.39174555534E+03  0.80775938283E+02 0.  0.
         -6    2    1    2    0  502  0.62419634464E+02  0.54836179602E+02  0.33020610384E+01  0.19112199858E+03  0.17208572682E+03 0.  0.
        -24    2    5    5    0    0  0.10189526967E+03  0.46376944877E+02  0.32471044085E+02  0.14109396645E+03  0.79496362612E+02 0.  0.
          5    1    3    3  501    0 -0.21208486388E+02  0.29755416113E+02 -0.15761367352E+02  0.40071129054E+02  0.47000000000E+01 0. -1.
        -11    1    4    4    0    0 -0.34903721950E+02 -0.29746831101E+02 -0.28757199271E+03  0.29120576017E+03  0.00000000000E+00 0.  1.
         12    1    4    4    0    0 -0.63074261260E+01 -0.54844764614E+02 -0.84026892018E+02  0.10053979517E+03  0.00000000000E+00 0. -1.
         -5    1    5    5    0  502 -0.39475635203E+02  0.84592347253E+01 -0.29168983047E+02  0.50028032130E+02  0.47000000000E+01 0.  1.
         13    1    6    6    0    0  0.76869393449E+02  0.53938926465E+02 -0.65395524150E+01  0.94133294764E+02  0.00000000000E+00 0. -1.
        -14    1    6    6    0    0  0.25025876217E+02 -0.75619815881E+01  0.39010596500E+02  0.46960671687E+02  0.00000000000E+00 0.  1.
</event>
<event>
12    1  0.1039610E+000  0.1960281E+03  0.7818608E-02  0.1153192E+00
         21   -1    0    0  503  502  0.00000000000E+00  0.00000000000E+00  0.13499235522E+03  0.13499235522E+03  0.00000000000E+00 0.  1.
         21   -1    0    0  501  503 -0.00000000000E+00 -0.00000000000E+00 -0.30301984711E+03  0.30301984711E+03  0.00000000000E+00 0.  1.
          6    2    1    2  501    0  0.88537216772E+02  0.47438112765E+02 -0.13843817579E+03  0.23976351703E+03  0.16802440979E+03 0.  0.
         24    2    3    3    0    0  0.41672694495E+02 -0.23777272735E+02 -0.12220343087E+03  0.15285223167E+03  0.78282527075E+02 0.  0.
         -6    2    1    2    0  502 -0.88537216772E+02 -0.47438112765E+02 -0.29589316092E+02  0.19824868529E+03  0.16833835064E+03 0.  0.
        -24    2    5    5    0    0 -0.43264204903E+02 -0.98968871470E+01  0.45853409983E+02  0.10247455443E+03  0.80179544135E+02 0.  0.
          5    1    3    3  501    0  0.46864522277E+02  0.71215385500E+02 -0.16234744924E+02  0.86911285360E+02  0.47000000000E+01 0. -1.
        -13    1    4    4    0    0  0.26117885845E+02 -0.37905481647E+02 -0.23020191330E+02  0.51467452908E+02  0.00000000000E+00 0.  1.
         14    1    4    4    0    0  0.15554808649E+02  0.14128208913E+02 -0.99183239540E+02  0.10138477876E+03  0.00000000000E+00 0. -1.
         -5    1    5    5    0  502 -0.45273011869E+02 -0.37541225618E+02 -0.75442726075E+02  0.95774130861E+02  0.47000000000E+01 0.  1.
         13    1    6    6    0    0 -0.14550263640E+02 -0.27492093645E+00 -0.23021808810E+02  0.27235811616E+02  0.00000000000E+00 0. -1.
        -14    1    6    6    0    0 -0.28713941263E+02 -0.96219662105E+01  0.68875218793E+02  0.75238742815E+02  0.00000000000E+00 0.  1.
</event>
<event>
12    1  0.1039610E+000  0.4830159E+03  0.7818608E-02  0.1018335E+00
         21   -1    0    0  501  502  0.00000000000E+00  0.00000000000E+00  0.25794675776E+03  0.25794675776E+03  0.00000000000E+00 0.  1.
         21   -1    0    0  502  503 -0.00000000000E+00 -0.00000000000E+00 -0.91556907728E+03  0.91556907728E+03  0.00000000000E+00 0. -1.
         -6    2    1    2    0  503 -0.30673334316E+03  0.33057147023E+03 -0.26235759150E+03  0.54966885265E+03  0.17303612633E+03 0.  0.
        -24    2    3    3    0    0 -0.30202179398E+03  0.26154961268E+03 -0.19025987612E+03  0.44963692735E+03  0.79681754773E+02 0.  0.
          6    2    1    2  501    0  0.30673334316E+03 -0.33057147023E+03 -0.39526472801E+03  0.62384698239E+03  0.17201166090E+03 0.  0.
         24    2    5    5    0    0  0.59092504820E+02 -0.12782284709E+03 -0.11603311721E+03  0.19908190441E+03  0.79619821713E+02 0.  0.
          5    1    5    5  501    0  0.24764083834E+03 -0.20274862314E+03 -0.27923161080E+03  0.42476507798E+03  0.47000000000E+01 0. -1.
        -13    1    6    6    0    0  0.25391429724E+02 -0.10617897398E+03 -0.11563281862E+03  0.15902719252E+03  0.00000000000E+00 0.  1.
         14    1    6    6    0    0  0.33701075096E+02 -0.21643873115E+02 -0.40029859441E+00  0.40054711895E+02  0.00000000000E+00 0. -1.
         -5    1    3    3    0  503 -0.47115491808E+01  0.69021857550E+02 -0.72097715383E+02  0.10003192530E+03  0.47000000000E+01 0.  1.
         11    1    4    4    0    0 -0.93457181835E+02  0.77356066540E+02 -0.18720848116E+02  0.12275453564E+03  0.00000000000E+00 0. -1.
        -12    1    4    4    0    0 -0.20856461214E+03  0.18419354614E+03 -0.17153902800E+03  0.32688239171E+03  0.00000000000E+00 0.  1.
</event>
<event>
12    1  0.1039610E+000  0.2528556E+03  0.7818608E-02  0.1111534E+00
         21   -1    0    0  503  502  0.00000000000E+00  0.00000000000E+00  0.16016394482E+03  0.16016394482E+03  0.00000000000E+00 0.  1.
         21   -1    0    0  501  503 -0.00000000000E+00 -0.00000000000E+00 -0.39971260702E+03  0.39971260702E+03  0.00000000000E+00 0.  1.
          6    2    1    2  501    0  0.18212456494E+03  0.31947329918E+02 -0.13179635359E+03  0.28514250981E+03  0.17247023812E+03 0.  0.
         24    2    3    3    0    0  0.76678498123E+02 -0.27423359149E+02 -0.11578045751E+03  0.16298543611E+03  0.80792978280E+02 0.  0.
         -6    2    1    2    0  502 -0.18212456494E+03 -0.31947329918E+02 -0.10775230861E+03  0.27473404203E+03  0.17227374958E+03 0.  0.
        -24    2    5    5    0    0 -0.10200524460E+03  0.28989082121E+02 -0.95150583736E+01  0.13400380669E+03  0.81369816662E+02 0.  0.
          5    1    3    3  501    0  0.10544606682E+03  0.59370689067E+02 -0.16015896077E+02  0.12215707370E+03  0.47000000000E+01 0. -1.
        -11    1    4    4    0    0  0.37571660346E+02  0.17635082358E+02 -0.11876356775E+02  0.43170286554E+02  0.00000000000E+00 0.  1.
         12    1    4    4    0    0  0.39106837776E+02 -0.45058441506E+02 -0.10390410074E+03  0.11981514955E+03  0.00000000000E+00 0. -1.
         -5    1    5    5    0  502 -0.80119320342E+02 -0.60936412039E+02 -0.98237250235E+02  0.14073023534E+03  0.47000000000E+01 0.  1.
         13    1    6    6    0    0 -0.76007350002E+02  0.37481463586E+02 -0.39430511271E+02  0.93470543948E+02  0.00000000000E+00 0. -1.
        -14    1    6    6    0    0 -0.25997894600E+02 -0.84923814649E+01  0.29915452898E+02  0.40533262744E+02  0.00000000000E+00 0.  1.
</event>
<event>
12    1  0.1039610E+000  0.1798983E+03  0.7818608E-02  0.1168575E+00
         21   -1    0    0  503  502  0.00000000000E+00  0.00000000000E+00  0.71779183378E+02  0.71779183378E+02  0.00000000000E+00 0.  1.
         21   -1    0    0  501  503 -0.00000000000E+00 -0.00000000000E+00 -0.50380337095E+03  0.50380337095E+03  0.00000000000E+00 0.  1.
          6    2    1    2  501    0 -0.30115459625E+02 -0.47576738421E+02 -0.11538055431E+03  0.21140320780E+03  0.16795284161E+03 0.  0.
         24    2    3    3    0    0 -0.18581790741E+02 -0.15848154802E+02 -0.14387572328E+03  0.16697581544E+03  0.81143405370E+02 0.  0.
         -6    2    1    2    0  502  0.30115459625E+02  0.47576738421E+02 -0.31664363326E+03  0.36417934653E+03  0.17085935446E+03 0.  0.
        -24    2    5    5    0    0  0.30918396183E+02  0.48386270308E+02 -0.33247812069E+03  0.34762274541E+03  0.83682100895E+02 0.  0.
          5    1    3    3  501    0 -0.11533668883E+02 -0.31728583619E+02  0.28495168973E+02  0.44427392352E+02  0.47000000000E+01 0. -1.
        -13    1    4    4    0    0 -0.21709268231E+02  0.23303333288E+02 -0.11185527507E+03  0.11630107579E+03  0.00000000000E+00 0.  1.
         14    1    4    4    0    0  0.31274774894E+01 -0.39151488090E+02 -0.32020448218E+02  0.50674739656E+02  0.00000000000E+00 0. -1.
         -5    1    5    5    0  502 -0.80293655803E+00 -0.80953188696E+00  0.15834487423E+02  0.16556601129E+02  0.47000000000E+01 0.  1.
         13    1    6    6    0    0  0.16902902516E+01  0.65122199706E+02 -0.17881319858E+03  0.19031005744E+03  0.00000000000E+00 0. -1.
        -14    1    6    6    0    0  0.29228105931E+02 -0.16735929398E+02 -0.15366492211E+03  0.15731268797E+03  0.00000000000E+00 0.  1.
</event>
<event>
12    1  0.1039610E+000  0.2419496E+03  0.7818608E-02  0.1118603E+00
         21   -1    0    0  503  502  0.00000000000E+00  0.00000000000E+00  0.28681088356E+03  0.28681088356E+03  0.00000000000E+00 0. -1.
         21   -1    0    0  501  503 -0.00000000000E+00 -0.00000000000E+00 -0.24201325503E+03  0.24201325503E+03  0.00000000000E+00 0. -1.
          6    2    1    2  501    0 -0.29617537247E+02 -0.16665012736E+03  0.12774249925E+03  0.27305182570E+03  0.17201653973E+03 0.  0.
         24    2    3    3    0    0 -0.36670649331E+02 -0.89579056050E+02  0.14722168735E+03  0.19310668706E+03  0.79036849361E+02 0.  0.
         -6    2    1    2    0  502  0.29617537247E+02  0.16665012736E+03 -0.82944870720E+02  0.25577231289E+03  0.17288771211E+03 0.  0.
        -24    2    5    5    0    0  0.23739982655E+02  0.16506265806E+03 -0.11833970985E+03  0.21955145780E+03  0.79933020917E+02 0.  0.
          5    1    3    3  501    0  0.70531120833E+01 -0.77071071308E+02 -0.19479188095E+02  0.79945138636E+02  0.47000000000E+01 0. -1.
        -13    1    4    4    0    0  0.15118410083E+02 -0.30409231046E+02  0.89018362762E+02  0.95276211958E+02  0.00000000000E+00 0.  1.
         14    1    4    4    0    0 -0.51789059414E+02 -0.59169825004E+02  0.58203324585E+02  0.97830475102E+02  0.00000000000E+00 0. -1.
         -5    1    5    5    0  502  0.58775545923E+01  0.15874693015E+01  0.35394839126E+02  0.36220855091E+02  0.47000000000E+01 0.  1.
         11    1    6    6    0    0 -0.25050688185E+02  0.22428923468E+02 -0.15222863055E+02  0.36909743241E+02  0.00000000000E+00 0. -1.
        -12    1    6    6    0    0  0.48790670841E+02  0.14263373459E+03 -0.10311684679E+03  0.18264171456E+03  0.00000000000E+00 0.  1.
</event>
<event>
12    1  0.1039610E+000  0.3235199E+03  0.7818608E-02  0.1074232E+00
         21   -1    0    0  501  502  0.00000000000E+00  0.00000000000E+00  0.10096305934E+04  0.10096305934E+04  0.00000000000E+00 0. -1.
         21   -1    0    0  502  503 -0.00000000000E+00 -0.00000000000E+00 -0.10314883999E+03  0.10314883999E+03  0.00000000000E+00 0. -1.
         -6    2    1    2    0  503  0.25331286870E+03  0.98259986992E+02  0.44662122920E+03  0.55148496333E+03  0.17562092107E+03 0.  0.
        -24    2    3    3    0    0  0.46483660833E+02  0.19840091123E+02  0.19388002620E+03  0.21558586094E+03  0.79582906064E+02 0.  0.
          6    2    1    2  501    0 -0.25331286870E+03 -0.98259986992E+02  0.45986052418E+03  0.56129447003E+03  0.17250317648E+03 0.  0.
         24    2    5    5    0    0 -0.16915708001E+03 -0.12452532298E+03  0.38964561891E+03  0.44849248615E+03  0.72118846511E+02 0.  0.
          5    1    5    5  501    0 -0.84155788689E+02  0.26265335985E+02  0.70214905275E+02  0.11280198388E+03  0.47000000000E+01 0. -1.
        -11    1    6    6    0    0 -0.56973421410E+02 -0.58662873729E+02  0.88756151832E+02  0.12068536775E+03  0.00000000000E+00 0.  1.
         12    1    6    6    0    0 -0.11218365860E+03 -0.65862449248E+02  0.30088946708E+03  0.32780711840E+03  0.00000000000E+00 0. -1.
         -5    1    3    3    0  503  0.20682920786E+03  0.78419895869E+02  0.25274120300E+03  0.33589910239E+03  0.47000000000E+01 0.  1.
         11    1    4    4    0    0  0.24603758267E+02 -0.29837107339E+02  0.98841117873E+02  0.10613747914E+03  0.00000000000E+00 0. -1.
        -12    1    4    4    0    0  0.21879902566E+02  0.49677198461E+02  0.95038908327E+02  0.10944838180E+03  0.00000000000E+00 0.  1.
</event>
<event>
12    1  0.1039610E+000  0.2298620E+03  0.7818608E-02  0.1126972E+00
         21   -1    0    0  503  502  0.00000000000E+00  0.00000000000E+00  0.29389027927E+02  0.29389027927E+02  0.00000000000E+00 0.  1.
         21   -1    0    0  501  503 -0.00000000000E+00 -0.00000000000E+00 -0.20001899445E+04  0.20001899445E+04  0.00000000000E+00 0.  1.
          6    2    1    2  501    0  0.93302358786E+02  0.11960680392E+03 -0.65187785528E+03  0.69077555565E+03  0.17092399595E+03 0.  0.
         24    2    3    3    0    0  0.11100100211E+03  0.47383574359E+02 -0.51550765823E+03  0.53537813770E+03  0.79468100832E+02 0.  0.
         -6    2    1    2    0  502 -0.93302358786E+02 -0.11960680392E+03 -0.13189230613E+04  0.13388034168E+04  0.17270040372E+03 0.  0.
        -24    2    5    5    0    0 -0.56990800122E+02 -0.15242272509E+03 -0.10609904490E+04  0.10762263110E+04  0.77985263075E+02 0.  0.
          5    1    3    3  501    0 -0.17698643323E+02  0.72223229558E+02 -0.13637019705E+03  0.15539741795E+03  0.47000000000E+01 0. -1.
        -13    1    4    4    0    0  0.14017222520E+02 -0.21213226463E+02 -0.78670691162E+02  0.82677452501E+02  0.00000000000E+00 0.  1.
         14    1    4    4    0    0  0.96983779590E+02  0.68596800823E+02 -0.43683696707E+03  0.45270068520E+03  0.00000000000E+00 0. -1.
         -5    1    5    5    0  502 -0.36311558664E+02  0.32815921178E+02 -0.25793261234E+03  0.26257710579E+03  0.47000000000E+01 0.  1.
         11    1    6    6    0    0 -0.56238492736E+02 -0.15275070607E+03 -0.86199204922E+03  0.87722621894E+03  0.00000000000E+00 0. -1.
        -12    1    6    6    0    0 -0.75230738522E+00  0.32798097423E+00 -0.19899839978E+03  0.19900009209E+03  0.00000000000E+00 0.  1.
</event>
<event>
12    1  0.1039610E+000  0.1878083E+03  0.7818608E-02  0.1160459E+00
         21   -1    0    0  503  502  0.00000000000E+00  0.00000000000E+00  0.44145328766E+02  0.44145328766E+02  0.00000000000E+00 0. -1.
         21   -1    0    0  501  503 -0.00000000000E+00 -0.00000000000E+00 -0.80304574611E+03  0.80304574611E+03  0.00000000000E+00 0. -1.
          6    2    1    2  501    0 -0.41072946360E+02 -0.62983904437E+02 -0.40989621601E+03  0.45086304605E+03  0.17207155271E+03 0.  0.
         24    2    3    3    0    0  0.18835434361E+01 -0.50165797493E+02 -0.39063787374E+03  0.40184735848E+03  0.79769644215E+02 0.  0.
         -6    2    1    2    0  502  0.41072946360E+02  0.62983904437E+02 -0.34900420133E+03  0.39632802882E+03  0.17209885166E+03 0.  0.
        -24    2    5    5    0    0 -0.68305598434E+00  0.94764850811E+02 -0.19469490810E+03  0.23327269998E+03  0.86770973282E+02 0.  0.
          5    1    3    3  501    0 -0.42956489796E+02 -0.12818106944E+02 -0.19258342263E+02  0.49015687570E+02  0.47000000000E+01 0. -1.
        -11    1    4    4    0    0  0.13966390439E+02 -0.50492511558E+00 -0.86079728323E+01  0.16413781025E+02  0.00000000000E+00 0.  1.
         12    1    4    4    0    0 -0.12082847003E+02 -0.49660872378E+02 -0.38202990091E+03  0.38543357745E+03  0.00000000000E+00 0. -1.
         -5    1    5    5    0  502  0.41756002345E+02 -0.31780946374E+02 -0.15430929324E+03  0.16305532884E+03  0.47000000000E+01 0.  1.
         11    1    6    6    0    0  0.39318740133E+02  0.68343907760E+02 -0.10207239151E+03  0.12897916949E+03  0.00000000000E+00 0. -1.
        -12    1    6    6    0    0 -0.40001796117E+02  0.26420943051E+02 -0.92622516583E+02  0.10429353049E+03  0.00000000000E+00 0.  1.
</event>
<event>
12    1  0.1039610E+000  0.2622916E+03  0.7818608E-02  0.1105882E+00
         21   -1    0    0  503  502  0.00000000000E+00  0.00000000000E+00  0.80597615793E+02  0.80597615793E+02  0.00000000000E+00 0. -1.
         21   -1    0    0  501  503 -0.00000000000E+00 -0.00000000000E+00 -0.10662828546E+04  0.10662828546E+04  0.00000000000E+00 0.  1.
          6    2    1    2  501    0  0.12803928604E+03 -0.15015481610E+03 -0.75092535201E+03  0.79541545448E+03  0.17278985319E+03 0.  0.
         24    2    3    3    0    0  0.45510306161E+02 -0.59519883703E+02 -0.54512197134E+03  0.55582654616E+03  0.78558139394E+02 0.  0.
         -6    2    1    2    0  502 -0.12803928604E+03  0.15015481610E+03 -0.23475988683E+03  0.35146501594E+03  0.17168262988E+03 0.  0.
        -24    2    5    5    0    0 -0.25692950690E+02  0.55084485624E+02 -0.16938028656E+03  0.19716102303E+03  0.80550352309E+02 0.  0.
          5    1    3    3  501    0  0.82528979877E+02 -0.90634932401E+02 -0.20580338068E+03  0.23958890832E+03  0.47000000000E+01 0. -1.
        -13    1    4    4    0    0  0.64100526755E+02 -0.62696227349E+02 -0.45566905618E+03  0.46440713088E+03  0.00000000000E+00 0.  1.
         14    1    4    4    0    0 -0.18590220594E+02  0.31763436455E+01 -0.89452915158E+02  0.91419415284E+02  0.00000000000E+00 0. -1.
         -5    1    5    5    0  502 -0.10234633535E+03  0.95070330480E+02 -0.65379600267E+02  0.15430399291E+03  0.47000000000E+01 0.  1.
         13    1    6    6    0    0  0.13806327334E+02 -0.13616459282E+02 -0.18840180857E+02  0.27036550308E+02  0.00000000000E+00 0. -1.
        -14    1    6    6    0    0 -0.39499278023E+02  0.68700944906E+02 -0.15054010570E+03  0.17012447273E+03  0.00000000000E+00 0.  1.
</event>
<event>
12    1  0.1039610E+000  0.2363945E+03  0.7818608E-02  0.1122274E+00
         21   -1    0    0  501  502  0.00000000000E+00  0.00000000000E+00  0.15469296832E+03  0.15469296832E+03  0.00000000000E+00 0.  1.
         21   -1    0    0  502  503 -0.00000000000E+00 -0.00000000000E+00 -0.42580557164E+03  0.42580557164E+03  0.00000000000E+00 0.  1.
         -6    2    1    2    0  503  0.42002305160E+02  0.15692755775E+03 -0.22023098095E+02  0.23709217957E+03  0.17128115116E+03 0.  0.
        -24    2    3    3    0    0  0.61875956299E+02  0.12375695213E+03  0.43540724558E+02  0.16082976466E+03  0.69469427352E+02 0.  0.
          6    2    1    2  501    0 -0.42002305160E+02 -0.15692755775E+03 -0.24908950522E+03  0.34340636039E+03  0.17173204338E+03 0.  0.
         24    2    5    5    0    0 -0.89067610185E+02 -0.71891730565E+02 -0.13311591908E+03  0.19201878651E+03  0.77781143939E+02 0.  0.
          5    1    5    5  501    0  0.47065305025E+02 -0.85035827188E+02 -0.11597358614E+03  0.15138757388E+03  0.47000000000E+01 0. -1.
        -13    1    6    6    0    0 -0.85446536614E+02 -0.23973599787E+02 -0.99764581999E+02  0.13352458922E+03  0.00000000000E+00 0.  1.
         14    1    6    6    0    0 -0.36210735709E+01 -0.47918130778E+02 -0.33351337085E+02  0.58494197288E+02  0.00000000000E+00 0. -1.
         -5    1    3    3    0  503 -0.19873651139E+02  0.33170605618E+02 -0.65563822654E+02  0.76262414908E+02  0.47000000000E+01 0.  1.
         11    1    4    4    0    0  0.48986863246E+02  0.12753718172E+03  0.26560835954E+02  0.13917946507E+03  0.00000000000E+00 0. -1.
        -12    1    4    4    0    0  0.12889093053E+02 -0.37802295808E+01  0.16979888604E+02  0.21650299592E+02  0.00000000000E+00 0.  1.
</event>
<event>
12    1  0.1039610E+000  0.2095521E+03  0.7818608E-02  0.1142229E+00
         21   -1    0    0  503  502  0.00000000000E+00  0.00000000000E+00  0.54210705053E+02  0.54210705053E+02  0.00000000000E+00 0. -1.
         21   -1    0    0  501  503 -0.00000000000E+00 -0.00000000000E+00 -0.80773777866E+03  0.80773777866E+03  0.00000000000E+00 0. -1.
          6    2    1    2  501    0 -0.55761905534E+02  0.10299617726E+03 -0.34628779264E+03  0.40395732295E+03  0.17189729724E+03 0.  0.
         24    2    3    3    0    0 -0.34293407073E+02  0.57925134131E+01 -0.25195127832E+03  0.26673153593E+03  0.80353435708E+02 0.  0.
         -6    2    1    2    0  502  0.55761905534E+02 -0.10299617726E+03 -0.40723928097E+03  0.45799116076E+03  0.17376555679E+03 0.  0.
        -24    2    5    5    0    0  0.17619076159E+02 -0.31416903493E+02 -0.72714290566E+02  0.11374193843E+03  0.79701987657E+02 0.  0.
          5    1    3    3  501    0 -0.21468498461E+02  0.97203663849E+02 -0.94336514315E+02  0.13722578703E+03  0.47000000000E+01 0. -1.
        -13    1    4    4    0    0 -0.41952401307E+02 -0.11042261980E+02 -0.60812589748E+02  0.74700111090E+02  0.00000000000E+00 0.  1.
         14    1    4    4    0    0  0.76589942346E+01  0.16834775393E+02 -0.19113868857E+03  0.19203142484E+03  0.00000000000E+00 0. -1.
         -5    1    5    5    0  502  0.38142829375E+02 -0.71579273769E+02 -0.33452499040E+03  0.34424922232E+03  0.47000000000E+01 0.  1.
         13    1    6    6    0    0 -0.13555448115E+02 -0.46416444405E+02 -0.59589164419E+02  0.76740504305E+02  0.00000000000E+00 0. -1.
        -14    1    6    6    0    0  0.31174524274E+02  0.14999540911E+02 -0.13125126147E+02  0.37001434129E+02  0.00000000000E+00 0.  1.
</event>
<event>
12    1  0.1039610E+000  0.3232960E+03  0.7818608E-02  0.1074193E+00
         21   -1    0    0  503  502  0.00000000000E+00  0.00000000000E+00  0.58730433415E+03  0.58730433415E+03  0.00000000000E+00 0. -1.
         21   -1    0    0  501  503 -0.00000000000E+00 -0.00000000000E+00 -0.18571504448E+03  0.18571504448E+03  0.00000000000E+00 0. -1.
          6    2    1    2  501    0 -0.23913548626E+03 -0.13193622377E+03  0.28111335303E+03  0.42842152446E+03  0.17299519486E+03 0.  0.
         24    2    3    3    0    0 -0.21285222023E+03 -0.44940397231E+02  0.21295558198E+03  0.31472607309E+03  0.79854331304E+02 0.  0.
         -6    2    1    2    0  502  0.23913548626E+03  0.13193622377E+03  0.12047593664E+03  0.34459785417E+03  0.17216353233E+03 0.  0.
        -24    2    5    5    0    0  0.94481552571E+02  0.10192640152E+03  0.97035502792E+01  0.15988737385E+03  0.78447806375E+02 0.  0.
          5    1    3    3  501    0 -0.26283266023E+02 -0.86995826535E+02  0.68157771050E+02  0.11369545137E+03  0.47000000000E+01 0. -1.
        -11    1    4    4    0    0 -0.81534878672E+01  0.94857305635E+01 -0.23187234310E+01  0.12721435732E+02  0.00000000000E+00 0.  1.
         12    1    4    4    0    0 -0.20469873237E+03 -0.54426127795E+02  0.21527430541E+03  0.30200463736E+03  0.00000000000E+00 0. -1.
         -5    1    5    5    0  502  0.14465393368E+03  0.30009822245E+02  0.11077238636E+03  0.18471048033E+03  0.47000000000E+01 0.  1.
         11    1    6    6    0    0 -0.13099103998E+02  0.12010336600E+02 -0.61029689448E+01  0.18790448125E+02  0.00000000000E+00 0. -1.
        -12    1    6    6    0    0  0.10758065657E+03  0.89916064922E+02  0.15806519224E+02  0.14109692572E+03  0.00000000000E+00 0.  1.
</event>
<event>
12    1  0.1039610E+000  0.2555423E+03  0.7818608E-02  0.1109923E+00
         21   -1    0    0  503  502  0.00000000000E+00  0.00000000000E+00  0.14154972181E+03  0.14154972181E+03  0.00000000000E+00 0. -1.
         21   -1    0    0  501  503 -0.00000000000E+00 -0.00000000000E+00 -0.59412438282E+03  0.59412438282E+03  0.00000000000E+00 0. -1.
          6    2    1    2  501    0 -0.18344106355E+02 -0.18723545800E+03 -0.40057341079E+03  0.47489446369E+03  0.17225583080E+03 0.  0.
         24    2    3    3    0    0 -0.68570769154E+02 -0.10376792176E+03 -0.16580300167E+03  0.22067254831E+03  0.75736426157E+02 0.  0.
         -6    2    1    2    0  502  0.18344106355E+02  0.18723545800E+03 -0.52001250224E+02  0.26077964093E+03  0.17294007092E+03 0.  0.
        -24    2    5    5    0    0  0.28086628291E+02  0.14453023741E+03 -0.10086959426E+03  0.19498558612E+03  0.78529329134E+02 0.  0.
          5    1    3    3  501    0  0.50226662799E+02 -0.83467536246E+02 -0.23477040912E+03  0.25422191538E+03  0.47000000000E+01 0. -1.
        -13    1    4    4    0    0 -0.21423060134E+02 -0.42741639494E+02 -0.12412243969E+03  0.13301193663E+03  0.00000000000E+00 0.  1.
         14    1    4    4    0    0 -0.47147709021E+02 -0.61026282264E+02 -0.41680561980E+02  0.87660611678E+02  0.00000000000E+00 0. -1.
         -5    1    5    5    0  502 -0.97425219358E+01  0.42705220597E+02  0.48868344037E+02  0.65794054813E+02  0.47000000000E+01 0.  1.
         13    1    6    6    0    0 -0.19518863664E+02  0.32548698131E+02 -0.16640285597E+01  0.37989113965E+02  0.00000000000E+00 0. -1.
        -14    1    6    6    0    0  0.47605491955E+02  0.11198153928E+03 -0.99205565701E+02  0.15699647215E+03  0.00000000000E+00 0.  1.
</event>
<event>
12    1  0.1039610E+000  0.1795966E+03  0.7818608E-02  0.1169208E+00
         21   -1    0    0  501  502  0.00000000000E+00  0.00000000000E+00  0.29515267674E+03  0.29515267674E+03  0.00000000000E+00 0.  1.
         21   -1    0    0  502  503 -0.00000000000E+00 -0.00000000000E+00 -0.10932043751E+03  0.10932043751E+03  0.00000000000E+00 0.  1.
         -6    2    1    2    0  503  0.21058026631E+01 -0.32660347170E+02  0.63177493241E+02  0.19038472788E+03  0.17658940024E+03 0.  0.
        -24    2    3    3    0    0 -0.25889570375E+02 -0.84593495719E+02  0.51580675792E+02  0.13007412347E+03  0.80202132820E+02 0.  0.
          6    2    1    2  501    0 -0.21058026631E+01  0.32660347170E+02  0.12265474599E+03  0.21408838637E+03  0.17239059655E+03 0.  0.
         24    2    5    5    0    0  0.35990132712E+02  0.57312707857E+02  0.24136516885E+02  0.10552057048E+03  0.77278607729E+02 0.  0.
          5    1    5    5  501    0 -0.38095935375E+02 -0.24652360687E+02  0.98518229110E+02  0.10856781589E+03  0.47000000000E+01 0. -1.
        -11    1    6    6    0    0  0.31498767120E+02  0.75666902190E+02  0.27244790351E+02  0.86370892194E+02  0.00000000000E+00 0.  1.
         12    1    6    6    0    0  0.44913655921E+01 -0.18354194333E+02 -0.31082734664E+01  0.19149678286E+02  0.00000000000E+00 0. -1.
         -5    1    3    3    0  503  0.27995373038E+02  0.51933148549E+02  0.11596817449E+02  0.60310604414E+02  0.47000000000E+01 0.  1.
         11    1    4    4    0    0 -0.24614660991E+02 -0.70260992403E+02 -0.21210172657E+01  0.74478099489E+02  0.00000000000E+00 0. -1.
        -12    1    4    4    0    0 -0.12749093844E+01 -0.14332503316E+02  0.53701693057E+02  0.55596023981E+02  0.00000000000E+00 0.  1.
</event>
<event>
12    1  0.1039610E+000  0.2037763E+03  0.7818608E-02  0.1147714E+00
         21   -1    0    0  503  502  0.00000000000E+00  0.00000000000E+00  0.24059183666E+03  0.24059183666E+03  0.00000000000E+00 0.  1.
         21   -1    0    0  501  503 -0.00000000000E+00 -0.00000000000E+00 -0.38346348222E+03  0.38346348222E+03  0.00000000000E+00 0.  1.
          6    2    1    2  501    0 -0.95130921032E+02 -0.27462521148E+02  0.16199103311E+03  0.26031877018E+03  0.17810301821E+03 0.  0.
         24    2    3    3    0    0 -0.63494550103E+02 -0.16001984498E+02  0.79668633373E+01  0.10259198507E+03  0.78574952046E+02 0.  0.
         -6    2    1    2    0  502  0.95130921032E+02  0.27462521148E+02 -0.30486267867E+03  0.36373654869E+03  0.17192714098E+03 0.  0.
        -24    2    5    5    0    0  0.11511068448E+03  0.62429138663E+02 -0.26994466723E+03  0.31022755121E+03  0.78886900888E+02 0.  0.
          5    1    3    3  501    0 -0.31636370929E+02 -0.11460536650E+02  0.15402416978E+03  0.15772678511E+03  0.47000000000E+01 0. -1.
        -13    1    4    4    0    0  0.88337716005E+01  0.19409374147E+02 -0.21238384310E+01  0.21430585973E+02  0.00000000000E+00 0.  1.
         14    1    4    4    0    0 -0.72328321704E+02 -0.35411358645E+02  0.10090701768E+02  0.81161399099E+02  0.00000000000E+00 0. -1.
         -5    1    5    5    0  502 -0.19979763453E+02 -0.34966617514E+02 -0.34918011447E+02  0.53508997481E+02  0.47000000000E+01 0.  1.
         13    1    6    6    0    0  0.98166266794E+02  0.75607088381E+02 -0.18535154764E+03  0.22295345694E+03  0.00000000000E+00 0. -1.
        -14    1    6    6    0    0  0.16944417691E+02 -0.13177949719E+02 -0.84593119588E+02  0.87274094274E+02  0.00000000000E+00 0.  1.
</event>
<event>
12    1  0.1039610E+000  0.2459568E+03  0.7818608E-02  0.1116081E+00
         21   -1    0    0  501  502  0.00000000000E+00  0.00000000000E+00  0.15153682608E+03  0.15153682608E+03  0.00000000000E+00 0.  1.
         21   -1    0    0  502  503 -0.00000000000E+00 -0.00000000000E+00 -0.40342892389E+03  0.40342892389E+03  0.00000000000E+00 0.  1.
         -6    2    1    2    0  503 -0.14988366915E+03 -0.92257697153E+02 -0.91339964967E+02  0.26124528452E+03  0.17008677939E+03 0.  0.
        -24    2    3    3    0    0 -0.11513496552E+03  0.46812555992E+01 -0.74447633643E+02  0.15678441232E+03  0.75900773061E+02 0.  0.
          6    2    1    2  501    0  0.14988366915E+03  0.92257697153E+02 -0.16055213284E+03  0.29372046545E+03  0.17180840347E+03 0.  0.
         24    2    5    5    0    0  0.82811721365E+00  0.46426011717E+02 -0.53886199597E+02  0.10472889879E+03  0.76865853232E+02 0.  0.
          5    1    5    5  501    0  0.14905555193E+03  0.45831685437E+02 -0.10666593324E+03  0.18899156666E+03  0.47000000000E+01 0. -1.
        -11    1    6    6    0    0  0.34374223270E+02  0.24085226725E+01 -0.20541771772E+02  0.40116737086E+02  0.00000000000E+00 0.  1.
         12    1    6    6    0    0 -0.33546106057E+02  0.44017489044E+02 -0.33344427825E+02  0.64612161706E+02  0.00000000000E+00 0. -1.
         -5    1    3    3    0  503 -0.34748703630E+02 -0.96938952752E+02 -0.16892331323E+02  0.10446087221E+03  0.47000000000E+01 0.  1.
         13    1    4    4    0    0 -0.11949312798E+03 -0.75481672957E+01 -0.51329181544E+02  0.13026997866E+03  0.00000000000E+00 0. -1.
        -14    1    4    4    0    0  0.43581624594E+01  0.12229422895E+02 -0.23118452099E+02  0.26514433651E+02  0.00000000000E+00 0.  1.
</event>
<event>
12    1  0.1039610E+000  0.1783942E+03  0.7818608E-02  0.1169643E+00
         21   -1    0    0  503  502  0.00000000000E+00  0.00000000000E+00  0.12979442124E+03  0.12979442124E+03  0.00000000000E+00 0. -1.
         21   -1    0    0  501  503 -0.00000000000E+00 -0.00000000000E+00 -0.37188715873E+03  0.37188715873E+03  0.00000000000E+00 0. -1.
          6    2    1    2  501    0  0.27969916539E+02  0.36571215070E+02  0.26504126147E+02  0.17923970607E+03  0.17118596183E+03 0.  0.
         24    2    3    3    0    0  0.35802416692E+02 -0.41751935266E+02  0.28134472138E+02  0.10036884982E+03  0.79103225930E+02 0.  0.
         -6    2    1    2    0  502 -0.27969916539E+02 -0.36571215070E+02 -0.26859686364E+03  0.32244187390E+03  0.17235056393E+03 0.  0.
        -24    2    5    5    0    0 -0.24549217703E+02  0.84099312091E+01 -0.26440582177E+03  0.27689344327E+03  0.78013776399E+02 0.  0.
          5    1    3    3  501    0 -0.78325001527E+01  0.78323150336E+02 -0.16303459911E+01  0.78870856248E+02  0.47000000000E+01 0. -1.
        -11    1    4    4    0    0  0.52237129401E+02 -0.31303220856E+02 -0.58718419109E+01  0.61180780082E+02  0.00000000000E+00 0.  1.
         12    1    4    4    0    0 -0.16434712710E+02 -0.10448714411E+02  0.34006314049E+02  0.39188069739E+02  0.00000000000E+00 0. -1.
         -5    1    5    5    0  502 -0.34206988366E+01 -0.44981146279E+02 -0.41910418664E+01  0.45548430632E+02  0.47000000000E+01 0.  1.
         13    1    6    6    0    0 -0.89672803699E+01  0.29763341896E+02 -0.38668831354E+02  0.49613981461E+02  0.00000000000E+00 0. -1.
        -14    1    6    6    0    0 -0.15581937333E+02 -0.21353410687E+02 -0.22573699042E+03  0.22727946181E+03  0.00000000000E+00 0.  1.
</event>
<event>
12    1  0.1039610E+000  0.2875427E+03  0.7818608E-02  0.1091664E+00
         21   -1    0    0  503  502  0.00000000000E+00  0.00000000000E+00  0.80521433228E+02  0.80521433228E+02  0.00000000000E+00 0. -1.
         21   -1    0    0  501  503 -0.00000000000E+00 -0.00000000000E+00 -0.10318654155E+04  0.10318654155E+04  0.00000000000E+00 0. -1.
          6    2    1    2  501    0 -0.61544162232E+02 -0.22177373294E+03 -0.51689007384E+03  0.59139642095E+03  0.17205553098E+03 0.  0.
         24    2    3    3    0    0 -0.91148817183E+01 -0.20155578081E+03 -0.47081028698E+03  0.51857450253E+03  0.80928205889E+02 0.  0.
         -6    2    1    2    0  502  0.61544162232E+02  0.22177373294E+03 -0.43445390846E+03  0.52099042781E+03  0.17236459836E+03 0.  0.
        -24    2    5    5    0    0  0.48097544743E+01  0.78254491072E+02 -0.28414703290E+03  0.30551232533E+03  0.80320268361E+02 0.  0.
          5    1    3    3  501    0 -0.52429280513E+02 -0.20217952134E+02 -0.46079786867E+02  0.72821918413E+02  0.47000000000E+01 0. -1.
        -13    1    4    4    0    0 -0.44962067210E+02 -0.10075301442E+03 -0.24560135012E+03  0.26924483390E+03  0.00000000000E+00 0.  1.
         14    1    4    4    0    0  0.35847185492E+02 -0.10080276639E+03 -0.22520893686E+03  0.24932966864E+03  0.00000000000E+00 0. -1.
         -5    1    5    5    0  502  0.56734407757E+02  0.14351924187E+03 -0.15030687556E+03  0.21547810249E+03  0.47000000000E+01 0.  1.
         13    1    6    6    0    0  0.27477981320E+02  0.56673077230E+01 -0.34104283069E+02  0.44161747677E+02  0.00000000000E+00 0. -1.
        -14    1    6    6    0    0 -0.22668226845E+02  0.72587183349E+02 -0.25004274983E+03  0.26135057765E+03  0.00000000000E+00 0.  1.
</event>
<event>
12    1  0.1039610E+000  0.1867673E+03  0.7818608E-02  0.1161462E+00
         21   -1    0    0  503  502  0.00000000000E+00  0.00000000000E+00  0.56176662574E+02  0.56176662574E+02  0.00000000000E+00 0.  1.
         21   -1    0    0  501  503 -0.00000000000E+00 -0.00000000000E+00 -0.69232175758E+03  0.69232175758E+03  0.00000000000E+00 0.  1.
          6    2    1    2  501    0 -0.35411991485E+01 -0.72370741247E+02 -0.19708651483E+03  0.27136691665E+03  0.17189195689E+03 0.  0.
         24    2    3    3    0    0 -0.13104052970E+02 -0.14492844305E+02 -0.20155887376E+02  0.84905563925E+02  0.80130744718E+02 0.  0.
         -6    2    1    2    0  502  0.35411991485E+01  0.72370741247E+02 -0.43905858017E+03  0.47713150351E+03  0.17213939274E+03 0.  0.
        -24    2    5    5    0    0  0.89257298671E+01  0.89780742720E+02 -0.17766038373E+03  0.21505668895E+03  0.80906842088E+02 0.  0.
          5    1    3    3  501    0  0.95628538217E+01 -0.57877896942E+02 -0.17693062746E+03  0.18646135272E+03  0.47000000000E+01 0. -1.
        -13    1    4    4    0    0 -0.31642873209E+02 -0.22986712260E+02 -0.40358689136E+02  0.56200392829E+02  0.00000000000E+00 0.  1.
         14    1    4    4    0    0  0.18538820239E+02  0.84938679544E+01  0.20202801760E+02  0.28705171095E+02  0.00000000000E+00 0. -1.
         -5    1    5    5    0  502 -0.53845307185E+01 -0.17410001473E+02 -0.26139819645E+03  0.26207481456E+03  0.47000000000E+01 0.  1.
         13    1    6    6    0    0 -0.28216697583E+02  0.59448837038E+02 -0.64452743201E+02  0.92111358441E+02  0.00000000000E+00 0. -1.
        -14    1    6    6    0    0  0.37142427450E+02  0.30331905682E+02 -0.11320764053E+03  0.12294533051E+03  0.00000000000E+00 0.  1.
</event>
<event>
12    1  0.1039610E+000  0.2243702E+03  0.7818608E-02  0.1131090E+00
         21   -1    0    0  503  502  0.00000000000E+00  0.00000000000E+00  0.15375808539E+04  0.15375808539E+04  0.00000000000E+00 0. -1.
         21   -1    0    0  501  503 -0.00000000000E+00 -0.00000000000E+00 -0.32557265957E+02  0.32557265957E+02  0.00000000000E+00 0. -1.
          6    2    1    2  501    0  0.92889960892E+02  0.10517682520E+03  0.80258866276E+03  0.83273944293E+03  0.17209215212E+03 0.  0.
         24    2    3    3    0    0  0.12791276097E+03  0.65836715065E+02  0.66641947190E+03  0.68666282149E+03  0.81821576723E+02 0.  0.
         -6    2    1    2    0  502 -0.92889960892E+02 -0.10517682520E+03  0.70243492518E+03  0.73739867693E+03  0.17507505598E+03 0.  0.
        -24    2    5    5    0    0  0.15343565957E+02 -0.15019770335E+02  0.27227435690E+03  0.28473655638E+03  0.80501941566E+02 0.  0.
          5    1    3    3  501    0 -0.35022800082E+02  0.39340110137E+02  0.13616919086E+03  0.14607662143E+03  0.47000000000E+01 0. -1.
        -11    1    4    4    0    0  0.18359097192E+02  0.40287775518E+02  0.10283056417E+03  0.11195662657E+03  0.00000000000E+00 0.  1.
         12    1    4    4    0    0  0.10955366378E+03  0.25548939547E+02  0.56358890773E+03  0.57470619492E+03  0.00000000000E+00 0. -1.
         -5    1    5    5    0  502 -0.10823352685E+03 -0.90157054867E+02  0.43016056829E+03  0.45266212056E+03  0.47000000000E+01 0.  1.
         11    1    6    6    0    0 -0.56478772020E+01 -0.26913303442E+02  0.25120316320E+03  0.25270388525E+03  0.00000000000E+00 0. -1.
        -12    1    6    6    0    0  0.20991443159E+02  0.11893533107E+02  0.21071193700E+02  0.32032671128E+02  0.00000000000E+00 0.  1.
</event>
<event>
12    1  0.1039610E+000  0.1864892E+03  0.7818608E-02  0.1161876E+00
         21   -1    0    0  501  502  0.00000000000E+00  0.00000000000E+00  0.43129029316E+02  0.43129029316E+02  0.00000000000E+00 0. -1.
         21   -1    0    0  502  503 -0.00000000000E+00 -0.00000000000E+00 -0.12573757700E+04  0.12573757700E+04  0.00000000000E+00 0. -1.
         -6    2    1    2    0  503 -0.13118389480E+02  0.58646486621E+02 -0.99918561563E+03  0.10164399309E+04  0.17654103223E+03 0.  0.
        -24    2    3    3    0    0 -0.87552721786E+01  0.23754338560E+02 -0.20520837127E+03  0.22167049679E+03  0.79915018102E+02 0.  0.
          6    2    1    2  501    0  0.13118389480E+02 -0.58646486621E+02 -0.21506112505E+03  0.28406486844E+03  0.17558490663E+03 0.  0.
         24    2    5    5    0    0  0.25615349364E+02  0.35302337796E+01 -0.25680174796E+02  0.84291614758E+02  0.76006554109E+02 0.  0.
          5    1    5    5  501    0 -0.12496959883E+02 -0.62176720401E+02 -0.18938095025E+03  0.19977325368E+03  0.47000000000E+01 0. -1.
        -13    1    6    6    0    0  0.23656860493E+02  0.38358579290E+02 -0.10651296227E+02  0.46308506398E+02  0.00000000000E+00 0.  1.
         14    1    6    6    0    0  0.19584888706E+01 -0.34828345510E+02 -0.15028878569E+02  0.37983108360E+02  0.00000000000E+00 0. -1.
         -5    1    3    3    0  503 -0.43631173017E+01  0.34892148061E+02 -0.79397724436E+03  0.79476943408E+03  0.47000000000E+01 0.  1.
         13    1    4    4    0    0 -0.43983188534E+02  0.63084580420E+01 -0.10389331205E+03  0.11299618491E+03  0.00000000000E+00 0. -1.
        -14    1    4    4    0    0  0.35227916355E+02  0.17445880518E+02 -0.10131505922E+03  0.10867431188E+03  0.00000000000E+00 0.  1.
</event>
<event>
12    1  0.1039610E+000  0.1757354E+03  0.7818608E-02  0.1172019E+00
         21   -1    0    0  503  502  0.00000000000E+00  0.00000000000E+00  0.37325322095E+03  0.37325322095E+03  0.00000000000E+00 0. -1.
         21   -1    0    0  501  503 -0.00000000000E+00 -0.00000000000E+00 -0.94343581457E+02  0.94343581457E+02  0.00000000000E+00 0. -1.
          6    2    1    2  501    0 -0.28802463355E+01 -0.37828029933E+02  0.22157318840E+03  0.28274444921E+03  0.17149486895E+03 0.  0.
         24    2    3    3    0    0 -0.22524422535E+02  0.33435443084E+02  0.17160255007E+03  0.19339384239E+03  0.79551647484E+02 0.  0.
         -6    2    1    2    0  502  0.28802463355E+01  0.37828029933E+02  0.57336451092E+02  0.18485235319E+03  0.17159157377E+03 0.  0.
        -24    2    5    5    0    0  0.36460719363E+02 -0.22494577020E+02  0.70366886943E+02  0.11443681984E+03  0.79428564799E+02 0.  0.
          5    1    3    3  501    0  0.19644176199E+02 -0.71263473017E+02  0.49970638327E+02  0.89350606824E+02  0.47000000000E+01 0. -1.
        -13    1    4    4    0    0  0.19523559820E+02  0.93950954491E+01  0.12257796369E+03  0.12447808799E+03  0.00000000000E+00 0.  1.
         14    1    4    4    0    0 -0.42047982354E+02  0.24040347635E+02  0.49024586378E+02  0.68915754396E+02  0.00000000000E+00 0. -1.
         -5    1    5    5    0  502 -0.33580473028E+02  0.60322606953E+02 -0.13030435851E+02  0.70415533349E+02  0.47000000000E+01 0.  1.
         13    1    6    6    0    0 -0.44181378895E+01 -0.17814665744E+02 -0.12301062949E+02  0.22095212324E+02  0.00000000000E+00 0. -1.
        -14    1    6    6    0    0  0.40878857253E+02 -0.46799112765E+01  0.82667949893E+02  0.92341607519E+02  0.00000000000E+00 0.  1.
</event>
<event>
12    1  0.1039610E+000  0.1802899E+03  0.7818608E-02  0.1167861E+00
         21   -1    0    0  503  502  0.00000000000E+00  0.00000000000E+00  0.16241328596E+03  0.16241328596E+03  0.00000000000E+00 0.  1.
         21   -1    0    0  501  503 -0.00000000000E+00 -0.00000000000E+00 -0.19860960846E+03  0.19860960846E+03  0.00000000000E+00 0.  1.
          6    2    1    2  501    0  0.49007186258E+02 -0.13953617720E+02 -0.16246669716E+02  0.17963265580E+03  0.17148623560E+03 0.  0.
         24    2    3    3    0    0  0.92818293617E+01 -0.34282153177E+02 -0.68818883059E+02  0.11051477859E+03  0.78841989053E+02 0.  0.
         -6    2    1    2    0  502 -0.49007186258E+02  0.13953617720E+02 -0.19949652779E+02  0.18139023863E+03  0.17293936010E+03 0.  0.
        -24    2    5    5    0    0 -0.92189812115E+02  0.39898429187E+02 -0.12017820417E+02  0.13017621337E+03  0.81918083542E+02 0.  0.
          5    1    3    3  501    0  0.39725356896E+02  0.20328535457E+02  0.52572213343E+02  0.69117877211E+02  0.47000000000E+01 0. -1.
        -11    1    4    4    0    0 -0.71822724575E+01  0.20044483540E+02 -0.43349217888E+02  0.48296180486E+02  0.00000000000E+00 0.  1.
         12    1    4    4    0    0  0.16464101819E+02 -0.54326636717E+02 -0.25469665171E+02  0.62218598101E+02  0.00000000000E+00 0. -1.
         -5    1    5    5    0  502  0.43182625857E+02 -0.25944811467E+02 -0.79318323618E+01  0.51214025253E+02  0.47000000000E+01 0.  1.
         11    1    6    6    0    0 -0.30696728496E+02  0.56008396644E+02  0.58728729810E+01  0.64138290217E+02  0.00000000000E+00 0. -1.
        -12    1    6    6    0    0 -0.61493083619E+02 -0.16109967457E+02 -0.17890693398E+02  0.66037923156E+02  0.00000000000E+00 0.  1.
</event>
<event>
12    1  0.1039610E+000  0.3987134E+03  0.7818608E-02  0.1044922E+00
         21   -1    0    0  503  502  0.00000000000E+00  0.00000000000E+00  0.67470575841E+03  0.67470575841E+03  0.00000000000E+00 0.  1.
         21   -1    0    0  501  503 -0.00000000000E+00 -0.00000000000E+00 -0.34893143987E+03  0.34893143987E+03  0.00000000000E+00 0.  1.
          6    2    1    2  501    0  0.28919641156E+02  0.35971267391E+03  0.46156295455E+03  0.60992847997E+03  0.16953712350E+03 0.  0.
         24    2    3    3    0    0  0.19114159845E+02  0.71550524461E+02  0.15121403418E+03  0.18628698741E+03  0.79701498658E+02 0.  0.
         -6    2    1    2    0  502 -0.28919641156E+02 -0.35971267391E+03 -0.13578863601E+03  0.41370871832E+03  0.14995598195E+03 0.  0.
        -24    2    5    5    0    0 -0.67885000078E+02 -0.21737342539E+03 -0.10212094201E+03  0.26226775793E+03  0.80598453752E+02 0.  0.
          5    1    3    3  501    0  0.98054813112E+01  0.28816214945E+03  0.31034892037E+03  0.42364149256E+03  0.47000000000E+01 0. -1.
        -13    1    4    4    0    0  0.45404193097E+02  0.59921393993E+02  0.13135220139E+03  0.15134568054E+03  0.00000000000E+00 0.  1.
         14    1    4    4    0    0 -0.26290033252E+02  0.11629130467E+02  0.19861832788E+02  0.34941306866E+02  0.00000000000E+00 0. -1.
         -5    1    5    5    0  502  0.38965358922E+02 -0.14233924852E+03 -0.33667693999E+02  0.15144096039E+03  0.47000000000E+01 0.  1.
         11    1    6    6    0    0 -0.59401527595E+01 -0.14925763994E+03 -0.59098733575E+02  0.16064180280E+03  0.00000000000E+00 0. -1.
        -12    1    6    6    0    0 -0.61944847319E+02 -0.68115785451E+02 -0.43022208437E+02  0.10162595513E+03  0.00000000000E+00 0.  1.
</event>
<event>
12    1  0.1039610E+000  0.2476493E+03  0.7818608E-02  0.1114855E+00
         21   -1    0    0  501  502  0.00000000000E+00  0.00000000000E+00  0.10159296205E+03  0.10159296205E+03  0.00000000000E+00 0. -1.
         21   -1    0    0  502  503 -0.00000000000E+00 -0.00000000000E+00 -0.63075770237E+03  0.63075770237E+03  0.00000000000E+00 0. -1.
         -6    2    1    2    0  503 -0.15358264398E+02  0.17735185460E+03 -0.18735659479E+03  0.31025707844E+03  0.17166072495E+03 0.  0.
        -24    2    3    3    0    0 -0.12910646008E+01  0.19590493383E+03 -0.13000123280E+03  0.24817785157E+03  0.79445047243E+02 0.  0.
          6    2    1    2  501    0  0.15358264398E+02 -0.17735185460E+03 -0.34180814553E+03  0.42209358598E+03  0.17216454443E+03 0.  0.
         24    2    5    5    0    0  0.40251176831E+02 -0.27715258449E+02 -0.15674242973E+03  0.18275663279E+03  0.80271444263E+02 0.  0.
          5    1    5    5  501    0 -0.24892912433E+02 -0.14963659615E+03 -0.18506571580E+03  0.23933695319E+03  0.47000000000E+01 0. -1.
        -13    1    6    6    0    0  0.47806097445E+02 -0.46830603636E+02 -0.85314223208E+02  0.10842990857E+03  0.00000000000E+00 0.  1.
         14    1    6    6    0    0 -0.75549206142E+01  0.19115345187E+02 -0.71428206525E+02  0.74326724228E+02  0.00000000000E+00 0. -1.
         -5    1    3    3    0  503 -0.14067199798E+02 -0.18553079231E+02 -0.57355361997E+02  0.62079226871E+02  0.47000000000E+01 0.  1.
         11    1    4    4    0    0 -0.28873517594E+02  0.90774957057E+02 -0.93624313984E+02  0.13356378632E+03  0.00000000000E+00 0. -1.
        -12    1    4    4    0    0  0.27582452993E+02  0.10512997678E+03 -0.36376918812E+02  0.11461406525E+03  0.00000000000E+00 0.  1.
</event>
<event>
12    1  0.1039610E+000  0.2598126E+03  0.7818608E-02  0.1107498E+00
         21   -1    0    0  503  502  0.00000000000E+00  0.00000000000E+00  0.59460340219E+02  0.59460340219E+02  0.00000000000E+00 0.  1.
         21   -1    0    0  501  503 -0.00000000000E+00 -0.00000000000E+00 -0.11651128019E+04  0.11651128019E+04  0.00000000000E+00 0.  1.
          6    2    1    2  501    0 -0.18733402823E+03  0.53616998097E+02 -0.44557300186E+03  0.51578860989E+03  0.17185391905E+03 0.  0.
         24    2    3    3    0    0 -0.10289581541E+03 -0.34808026428E+02 -0.27214236195E+03  0.30354093946E+03  0.79224296950E+02 0.  0.
         -6    2    1    2    0  502  0.18733402823E+03 -0.53616998097E+02 -0.66007945986E+03  0.70878453226E+03  0.16941605363E+03 0.  0.
        -24    2    5    5    0    0  0.16882114698E+03 -0.67896415996E+02 -0.65383211000E+03  0.68413198822E+03  0.86195395874E+02 0.  0.
          5    1    3    3  501    0 -0.84438212814E+02  0.88425024525E+02 -0.17343063991E+03  0.21224767044E+03  0.47000000000E+01 0. -1.
        -13    1    4    4    0    0 -0.13744738459E+02  0.23312748386E+02 -0.70933321034E+02  0.75920603959E+02  0.00000000000E+00 0.  1.
         14    1    4    4    0    0 -0.89151076953E+02 -0.58120774815E+02 -0.20120904091E+03  0.22762033550E+03  0.00000000000E+00 0. -1.
         -5    1    5    5    0  502  0.18512881246E+02  0.14279417900E+02 -0.62473498670E+01  0.24652544046E+02  0.47000000000E+01 0.  1.
         13    1    6    6    0    0  0.14421079434E+03 -0.51169338358E+02 -0.39514205846E+03  0.42373612161E+03  0.00000000000E+00 0. -1.
        -14    1    6    6    0    0  0.24610352636E+02 -0.16727077639E+02 -0.25869005154E+03  0.26039586661E+03  0.00000000000E+00 0.  1.
</event>
<event>
12    1  0.1039610E+000  0.4426138E+03  0.7818608E-02  0.1030047E+00
         21   -1    0    0  503  502  0.00000000000E+00  0.00000000000E+00  0.11301130689E+03  0.11301130689E+03  0.00000000000E+00 0. -1.
         21   -1    0    0  501  503 -0.00000000000E+00 -0.00000000000E+00 -0.18708399901E+04  0.18708399901E+04  0.00000000000E+00 0. -1.
          6    2    1    2  501    0  0.38695232409E+03  0.12863561015E+03 -0.11537899929E+04  0.12357743958E+04  0.17212724426E+03 0.  0.
         24    2    3    3    0    0  0.22579739929E+03  0.14322229811E+03 -0.78078931164E+03  0.82915998448E+03  0.79857613837E+02 0.  0.
         -6    2    1    2    0  502 -0.38695232409E+03 -0.12863561015E+03 -0.60403869028E+03  0.74807690118E+03  0.16875156120E+03 0.  0.
        -24    2    5    5    0    0 -0.31259871769E+03 -0.87181536743E+02 -0.36537369583E+03  0.49464058065E+03  0.76503514781E+02 0.  0.
          5    1    3    3  501    0  0.16115492480E+03 -0.14586687960E+02 -0.37300068129E+03  0.40661441133E+03  0.47000000000E+01 0. -1.
        -11    1    4    4    0    0  0.11017840331E+03  0.24098018160E+02 -0.33389618083E+03  0.35242964491E+03  0.00000000000E+00 0.  1.
         12    1    4    4    0    0  0.11561899598E+03  0.11912427995E+03 -0.44689313081E+03  0.47673033957E+03  0.00000000000E+00 0. -1.
         -5    1    5    5    0  502 -0.74353606402E+02 -0.41454073406E+02 -0.23866499445E+03  0.25343632053E+03  0.47000000000E+01 0.  1.
         11    1    6    6    0    0 -0.31034027727E+03 -0.95321160517E+02 -0.35229285833E+03  0.47906937845E+03  0.00000000000E+00 0. -1.
        -12    1    6    6    0    0 -0.22584404193E+01  0.81396237740E+01 -0.13080837503E+02  0.15571202205E+02  0.00000000000E+00 0.  1.
</event>
<event>
12    1  0.1039610E+000  0.2234010E+03  0.7818608E-02  0.1131455E+00
         21   -1    0    0  503  502  0.00000000000E+00  0.00000000000E+00  0.62543304004E+02  0.62543304004E+02  0.00000000000E+00 0. -1.
         21   -1    0    0  501  503 -0.00000000000E+00 -0.00000000000E+00 -0.80427047760E+03  0.80427047760E+03  0.00000000000E+00 0. -1.
          6    2    1    2  501    0 -0.67811730354E+02  0.12439228002E+03 -0.41346461761E+03  0.46974413454E+03  0.17214729686E+03 0.  0.
         24    2    3    3    0    0 -0.42896361189E+01  0.10574044368E+03 -0.16484297182E+03  0.21241601674E+03  0.82145702274E+02 0.  0.
         -6    2    1    2    0  502  0.67811730354E+02 -0.12439228002E+03 -0.32826255598E+03  0.39706964706E+03  0.17273137774E+03 0.  0.
        -24    2    5    5    0    0  0.48816821913E+02 -0.14061897819E+01 -0.19979032988E+03  0.21814623379E+03  0.72708623494E+02 0.  0.
          5    1    3    3  501    0 -0.63522094235E+02  0.18651836340E+02 -0.24862164579E+03  0.25732811780E+03  0.47000000000E+01 0. -1.
        -13    1    4    4    0    0 -0.38650703228E+02  0.83396475007E+02 -0.12585801753E+03  0.15584957324E+03  0.00000000000E+00 0.  1.
         14    1    4    4    0    0  0.34361067109E+02  0.22343968670E+02 -0.38984954292E+02  0.56566443497E+02  0.00000000000E+00 0. -1.
         -5    1    5    5    0  502  0.18994908441E+02 -0.12298609024E+03 -0.12847222610E+03  0.17892341327E+03  0.47000000000E+01 0.  1.
         11    1    6    6    0    0  0.13100171853E+02  0.75280523716E+01 -0.11967678994E+00  0.15109612756E+02  0.00000000000E+00 0. -1.
        -12    1    6    6    0    0  0.35716650060E+02 -0.89342421534E+01 -0.19967065309E+03  0.20303662103E+03  0.00000000000E+00 0.  1.
</event>
<event>
12    1  0.1039610E+000  0.1856713E+03  0.7818608E-02  0.1163000E+00
         21   -1    0    0  501  502  0.00000000000E+00  0.00000000000E+00  0.10519164983E+03  0.10519164983E+03  0.00000000000E+00 0. -1.
         21   -1    0    0  502  503 -0.00000000000E+00 -0.00000000000E+00 -0.67352293110E+03  0.67352293110E+03  0.00000000000E+00 0. -1.
         -6    2    1    2    0  503  0.42735369903E+02  0.46630308247E+02 -0.56397937093E+03  0.59299229588E+03  0.17194893036E+03 0.  0.
        -24    2    3    3    0    0  0.76100072575E+02  0.75596451855E+02 -0.49738943546E+03  0.51293887393E+03  0.64838208675E+02 0.  0.
          6    2    1    2  501    0 -0.42735369903E+02 -0.46630308247E+02 -0.43519103288E+01  0.18572228505E+03  0.17456554801E+03 0.  0.
         24    2    5    5    0    0  0.46808154608E+02 -0.31209006947E+02 -0.84822028330E+01  0.94645347067E+02  0.75635894284E+02 0.  0.
          5    1    5    5  501    0 -0.89543524511E+02 -0.15421301300E+02  0.41302925042E+01  0.91076937980E+02  0.47000000000E+01 0. -1.
        -13    1    6    6    0    0 -0.15045733340E+02 -0.17376564677E+02 -0.19707688795E+02  0.30277253663E+02  0.00000000000E+00 0.  1.
         14    1    6    6    0    0  0.61853887948E+02 -0.13832442270E+02  0.11225485962E+02  0.64368093404E+02  0.00000000000E+00 0. -1.
         -5    1    3    3    0  503 -0.33364702672E+02 -0.28966143608E+02 -0.66589935475E+02  0.80053421953E+02  0.47000000000E+01 0.  1.
         13    1    4    4    0    0  0.27733581642E+02  0.71085513230E+02 -0.32490147523E+03  0.33374132251E+03  0.00000000000E+00 0. -1.
        -14    1    4    4    0    0  0.48366490933E+02  0.45109386246E+01 -0.17248796023E+03  0.17919755142E+03  0.00000000000E+00 0.  1.
</event>
<event>
12    1  0.1039610E+000  0.1950125E+03  0.7818608E-02  0.1154799E+00
         21   -1    0    0  501  502  0.00000000000E+00  0.00000000000E+00  0.12263267369E+03  0.12263267369E+03  0.00000000000E+00 0.  1.
         21   -1    0    0  502  503 -0.00000000000E+00 -0.00000000000E+00 -0.45391595646E+03  0.45391595646E+03  0.00000000000E+00 0.  1.
         -6    2    1    2    0  503 -0.88283485982E+02  0.80125773681E+01 -0.33001573820E+03  0.38153204057E+03  0.16970013327E+03 0.  0.
        -24    2    3    3    0    0 -0.43485603722E+02 -0.58932395515E+02 -0.16153565329E+03  0.19472703887E+03  0.80379272281E+02 0.  0.
          6    2    1    2  501    0  0.88283485982E+02 -0.80125773681E+01 -0.12675445734E+01  0.19501658958E+03  0.17369999496E+03 0.  0.
         24    2    5    5    0    0  0.24469800713E+01  0.47286526593E+02 -0.58538727176E+00  0.92798919954E+02  0.79807853984E+02 0.  0.
          5    1    5    5  501    0  0.85836505910E+02 -0.55299103961E+02 -0.68215730168E+00  0.10221766963E+03  0.47000000000E+01 0. -1.
        -11    1    6    6    0    0 -0.30427432411E+02  0.20226770210E+02  0.23921214959E+02  0.43671219372E+02  0.00000000000E+00 0.  1.
         12    1    6    6    0    0  0.32874412483E+02  0.27059756383E+02 -0.24506602231E+02  0.49127700582E+02  0.00000000000E+00 0. -1.
         -5    1    3    3    0  503 -0.44797882260E+02  0.66944972883E+02 -0.16848008491E+03  0.18680500170E+03  0.47000000000E+01 0.  1.
         11    1    4    4    0    0 -0.27395070416E+01 -0.30829046143E+00  0.92327293544E+01  0.96355193514E+01  0.00000000000E+00 0. -1.
        -12    1    4    4    0    0 -0.40746096680E+02 -0.58624105053E+02 -0.17076838264E+03  0.18509151952E+03  0.00000000000E+00 0.  1.
</event>
<event>
12    1  0.1039610E+000  0.1786908E+03  0.7818608E-02  0.1169224E+00
         21   -1    0    0  503  502  0.00000000000E+00  0.00000000000E+00  0.36945275207E+03  0.36945275207E+03  0.00000000000E+00 0.  1.
         21   -1    0    0  501  503 -0.00000000000E+00 -0.00000000000E+00 -0.12508591538E+03  0.12508591538E+03  0.00000000000E+00 0.  1.
          6    2    1    2  501    0  0.32370072790E+01  0.48567917794E+02 -0.15657367069E+02  0.17937546192E+03  0.17193336599E+03 0.  0.
         24    2    3    3    0    0  0.45925256166E+02  0.21929667418E+02 -0.60424129860E+02  0.11186223339E+03  0.79196239320E+02 0.  0.
         -6    2    1    2    0  502 -0.32370072790E+01 -0.48567917794E+02  0.26002420376E+03  0.31516320552E+03  0.17130656357E+03 0.  0.
        -24    2    5    5    0    0 -0.15519956318E+02  0.33943185802E+02  0.17023865982E+03  0.19251538877E+03  0.81779977438E+02 0.  0.
          5    1    3    3  501    0 -0.42688248886E+02  0.26638250376E+02  0.44766762791E+02  0.67513228532E+02  0.47000000000E+01 0. -1.
        -11    1    4    4    0    0 -0.35156073463E+01  0.18440829655E+02 -0.59391327132E+02  0.62287666772E+02  0.00000000000E+00 0.  1.
         12    1    4    4    0    0  0.49440863512E+02  0.34888377630E+01 -0.10328027277E+01  0.49574566616E+02  0.00000000000E+00 0. -1.
         -5    1    5    5    0  502  0.12282949039E+02 -0.82511103596E+02  0.89785543934E+02  0.12264781675E+03  0.47000000000E+01 0.  1.
         11    1    6    6    0    0 -0.36755547228E+02 -0.28220256772E+01  0.35241154714E+02  0.50998755539E+02  0.00000000000E+00 0. -1.
        -12    1    6    6    0    0  0.21235590910E+02  0.36765211479E+02  0.13499750511E+03  0.14151663324E+03  0.00000000000E+00 0.  1.
</event>
<event>
12    1  0.1039610E+000  0.2725233E+03  0.7818608E-02  0.1100878E+00
         21   -1    0    0  501  502  0.00000000000E+00  0.00000000000E+00  0.10717851571E+03  0.10717851571E+03  0.00000000000E+00 0. -1.
         21   -1    0    0  502  503 -0.00000000000E+00 -0.00000000000E+00 -0.67624958207E+03  0.67624958207E+03  0.00000000000E+00 0. -1.
         -6    2    1    2    0  503  0.18296456830E+03  0.85560431688E+02 -0.26219493581E+03  0.37301133304E+03  0.17203095502E+03 0.  0.
        -24    2    3    3    0    0  0.10242793298E+03 -0.20815987252E+02 -0.13755231243E+03  0.19036422603E+03  0.79956945401E+02 0.  0.
          6    2    1    2  501    0 -0.18296456830E+03 -0.85560431688E+02 -0.30687613055E+03  0.41041676474E+03  0.18295447672E+03 0.  0.
         24    2    5    5    0    0 -0.60373513069E+02 -0.54820797156E+02 -0.51409282388E+02  0.12535731047E+03  0.80132765414E+02 0.  0.
          5    1    5    5  501    0 -0.12259105523E+03 -0.30739634532E+02 -0.25546684816E+03  0.28505945426E+03  0.47000000000E+01 0. -1.
        -11    1    6    6    0    0 -0.67992854633E+02 -0.67613926985E+02 -0.32409290120E+02  0.10121775284E+03  0.00000000000E+00 0.  1.
         12    1    6    6    0    0  0.76193415647E+01  0.12793129830E+02 -0.18999992267E+02  0.24139557636E+02  0.00000000000E+00 0. -1.
         -5    1    3    3    0  503  0.80536635325E+02  0.10637641894E+03 -0.12464262339E+03  0.18264710701E+03  0.47000000000E+01 0.  1.
         11    1    4    4    0    0 -0.90183559137E+01  0.94710640655E+01 -0.37311812286E+01  0.13599761442E+02  0.00000000000E+00 0. -1.
        -12    1    4    4    0    0  0.11144628889E+03 -0.30287051317E+02 -0.13382113120E+03  0.17676446459E+03  0.00000000000E+00 0.  1.
</event>
<event>
12    1  0.1039610E+000  0.2839096E+03  0.7818608E-02  0.1093705E+00
         21   -1    0    0  501  502  0.00000000000E+00  0.00000000000E+00  0.19072983159E+03  0.19072983159E+03  0.00000000000E+00 0. -1.
         21   -1    0    0  502  503 -0.00000000000E+00 -0.00000000000E+00 -0.85436655920E+03  0.85436655920E+03  0.00000000000E+00 0.  1.
         -6    2    1    2    0  503  0.22468593425E+03 -0.10420637750E+02 -0.70420513826E+03  0.75928225169E+03  0.17324059063E+03 0.  0.
        -24    2    3    3    0    0  0.13613620589E+03  0.58453369593E+02 -0.47865274342E+03  0.50732857321E+03  0.79523389310E+02 0.  0.
          6    2    1    2  501    0 -0.22468593425E+03  0.10420637750E+02  0.40568410657E+02  0.28581413910E+03  0.17161458978E+03 0.  0.
         24    2    5    5    0    0 -0.12513984512E+03 -0.33157490601E+02  0.74481877194E+02  0.17188130650E+03  0.85066053597E+02 0.  0.
          5    1    5    5  501    0 -0.99546089129E+02  0.43578128351E+02 -0.33913466538E+02  0.11393283260E+03  0.47000000000E+01 0. -1.
        -11    1    6    6    0    0 -0.90853743292E+02 -0.32258743791E+02  0.92092104417E+02  0.13332660994E+03  0.00000000000E+00 0.  1.
         12    1    6    6    0    0 -0.34286101825E+02 -0.89874680989E+00 -0.17610227223E+02  0.38554696563E+02  0.00000000000E+00 0. -1.
         -5    1    3    3    0  503  0.88549728357E+02 -0.68874007343E+02 -0.22555239484E+03  0.25195367848E+03  0.47000000000E+01 0.  1.
         13    1    4    4    0    0  0.17729043688E+02  0.30079781322E+02 -0.20301631905E+03  0.20599693696E+03  0.00000000000E+00 0. -1.
        -14    1    4    4    0    0  0.11840716220E+03  0.28373588270E+02 -0.27563642436E+03  0.30133163626E+03  0.00000000000E+00 0.  1.
</event>
<event>
12    1  0.1039610E+000  0.1913920E+03  0.7818608E-02  0.1160003E+00
         21   -1    0    0  503  502  0.00000000000E+00  0.00000000000E+00  0.53665305610E+02  0.53665305610E+02  0.00000000000E+00 0.  1.
         21   -1    0    0  501  503 -0.00000000000E+00 -0.00000000000E+00 -0.64277940560E+03  0.64277940560E+03  0.00000000000E+00 0.  1.
          6    2    1    2  501    0  0.20534067869E+01  0.85026888266E+02 -0.32606220029E+03  0.37808391050E+03  0.17145581564E+03 0.  0.
         24    2    3    3    0    0  0.54102068363E+02  0.59060979291E+02 -0.27535775625E+03  0.30077723391E+03  0.90718341233E+02 0.  0.
         -6    2    1    2    0  502 -0.20534067869E+01 -0.85026888266E+02 -0.26305189971E+03  0.31836080071E+03  0.15787181282E+03 0.  0.
        -24    2    5    5    0    0 -0.49561248503E+02 -0.93875809835E+02 -0.18275098445E+03  0.22452250667E+03  0.75785543859E+02 0.  0.
          5    1    3    3  501    0 -0.52048661576E+02  0.25965908974E+02 -0.50704444038E+02  0.77306676593E+02  0.47000000000E+01 0. -1.
        -11    1    4    4    0    0  0.71424452750E+01  0.47096676973E+02 -0.22834325538E+03  0.23325898436E+03  0.00000000000E+00 0.  1.
         12    1    4    4    0    0  0.46959623088E+02  0.11964302318E+02 -0.47014500868E+02  0.67518249551E+02  0.00000000000E+00 0. -1.
         -5    1    5    5    0  502  0.47507841717E+02  0.88489215698E+01 -0.80300915257E+02  0.93838294042E+02  0.47000000000E+01 0.  1.
         11    1    6    6    0    0  0.14945566015E+02 -0.34496852323E+02 -0.86549467361E+02  0.94362137874E+02  0.00000000000E+00 0. -1.
        -12    1    6    6    0    0 -0.64506814518E+02 -0.59378957512E+02 -0.96201517087E+02  0.13016036879E+03  0.00000000000E+00 0.  1.
</event>
<event>
12    1  0.1039610E+000  0.2203266E+03  0.7818608E-02  0.1133736E+00
         21   -1    0    0  501  502  0.00000000000E+00  0.00000000000E+00  0.16819379245E+03  0.16819379245E+03  0.00000000000E+00 0. -1.
         21   -1    0    0  502  503 -0.00000000000E+00 -0.00000000000E+00 -0.40213986203E+03  0.40213986203E+03  0.00000000000E+00 0. -1.
         -6    2    1    2    0  503 -0.97790289739E+02  0.95702779396E+02  0.35090862383E+02  0.22259138309E+03  0.17202788278E+03 0.  0.
        -24    2    3    3    0    0 -0.94677153730E+01  0.66933843299E+02  0.72357043909E+02  0.12239464107E+03  0.71938371860E+02 0.  0.
          6    2    1    2  501    0  0.97790289739E+02 -0.95702779396E+02 -0.26903693196E+03  0.34774227139E+03  0.17269005126E+03 0.  0.
         24    2    5    5    0    0 -0.12015713374E+02 -0.29731200082E+02 -0.68455819435E+02  0.10969924944E+03  0.79494682133E+02 0.  0.
          5    1    5    5  501    0  0.10980600311E+03 -0.65971579315E+02 -0.20058111252E+03  0.23804302195E+03  0.47000000000E+01 0. -1.
        -13    1    6    6    0    0 -0.83967703476E+01 -0.56062565945E+02 -0.58102054202E+02  0.81174908408E+02  0.00000000000E+00 0.  1.
         14    1    6    6    0    0 -0.36189430268E+01  0.26331365864E+02 -0.10353765233E+02  0.28524341034E+02  0.00000000000E+00 0. -1.
         -5    1    3    3    0  503 -0.88322574366E+02  0.28768936097E+02 -0.37266181525E+02  0.10019674202E+03  0.47000000000E+01 0.  1.
         13    1    4    4    0    0  0.11935269357E+02  0.16207970374E+02 -0.10662600380E+02  0.22778059732E+02  0.00000000000E+00 0. -1.
        -14    1    4    4    0    0 -0.21402984730E+02  0.50725872925E+02  0.83019644289E+02  0.99616581337E+02  0.00000000000E+00 0.  1.
</event>
<event>
12    1  0.1039610E+000  0.3309382E+03  0.7818608E-02  0.1070744E+00
         21   -1    0    0  501  502  0.00000000000E+00  0.00000000000E+00  0.30136299119E+03  0.30136299119E+03  0.00000000000E+00 0. -1.
         21   -1    0    0  502  503 -0.00000000000E+00 -0.00000000000E+00 -0.76228968909E+03  0.76228968909E+03  0.00000000000E+00 0. -1.
         -6    2    1    2    0  503  0.18872558952E+03 -0.21024409640E+03  0.15431185369E+03  0.36514686231E+03  0.17233732809E+03 0.  0.
        -24    2    3    3    0    0  0.19006403526E+03 -0.13108203583E+03  0.14717983459E+03  0.28551408660E+03  0.80929304455E+02 0.  0.
          6    2    1    2  501    0 -0.18872558952E+03  0.21024409640E+03 -0.61523855159E+03  0.69850581796E+03  0.17196503759E+03 0.  0.
         24    2    5    5    0    0 -0.52036018054E+02  0.30552320797E+02 -0.24706860615E+03  0.26659798995E+03  0.79939981382E+02 0.  0.
          5    1    5    5  501    0 -0.13668957147E+03  0.17969177561E+03 -0.36816994544E+03  0.43190782801E+03  0.47000000000E+01 0. -1.
        -13    1    6    6    0    0 -0.41145560285E+02  0.23624796347E+02 -0.49348373988E+02  0.68456921848E+02  0.00000000000E+00 0.  1.
         14    1    6    6    0    0 -0.10890457768E+02  0.69275244498E+01 -0.19772023216E+03  0.19814106811E+03  0.00000000000E+00 0. -1.
         -5    1    3    3    0  503 -0.13384457359E+01 -0.79162060573E+02  0.71320190938E+01  0.79632775711E+02  0.47000000000E+01 0.  1.
         13    1    4    4    0    0  0.93950218608E+02 -0.18783435132E+02  0.70816486279E+02  0.11914040348E+03  0.00000000000E+00 0. -1.
        -14    1    4    4    0    0  0.96113816651E+02 -0.11229860070E+03  0.76363348316E+02  0.16637368312E+03  0.00000000000E+00 0.  1.
</event>
<event>
12    1  0.1039610E+000  0.2543679E+03  0.7818608E-02  0.1110814E+00
         21   -1    0    0  501  502  0.00000000000E+00  0.00000000000E+00  0.59823119753E+03  0.59823119753E+03  0.00000000000E+00 0. -1.
         21   -1    0    0  502  503 -0.00000000000E+00 -0.00000000000E+00 -0.14343859402E+03  0.14343859402E+03  0.00000000000E+00 0.  1.
         -6    2    1    2    0  503  0.18518095192E+03  0.17661236157E+02  0.41353072513E+03  0.48550045419E+03  0.17349099739E+03 0.  0.
        -24    2    3    3    0    0  0.12345218872E+03  0.48700770616E+02  0.37628795821E+03  0.40686835773E+03  0.79605433686E+02 0.  0.
          6    2    1    2  501    0 -0.18518095192E+03 -0.17661236157E+02  0.41261878382E+02  0.25616933736E+03  0.17121998301E+03 0.  0.
         24    2    5    5    0    0 -0.20936373276E+03 -0.10751744897E+02  0.24828750742E+02  0.22576069315E+03  0.80016567606E+02 0.  0.
          5    1    5    5  501    0  0.24182780846E+02 -0.69094912597E+01  0.16433127640E+02  0.30408644215E+02  0.47000000000E+01 0. -1.
        -13    1    6    6    0    0 -0.32546374774E+02  0.21644507335E+02  0.24252147768E+02  0.45999107383E+02  0.00000000000E+00 0.  1.
         14    1    6    6    0    0 -0.17681735799E+03 -0.32396252232E+02  0.57660297456E+00  0.17976158576E+03  0.00000000000E+00 0. -1.
         -5    1    3    3    0  503  0.61728763197E+02 -0.31039534459E+02  0.37242766918E+02  0.78632096456E+02  0.47000000000E+01 0.  1.
         13    1    4    4    0    0  0.12134655242E+02 -0.20105879052E+02  0.68530932531E+02  0.72442977187E+02  0.00000000000E+00 0. -1.
        -14    1    4    4    0    0  0.11131753348E+03  0.68806649667E+02  0.30775702568E+03  0.33442538054E+03  0.00000000000E+00 0.  1.
</event>
<event>
12    1  0.1039610E+000  0.2318821E+03  0.7818608E-02  0.1126264E+00
         21   -1    0    0  501  502  0.00000000000E+00  0.00000000000E+00  0.21700425703E+03  0.21700425703E+03  0.00000000000E+00 0. -1.
         21   -1    0    0  502  503 -0.00000000000E+00 -0.00000000000E+00 -0.24842125709E+03  0.24842125709E+03  0.00000000000E+00 0. -1.
         -6    2    1    2    0  503 -0.60272346720E+02  0.13474526006E+03  0.21217704948E+02  0.23285081841E+03  0.17883028754E+03 0.  0.
        -24    2    3    3    0    0  0.76787592021E+01  0.10096726942E+03 -0.41119547008E+02  0.13453333049E+03  0.78454107795E+02 0.  0.
          6    2    1    2  501    0  0.60272346720E+02 -0.13474526006E+03 -0.52634705003E+02  0.23257469572E+03  0.17184742078E+03 0.  0.
         24    2    5    5    0    0  0.10279042716E+03 -0.12563887055E+03 -0.29333364107E+02  0.18301911095E+03  0.79275160151E+02 0.  0.
          5    1    5    5  501    0 -0.42518080435E+02 -0.91063895151E+01 -0.23301340896E+02  0.49555584765E+02  0.47000000000E+01 0. -1.
        -13    1    6    6    0    0  0.28952910007E+02 -0.30114064119E+02  0.27049495668E+02  0.49767490107E+02  0.00000000000E+00 0.  1.
         14    1    6    6    0    0  0.73837517149E+02 -0.95524806428E+02 -0.56382859775E+02  0.13325162085E+03  0.00000000000E+00 0. -1.
         -5    1    3    3    0  503 -0.67951105923E+02  0.33777990638E+02  0.62337251956E+02  0.98317487911E+02  0.47000000000E+01 0.  1.
         11    1    4    4    0    0 -0.11625097359E+02  0.98851346126E+02 -0.51974752986E+02  0.11228582487E+03  0.00000000000E+00 0. -1.
        -12    1    4    4    0    0  0.19303856562E+02  0.21159232984E+01  0.10855205978E+02  0.22247505621E+02  0.00000000000E+00 0.  1.
</event>
<event>
12    1  0.1039610E+000  0.5021458E+03  0.7818608E-02  0.1013228E+00
         21   -1    0    0  503  502  0.00000000000E+00  0.00000000000E+00  0.15292753768E+03  0.15292753768E+03  0.00000000000E+00 0. -1.
         21   -1    0    0  501  503 -0.00000000000E+00 -0.00000000000E+00 -0.18429877684E+04  0.18429877684E+04  0.00000000000E+00 0.  1.
          6    2    1    2  501    0 -0.35232686592E+03 -0.31372058859E+03 -0.11693662636E+04  0.12726224483E+04  0.17203374481E+03 0.  0.
         24    2    3    3    0    0 -0.20621661100E+03 -0.11391441916E+03 -0.71317173031E+03  0.75357885271E+03  0.61362731319E+02 0.  0.
         -6    2    1    2    0  502  0.35232686592E+03  0.31372058859E+03 -0.52069396710E+03  0.72329285775E+03  0.17168436895E+03 0.  0.
        -24    2    5    5    0    0  0.25911938815E+03  0.19058088568E+03 -0.26329017763E+03  0.42307656708E+03  0.78791704385E+02 0.  0.
          5    1    3    3  501    0 -0.14611025492E+03 -0.19980616943E+03 -0.45619453332E+03  0.51904359564E+03  0.47000000000E+01 0. -1.
        -11    1    4    4    0    0  0.21502323496E+00 -0.54847328928E+01 -0.55948672078E+02  0.56217278813E+02  0.00000000000E+00 0.  1.
         12    1    4    4    0    0 -0.20643163424E+03 -0.10842968627E+03 -0.65722305823E+03  0.69736157389E+03  0.00000000000E+00 0. -1.
         -5    1    5    5    0  502  0.93207477773E+02  0.12313970292E+03 -0.25740378947E+03  0.30021629067E+03  0.47000000000E+01 0.  1.
         11    1    6    6    0    0  0.16575061723E+03  0.13943429475E+03 -0.21823149059E+03  0.30747385766E+03  0.00000000000E+00 0. -1.
        -12    1    6    6    0    0  0.93368770923E+02  0.51146590929E+02 -0.45058687038E+02  0.11560270942E+03  0.00000000000E+00 0.  1.
</event>
<event>
12    1  0.1039610E+000  0.1732926E+03  0.7818608E-02  0.1174502E+00
         21   -1    0    0  501  502  0.00000000000E+00  0.00000000000E+00  0.10643885110E+04  0.10643885110E+04  0.00000000000E+00 0.  1.
         21   -1    0    0  502  503 -0.00000000000E+00 -0.00000000000E+00 -0.38942089046E+02  0.38942089046E+02  0.00000000000E+00 0.  1.
         -6    2    1    2    0  503 -0.11403666451E-01 -0.22212214026E+02  0.22259396145E+03  0.28198877216E+03  0.17168638085E+03 0.  0.
        -24    2    3    3    0    0  0.36395374512E+02  0.25186393448E+01  0.22078795322E+03  0.23768955917E+03  0.80112667063E+02 0.  0.
          6    2    1    2  501    0  0.11403666451E-01  0.22212214026E+02  0.80285246047E+03  0.82134182785E+03  0.17186314995E+03 0.  0.
         24    2    5    5    0    0 -0.38263570890E+02  0.86272043431E+01  0.74537296666E+03  0.75080454428E+03  0.81166956111E+02 0.  0.
          5    1    5    5  501    0  0.38274974556E+02  0.13585009683E+02  0.57479493808E+02  0.70537283572E+02  0.47000000000E+01 0. -1.
        -13    1    6    6    0    0 -0.50424238827E+02 -0.44531629340E+01  0.24812600843E+03  0.25323694553E+03  0.00000000000E+00 0.  1.
         14    1    6    6    0    0  0.12160667938E+02  0.13080367277E+02  0.49724695823E+03  0.49756759875E+03  0.00000000000E+00 0. -1.
         -5    1    3    3    0  503 -0.36406778178E+02 -0.24730853371E+02  0.18060082332E+01  0.44299212990E+02  0.47000000000E+01 0.  1.
         13    1    4    4    0    0 -0.18118002139E+02  0.13362749141E+02  0.12443151360E+03  0.12645167711E+03  0.00000000000E+00 0. -1.
        -14    1    4    4    0    0  0.54513376650E+02 -0.10844109796E+02  0.96356439619E+02  0.11123788207E+03  0.00000000000E+00 0.  1.
</event>
<event>
12    1  0.1039610E+000  0.1890920E+03  0.7818608E-02  0.1159614E+00
         21   -1    0    0  503  502  0.00000000000E+00  0.00000000000E+00  0.22152366683E+03  0.22152366683E+03  0.00000000000E+00 0.  1.
         21   -1    0    0  501  503 -0.00000000000E+00 -0.00000000000E+00 -0.19305267595E+03  0.19305267595E+03  0.00000000000E+00 0.  1.
          6    2    1    2  501    0  0.73557572329E+02 -0.12690270626E+02  0.99737210227E+02  0.21250043316E+03  0.17215447590E+03 0.  0.
         24    2    3    3    0    0  0.11029112529E+03 -0.13001392541E+02  0.10737609375E+03  0.17468650382E+03  0.81563353178E+02 0.  0.
         -6    2    1    2    0  502 -0.73557572329E+02  0.12690270626E+02 -0.71266219344E+02  0.20207590962E+03  0.17373554563E+03 0.  0.
        -24    2    5    5    0    0 -0.43440932655E+02 -0.23763934670E+01 -0.11473717458E+03  0.14688686812E+03  0.80736428711E+02 0.  0.
          5    1    3    3  501    0 -0.36733552965E+02  0.31112191443E+00 -0.76388835215E+01  0.37813929335E+02  0.47000000000E+01 0. -1.
        -11    1    4    4    0    0  0.52380419998E+02  0.16879473852E+02  0.92831045076E+02  0.10791769070E+03  0.00000000000E+00 0.  1.
         12    1    4    4    0    0  0.57910705296E+02 -0.29880866393E+02  0.14545048673E+02  0.66768813118E+02  0.00000000000E+00 0. -1.
         -5    1    5    5    0  502 -0.30116639674E+02  0.15066664093E+02  0.43470955236E+02  0.55189041496E+02  0.47000000000E+01 0.  1.
         11    1    6    6    0    0 -0.20594880925E+02  0.27269888343E+02 -0.99138832355E+01  0.35582032142E+02  0.00000000000E+00 0. -1.
        -12    1    6    6    0    0 -0.22846051730E+02 -0.29646281810E+02 -0.10482329134E+03  0.11130483598E+03  0.00000000000E+00 0.  1.
</event>
<event>
12    1  0.1039610E+000  0.2385270E+03  0.7818608E-02  0.1120864E+00
         21   -1    0    0  501  502  0.00000000000E+00  0.00000000000E+00  0.64948256610E+03  0.64948256610E+03  0.00000000000E+00 0.  1.
         21   -1    0    0  502  503 -0.00000000000E+00 -0.00000000000E+00 -0.10332036390E+03  0.10332036390E+03  0.00000000000E+00 0.  1.
         -6    2    1    2    0  503  0.11941320391E+03 -0.11177791621E+03  0.12563589312E+03  0.26959137759E+03  0.17361254971E+03 0.  0.
        -24    2    3    3    0    0 -0.11787764659E+02 -0.36947338340E+02  0.43055399950E+02  0.97385287725E+02  0.78269212302E+02 0.  0.
          6    2    1    2  501    0 -0.11941320391E+03  0.11177791621E+03  0.42052630909E+03  0.48321155240E+03  0.17290810253E+03 0.  0.
         24    2    5    5    0    0 -0.14458306540E+03  0.61099049724E+02  0.35896611462E+03  0.39946421227E+03  0.77959148068E+02 0.  0.
          5    1    5    5  501    0  0.25169861489E+02  0.50678866482E+02  0.61560194472E+02  0.83747340129E+02  0.47000000000E+01 0. -1.
        -11    1    6    6    0    0 -0.47511183121E+02  0.32786812993E+02  0.57439227575E+02  0.81434344672E+02  0.00000000000E+00 0.  1.
         12    1    6    6    0    0 -0.97071882274E+02  0.28312236731E+02  0.30152688704E+03  0.31802986760E+03  0.00000000000E+00 0. -1.
         -5    1    3    3    0  503  0.13120096857E+03 -0.74830577866E+02  0.82580493166E+02  0.17220608987E+03  0.47000000000E+01 0.  1.
         13    1    4    4    0    0 -0.12828289436E+02  0.17704125716E+02 -0.73151523013E+01  0.23054555525E+02  0.00000000000E+00 0. -1.
        -14    1    4    4    0    0  0.10405247773E+01 -0.54651464057E+02  0.50370552251E+02  0.74330732201E+02  0.00000000000E+00 0.  1.
</event>
<event>
12    1  0.1039610E+000  0.1850582E+03  0.7818608E-02  0.1163419E+00
         21   -1    0    0  501  502  0.00000000000E+00  0.00000000000E+00  0.18802321864E+03  0.18802321864E+03  0.00000000000E+00 0.  1.
         21   -1    0    0  502  503 -0.00000000000E+00 -0.00000000000E+00 -0.18490711704E+03  0.18490711704E+03  0.00000000000E+00 0.  1.
         -6    2    1    2    0  503 -0.55040506287E+02  0.40199610837E+02 -0.27658440780E+02  0.18533077321E+03  0.17010890661E+03 0.  0.
        -24    2    3    3    0    0 -0.51419236425E+02  0.18143741085E+02  0.50428199367E+02  0.10397237871E+03  0.72760697008E+02 0.  0.
          6    2    1    2  501    0  0.55040506287E+02 -0.40199610837E+02  0.30774542381E+02  0.18759956246E+03  0.17204957813E+03 0.  0.
         24    2    5    5    0    0  0.83217845207E+02  0.34568131824E+01  0.57423807696E+02  0.12901527166E+03  0.80064269896E+02 0.  0.
          5    1    5    5  501    0 -0.28177338919E+02 -0.43656424019E+02 -0.26649265315E+02  0.58584290800E+02  0.47000000000E+01 0. -1.
        -13    1    6    6    0    0  0.12324667814E+02 -0.33344692042E+02  0.20251718766E+02  0.40913299024E+02  0.00000000000E+00 0.  1.
         14    1    6    6    0    0  0.70893177393E+02  0.36801505224E+02  0.37172088930E+02  0.88101972640E+02  0.00000000000E+00 0. -1.
         -5    1    3    3    0  503 -0.36212698627E+01  0.22055869751E+02 -0.78086640147E+02  0.81358394498E+02  0.47000000000E+01 0.  1.
         11    1    4    4    0    0 -0.12313631026E+02  0.34974032773E+02 -0.11462743682E+01  0.37096124088E+02  0.00000000000E+00 0. -1.
        -12    1    4    4    0    0 -0.39105605398E+02 -0.16830291687E+02  0.51574473735E+02  0.66876254626E+02  0.00000000000E+00 0.  1.
</event>
<event>
12    1  0.1039610E+000  0.2571405E+03  0.7818608E-02  0.1109040E+00
         21   -1    0    0  503  502  0.00000000000E+00  0.00000000000E+00  0.37994087688E+03  0.37994087688E+03  0.00000000000E+00 0. -1.
         21   -1    0    0  501  503 -0.00000000000E+00 -0.00000000000E+00 -0.17333083976E+03  0.17333083976E+03  0.00000000000E+00 0.  1.
          6    2    1    2  501    0 -0.17350976779E+03  0.78169232761E+02  0.10708400341E+03  0.27754234264E+03  0.17130878466E+03 0.  0.
         24    2    3    3    0    0 -0.18324873843E+03  0.31102923017E+02  0.63529890809E+02  0.21251053667E+03  0.81099871850E+02 0.  0.
         -6    2    1    2    0  502  0.17350976779E+03 -0.78169232761E+02  0.99526033717E+02  0.27572937401E+03  0.17293116502E+03 0.  0.
        -24    2    5    5    0    0  0.31474105831E+02 -0.63609540417E+01 -0.67573131868E+00  0.87598988697E+02  0.81498743142E+02 0.  0.
          5    1    3    3  501    0  0.97389706432E+01  0.47066309744E+02  0.43554112602E+02  0.65031805962E+02  0.47000000000E+01 0. -1.
        -13    1    4    4    0    0 -0.10724589296E+03  0.34836049180E+02 -0.95749842440E+00  0.11276590213E+03  0.00000000000E+00 0.  1.
         14    1    4    4    0    0 -0.76002845471E+02 -0.37331261626E+01  0.64487389233E+02  0.99744634546E+02  0.00000000000E+00 0. -1.
         -5    1    5    5    0  502  0.14203566196E+03 -0.71808278720E+02  0.10020176504E+03  0.18813038531E+03  0.47000000000E+01 0.  1.
         13    1    6    6    0    0 -0.27624487010E+01  0.24626569448E+02  0.24632584838E+02  0.34940854045E+02  0.00000000000E+00 0. -1.
        -14    1    6    6    0    0  0.34236554532E+02 -0.30987523490E+02 -0.25308316157E+02  0.52658134651E+02  0.00000000000E+00 0.  1.
</event>
<event>
12    1  0.1039610E+000  0.2309359E+03  0.7818608E-02  0.1126064E+00
         21   -1    0    0  503  502  0.00000000000E+00  0.00000000000E+00  0.42919191407E+02  0.42919191407E+02  0.00000000000E+00 0.  1.
         21   -1    0    0  501  503 -0.00000000000E+00 -0.00000000000E+00 -0.14294808403E+04  0.14294808403E+04  0.00000000000E+00 0.  1.
          6    2    1    2  501    0 -0.14740424558E+03  0.42668640013E+02 -0.96062835427E+03  0.98788937116E+03  0.17195915262E+03 0.  0.
         24    2    3    3    0    0 -0.21792084546E+02 -0.17971469006E+02 -0.49061247789E+03  0.49759083774E+03  0.78090778573E+02 0.  0.
         -6    2    1    2    0  502  0.14740424558E+03 -0.42668640013E+02 -0.42593329465E+03  0.48451066058E+03  0.17257689377E+03 0.  0.
        -24    2    5    5    0    0  0.39810121595E+02 -0.69735049225E+02 -0.27252241384E+03  0.29512725482E+03  0.79898733546E+02 0.  0.
          5    1    3    3  501    0 -0.12561216103E+03  0.60640109018E+02 -0.47001587638E+03  0.49029853342E+03  0.47000000000E+01 0. -1.
        -13    1    4    4    0    0 -0.22227178571E+02 -0.38882270592E+01 -0.34274790270E+02  0.41035679901E+02  0.00000000000E+00 0.  1.
         14    1    4    4    0    0  0.43509402497E+00 -0.14083241946E+02 -0.45633768762E+03  0.45655515784E+03  0.00000000000E+00 0. -1.
         -5    1    5    5    0  502  0.10759412398E+03  0.27066409212E+02 -0.15341088082E+03  0.18938340576E+03  0.47000000000E+01 0.  1.
         13    1    6    6    0    0  0.29989707833E+02 -0.36454431033E+02 -0.45824130144E+02  0.65788745400E+02  0.00000000000E+00 0. -1.
        -14    1    6    6    0    0  0.98204137615E+01 -0.33280618192E+02 -0.22669828369E+03  0.22933850942E+03  0.00000000000E+00 0.  1.
</event>
<event>
12    1  0.1039610E+000  0.1854872E+03  0.7818608E-02  0.1162705E+00
         21   -1    0    0  503  502  0.00000000000E+00  0.00000000000E+00  0.16685062102E+03  0.16685062102E+03  0.00000000000E+00 0. -1.
         21   -1    0    0  501  503 -0.00000000000E+00 -0.00000000000E+00 -0.24052874731E+03  0.24052874731E+03  0.00000000000E+00 0. -1.
          6    2    1    2  501    0 -0.23206954031E+02 -0.63598057631E+02 -0.11432832211E+03  0.21749005430E+03  0.17218502500E+03 0.  0.
         24    2    3    3    0    0  0.50695068190E+02 -0.11801214031E+02 -0.55817030128E+02  0.10983280566E+03  0.78983832243E+02 0.  0.
         -6    2    1    2    0  502  0.23206954031E+02  0.63598057631E+02  0.40650195824E+02  0.18988931402E+03  0.17269116222E+03 0.  0.
        -24    2    5    5    0    0  0.21680404722E+01 -0.24333096014E+02  0.54388540207E+02  0.98317725792E+02  0.78175839861E+02 0.  0.
          5    1    3    3  501    0 -0.73902022220E+02 -0.51796843600E+02 -0.58511291984E+02  0.10765724864E+03  0.47000000000E+01 0. -1.
        -13    1    4    4    0    0 -0.87391303150E+01 -0.28916329274E+02 -0.69226546082E+01  0.30991122022E+02  0.00000000000E+00 0.  1.
         14    1    4    4    0    0  0.59434198505E+02  0.17115115243E+02 -0.48894375520E+02  0.78841683640E+02  0.00000000000E+00 0. -1.
         -5    1    5    5    0  502  0.21038913559E+02  0.87931153645E+02 -0.13738344383E+02  0.91571588233E+02  0.47000000000E+01 0.  1.
         13    1    6    6    0    0  0.92869817817E+01 -0.34642536886E+02 -0.62432143168E+01  0.36405097411E+02  0.00000000000E+00 0. -1.
        -14    1    6    6    0    0 -0.71189413095E+01  0.10309440871E+02  0.60631754524E+02  0.61912628381E+02  0.00000000000E+00 0.  1.
</event>
<event>
12    1  0.1039610E+000  0.1753728E+03  0.7818608E-02  0.1172581E+00
         21   -1    0    0  503  502  0.00000000000E+00  0.00000000000E+00  0.64762070833E+02  0.64762070833E+02  0.00000000000E+00 0. -1.
         21   -1    0    0  501  503 -0.00000000000E+00 -0.00000000000E+00 -0.10948569078E+04  0.10948569078E+04  0.00000000000E+00 0. -1.
          6    2    1    2  501    0 -0.18605017178E+02 -0.30329143505E+02 -0.78466004899E+02  0.19212638244E+03  0.17172544743E+03 0.  0.
         24    2    3    3    0    0 -0.75132916999E+02 -0.21813161181E+02 -0.25542123726E+02  0.11408182714E+03  0.79003126403E+02 0.  0.
         -6    2    1    2    0  502  0.18605017178E+02  0.30329143505E+02 -0.95162883205E+03  0.96749259617E+03  0.17081711290E+03 0.  0.
        -24    2    5    5    0    0  0.58102640530E+02  0.34588578204E+02 -0.36129079760E+03  0.37580070850E+03  0.78248613370E+02 0.  0.
          5    1    3    3  501    0  0.56527899822E+02 -0.85159823242E+01 -0.52923881173E+02  0.78044555297E+02  0.47000000000E+01 0. -1.
        -13    1    4    4    0    0  0.14300639106E+02 -0.17175593702E+01 -0.16608400444E+02  0.21984022706E+02  0.00000000000E+00 0.  1.
         14    1    4    4    0    0 -0.89433556105E+02 -0.20095601811E+02 -0.89337232823E+01  0.92097804434E+02  0.00000000000E+00 0. -1.
         -5    1    5    5    0  502 -0.39497623352E+02 -0.42594346982E+01 -0.59033803444E+03  0.59169188768E+03  0.47000000000E+01 0.  1.
         11    1    6    6    0    0  0.30383897317E+02  0.40583142257E+02 -0.92193667296E+02  0.10521333062E+03  0.00000000000E+00 0. -1.
        -12    1    6    6    0    0  0.27718743213E+02 -0.59945640538E+01 -0.26909713031E+03  0.27058737787E+03  0.00000000000E+00 0.  1.
</event>
<event>
12    1  0.1039610E+000  0.3042307E+03  0.7818608E-02  0.1083197E+00
         21   -1    0    0  501  502  0.00000000000E+00  0.00000000000E+00  0.77990853953E+03  0.77990853953E+03  0.00000000000E+00 0. -1.
         21   -1    0    0  502  503 -0.00000000000E+00 -0.00000000000E+00 -0.15011716236E+03  0.15011716236E+03  0.00000000000E+00 0. -1.
         -6    2    1    2    0  503 -0.23665624560E+03  0.82244576307E+02  0.52810047907E+03  0.60924954910E+03  0.17182708797E+03 0.  0.
        -24    2    3    3    0    0 -0.16438088781E+03  0.98004218278E+02  0.47420059712E+03  0.51760141255E+03  0.80119366467E+02 0.  0.
          6    2    1    2  501    0  0.23665624560E+03 -0.82244576307E+02  0.10169089810E+03  0.32077615279E+03  0.17258607281E+03 0.  0.
         24    2    5    5    0    0  0.59901315728E+02 -0.61827872826E+02  0.25899463879E+02  0.12731923635E+03  0.90158483971E+02 0.  0.
          5    1    5    5  501    0  0.17675492987E+03 -0.20416703481E+02  0.75791434221E+02  0.19345691644E+03  0.47000000000E+01 0. -1.
        -11    1    6    6    0    0  0.63520343923E+02 -0.48125730509E+02  0.53712372077E+02  0.96103792554E+02  0.00000000000E+00 0.  1.
         12    1    6    6    0    0 -0.36190281945E+01 -0.13702142317E+02 -0.27812908197E+02  0.31215443799E+02  0.00000000000E+00 0. -1.
         -5    1    3    3    0  503 -0.72275357788E+02 -0.15759641971E+02  0.53899881957E+02  0.91648136552E+02  0.47000000000E+01 0.  1.
         11    1    4    4    0    0 -0.72355840965E+02  0.42211780366E+01  0.12490425930E+03  0.14441004140E+03  0.00000000000E+00 0. -1.
        -12    1    4    4    0    0 -0.92025046849E+02  0.93783040241E+02  0.34929633782E+03  0.37319137115E+03  0.00000000000E+00 0.  1.
</event>
<event>
12    1  0.1039610E+000  0.2953387E+03  0.7818608E-02  0.1087775E+00
         21   -1    0    0  501  502  0.00000000000E+00  0.00000000000E+00  0.36057894905E+03  0.36057894905E+03  0.00000000000E+00 0. -1.
         21   -1    0    0  502  503 -0.00000000000E+00 -0.00000000000E+00 -0.52070607611E+03  0.52070607611E+03  0.00000000000E+00 0. -1.
         -6    2    1    2    0  503  0.13463311046E+03  0.19695849350E+03 -0.40325350937E+03  0.49983834335E+03  0.17408691525E+03 0.  0.
        -24    2    3    3    0    0  0.45770859565E+02  0.30528853287E+02 -0.72726592301E+02  0.11922639177E+03  0.76803598856E+02 0.  0.
          6    2    1    2  501    0 -0.13463311046E+03 -0.19695849350E+03  0.24312638232E+03  0.38144668182E+03  0.17167530602E+03 0.  0.
         24    2    5    5    0    0 -0.59447734828E+00 -0.94982141620E+02  0.11538691990E+03  0.17001113190E+03  0.81041242939E+02 0.  0.
          5    1    5    5  501    0 -0.13403863311E+03 -0.10197635188E+03  0.12773946242E+03  0.21143554992E+03  0.47000000000E+01 0. -1.
        -13    1    6    6    0    0  0.29115388689E+02 -0.27671621044E+02  0.98478620286E+01  0.41357041193E+02  0.00000000000E+00 0.  1.
         14    1    6    6    0    0 -0.29709866037E+02 -0.67310520577E+02  0.10553905787E+03  0.12865409071E+03  0.00000000000E+00 0. -1.
         -5    1    3    3    0  503  0.88862250894E+02  0.16642964022E+03 -0.33052691707E+03  0.38061195158E+03  0.47000000000E+01 0.  1.
         13    1    4    4    0    0  0.15488626547E+02 -0.24751208585E+02 -0.11582863454E+02  0.31411504334E+02  0.00000000000E+00 0. -1.
        -14    1    4    4    0    0  0.30282233019E+02  0.55280061873E+02 -0.61143728847E+02  0.87814887431E+02  0.00000000000E+00 0.  1.
</event>
<event>
12    1  0.1039610E+000  0.2777887E+03  0.7818608E-02  0.1097097E+00
         21   -1    0    0  501  502  0.00000000000E+00  0.00000000000E+00  0.62310516293E+03  0.62310516293E+03  0.00000000000E+00 0.  1.
         21   -1    0    0  502  503 -0.00000000000E+00 -0.00000000000E+00 -0.16662852848E+03  0.16662852848E+03  0.00000000000E+00 0. -1.
         -6    2    1    2    0  503  0.44801564476E+02  0.21410099530E+03  0.26267903577E+02  0.27763400688E+03  0.16895035559E+03 0.  0.
        -24    2    3    3    0    0  0.92667866830E+02  0.17293476483E+03  0.34506528437E+02  0.21379196454E+03  0.77605007343E+02 0.  0.
          6    2    1    2  501    0 -0.44801564476E+02 -0.21410099530E+03  0.43020873087E+03  0.51209968452E+03  0.17123118407E+03 0.  0.
         24    2    5    5    0    0  0.82185393580E+01 -0.12883781085E+03  0.35574260725E+03  0.38700677665E+03  0.80961204666E+02 0.  0.
          5    1    5    5  501    0 -0.53020103834E+02 -0.85263184447E+02  0.74466123620E+02  0.12509290787E+03  0.47000000000E+01 0. -1.
        -11    1    6    6    0    0  0.19530609866E+02 -0.30535759555E+02  0.19430420678E+03  0.19765627262E+03  0.00000000000E+00 0.  1.
         12    1    6    6    0    0 -0.11312070508E+02 -0.98302051294E+02  0.16143840047E+03  0.18935050403E+03  0.00000000000E+00 0. -1.
         -5    1    3    3    0  503 -0.47866302354E+02  0.41166230462E+02 -0.82386248597E+01  0.63842042347E+02  0.47000000000E+01 0.  1.
         11    1    4    4    0    0  0.47784934543E+02  0.15535639562E+03  0.30939254574E+02  0.16545768976E+03  0.00000000000E+00 0. -1.
        -12    1    4    4    0    0  0.44882932286E+02  0.17578369216E+02  0.35672738627E+01  0.48334274772E+02  0.00000000000E+00 0.  1.
</event>
<event>
12    1  0.1039610E+000  0.2081764E+03  0.7818608E-02  0.1143081E+00
         21   -1    0    0  501  502  0.00000000000E+00  0.00000000000E+00  0.25118136155E+03  0.25118136155E+03  0.00000000000E+00 0.  1.
         21   -1    0    0  502  503 -0.00000000000E+00 -0.00000000000E+00 -0.18375868364E+03  0.18375868364E+03  0.00000000000E+00 0.  1.
         -6    2    1    2    0  503 -0.34529854623E+02  0.11282793058E+03  0.88051062413E+02  0.22574406007E+03  0.17112842629E+03 0.  0.
        -24    2    3    3    0    0 -0.61663283186E+02  0.85555084349E+02  0.38818631295E+01  0.13308028508E+03  0.81075646554E+02 0.  0.
          6    2    1    2  501    0  0.34529854623E+02 -0.11282793058E+03 -0.20628384507E+02  0.20919598512E+03  0.17150795073E+03 0.  0.
         24    2    5    5    0    0  0.31963381008E+02 -0.67166093846E+02  0.54299550186E+02  0.12128764923E+03  0.78925983161E+02 0.  0.
          5    1    5    5  501    0  0.25664736148E+01 -0.45661836735E+02 -0.74927934692E+02  0.87908335885E+02  0.47000000000E+01 0. -1.
        -11    1    6    6    0    0 -0.19610702880E+02  0.39610532347E+01  0.15183062717E+02  0.25115632655E+02  0.00000000000E+00 0.  1.
         12    1    6    6    0    0  0.51574083888E+02 -0.71127147080E+02  0.39116487468E+02  0.96172016577E+02  0.00000000000E+00 0. -1.
         -5    1    3    3    0  503  0.27133428563E+02  0.27272846232E+02  0.84169199284E+02  0.92663774989E+02  0.47000000000E+01 0.  1.
         13    1    4    4    0    0 -0.56928955132E+02  0.10588067209E+02  0.20596361043E+01  0.57941826003E+02  0.00000000000E+00 0. -1.
        -14    1    4    4    0    0 -0.47343280532E+01  0.74967017140E+02  0.18222270252E+01  0.75138459076E+02  0.00000000000E+00 0.  1.
</event>
<event>
12    1  0.1039610E+000  0.1959257E+03  0.7818608E-02  0.1154013E+00
         21   -1    0    0  501  502  0.00000000000E+00  0.00000000000E+00  0.20061768707E+03  0.20061768707E+03  0.00000000000E+00 0.  1.
         21   -1    0    0  502  503 -0.00000000000E+00 -0.00000000000E+00 -0.19340272180E+03  0.19340272180E+03  0.00000000000E+00 0.  1.
         -6    2    1    2    0  503  0.86538788707E+02  0.33614100100E+02  0.37077549458E+02  0.19940312481E+03  0.17253403095E+03 0.  0.
        -24    2    3    3    0    0 -0.19474064176E+02 -0.20115664828E+01  0.28863809068E+01  0.82360230527E+02  0.79947425240E+02 0.  0.
          6    2    1    2  501    0 -0.86538788707E+02 -0.33614100100E+02 -0.29862584181E+02  0.19461728406E+03  0.16841984338E+03 0.  0.
         24    2    5    5    0    0 -0.15477789841E+02  0.24243284048E+02  0.19892544965E+02  0.90239099857E+02  0.83187036238E+02 0.  0.
          5    1    5    5  501    0 -0.71060998866E+02 -0.57857384148E+02 -0.49755129146E+02  0.10437818420E+03  0.47000000000E+01 0. -1.
        -13    1    6    6    0    0  0.12445482567E+02 -0.77484670924E+01 -0.24661718740E+02  0.28690227428E+02  0.00000000000E+00 0.  1.
         14    1    6    6    0    0 -0.27923272409E+02  0.31991751140E+02  0.44554263706E+02  0.61548872430E+02  0.00000000000E+00 0. -1.
         -5    1    3    3    0  503  0.10601285288E+03  0.35625666583E+02  0.34191168551E+02  0.11704289429E+03  0.47000000000E+01 0.  1.
         13    1    4    4    0    0  0.78919460965E+01  0.23661694061E+01  0.37286101685E+02  0.38185533252E+02  0.00000000000E+00 0. -1.
        -14    1    4    4    0    0 -0.27366010273E+02 -0.43777358890E+01 -0.34399720778E+02  0.44174697275E+02  0.00000000000E+00 0.  1.
</event>
<event>
12    1  0.1039610E+000  0.3247722E+03  0.7818608E-02  0.1073672E+00
         21   -1    0    0  503  502  0.00000000000E+00  0.00000000000E+00  0.40387977925E+03  0.40387977925E+03  0.00000000000E+00 0. -1.
         21   -1    0    0  501  503 -0.00000000000E+00 -0.00000000000E+00 -0.38009589901E+03  0.38009589901E+03  0.00000000000E+00 0. -1.
          6    2    1    2  501    0 -0.21478997964E+03  0.16861732393E+03  0.23243389005E+03  0.39795519931E+03  0.17255807754E+03 0.  0.
         24    2    3    3    0    0 -0.22707364994E+03  0.12101918865E+03  0.21584618267E+03  0.34586188807E+03  0.82600148497E+02 0.  0.
         -6    2    1    2    0  502  0.21478997964E+03 -0.16861732393E+03 -0.20865000981E+03  0.38602047895E+03  0.17581366924E+03 0.  0.
        -24    2    5    5    0    0  0.23508557456E+03 -0.17214382564E+03 -0.18450002899E+03  0.35393217951E+03  0.79555030801E+02 0.  0.
          5    1    3    3  501    0  0.12283670299E+02  0.47598135287E+02  0.16587707381E+02  0.52093311230E+02  0.47000000000E+01 0. -1.
        -11    1    4    4    0    0 -0.15297780956E+03  0.79983375182E+02  0.91408376143E+02  0.19533315580E+03  0.00000000000E+00 0.  1.
         12    1    4    4    0    0 -0.74095840374E+02  0.41035813464E+02  0.12443780653E+03  0.15052873228E+03  0.00000000000E+00 0. -1.
         -5    1    5    5    0  502 -0.20295594918E+02  0.35265017069E+01 -0.24149980820E+02  0.32088299440E+02  0.47000000000E+01 0.  1.
         11    1    6    6    0    0  0.12549633651E+02 -0.34647854411E+02 -0.42635191498E+02  0.56353586170E+02  0.00000000000E+00 0. -1.
        -12    1    6    6    0    0  0.22253594091E+03 -0.13749597123E+03 -0.14186483750E+03  0.29757859334E+03  0.00000000000E+00 0.  1.
</event>
<event>
12    1  0.1039610E+000  0.1915181E+03  0.7818608E-02  0.1157503E+00
         21   -1    0    0  501  502  0.00000000000E+00  0.00000000000E+00  0.50374312040E+02  0.50374312040E+02  0.00000000000E+00 0. -1.
         21   -1    0    0  502  503 -0.00000000000E+00 -0.00000000000E+00 -0.84609834916E+03  0.84609834916E+03  0.00000000000E+00 0. -1.
         -6    2    1    2    0  503  0.55014775146E+02  0.61057113320E+02 -0.57160751207E+03  0.60283857108E+03  0.17298727802E+03 0.  0.
        -24    2    3    3    0    0 -0.25280975769E+02 -0.29621936855E+01 -0.33424915478E+03  0.34417477566E+03  0.78012027304E+02 0.  0.
          6    2    1    2  501    0 -0.55014775146E+02 -0.61057113320E+02 -0.22411652505E+03  0.29363409012E+03  0.17099171182E+03 0.  0.
         24    2    5    5    0    0 -0.80971068011E+02  0.91106608308E+01 -0.12259831882E+03  0.16743867870E+03  0.79787501218E+02 0.  0.
          5    1    5    5  501    0  0.25956292865E+02 -0.70167774151E+02 -0.10151820623E+03  0.12619541142E+03  0.47000000000E+01 0. -1.
        -11    1    6    6    0    0 -0.76086123977E+02 -0.24291172532E+02 -0.92516076514E+02  0.12222268095E+03  0.00000000000E+00 0.  1.
         12    1    6    6    0    0 -0.48849440339E+01  0.33401833363E+02 -0.30082242310E+02  0.45215997751E+02  0.00000000000E+00 0. -1.
         -5    1    3    3    0  503  0.80295750915E+02  0.64019307005E+02 -0.23735835729E+03  0.25866379542E+03  0.47000000000E+01 0.  1.
         13    1    4    4    0    0  0.12760181970E+02 -0.24166882531E+02 -0.53584296581E+02  0.60150954233E+02  0.00000000000E+00 0. -1.
        -14    1    4    4    0    0 -0.38041157739E+02  0.21204688845E+02 -0.28066485820E+03  0.28402382143E+03  0.00000000000E+00 0.  1.
</event>
<event>
12    1  0.1039610E+000  0.3061777E+03  0.7818608E-02  0.1082209E+00
         21   -1    0    0  503  502  0.00000000000E+00  0.00000000000E+00  0.16946976366E+03  0.16946976366E+03  0.00000000000E+00 0.  1.
         21   -1    0    0  501  503 -0.00000000000E+00 -0.00000000000E+00 -0.56294639081E+03  0.56294639081E+03  0.00000000000E+00 0.  1.
          6    2    1    2  501    0  0.25107016728E+03 -0.32740727752E+02 -0.14784234165E+03  0.33988460706E+03  0.17191859695E+03 0.  0.
         24    2    3    3    0    0  0.13601819483E+03 -0.42504148355E+02 -0.15832606258E+02  0.16443962712E+03  0.80511909640E+02 0.  0.
         -6    2    1    2    0  502 -0.25107016728E+03  0.32740727752E+02 -0.24563428549E+03  0.39253154741E+03  0.17215292432E+03 0.  0.
        -24    2    5    5    0    0 -0.23007490953E+03  0.62350715919E+01 -0.13977775142E+03  0.28130634136E+03  0.81376272836E+02 0.  0.
          5    1    3    3  501    0  0.11505197245E+03  0.97634206037E+01 -0.13200973540E+03  0.17544497994E+03  0.47000000000E+01 0. -1.
        -13    1    4    4    0    0  0.22331406276E+02 -0.39041517684E+02 -0.22918529429E+02  0.50479607769E+02  0.00000000000E+00 0.  1.
         14    1    4    4    0    0  0.11368678856E+03 -0.34626306714E+01  0.70859231717E+01  0.11396001935E+03  0.00000000000E+00 0. -1.
         -5    1    5    5    0  502 -0.20995257745E+02  0.26505656160E+02 -0.10585653407E+03  0.11122520605E+03  0.47000000000E+01 0.  1.
         11    1    6    6    0    0 -0.14413425570E+03  0.32790831137E+02 -0.11699859407E+03  0.18851682495E+03  0.00000000000E+00 0. -1.
        -12    1    6    6    0    0 -0.85940653834E+02 -0.26555759545E+02 -0.22779157351E+02  0.92789516413E+02  0.00000000000E+00 0.  1.
</event>
<event>
12    1  0.1039610E+000  0.4442910E+03  0.7818608E-02  0.1029447E+00
         21   -1    0    0  503  502  0.00000000000E+00  0.00000000000E+00  0.44286440201E+03  0.44286440201E+03  0.00000000000E+00 0. -1.
         21   -1    0    0  501  503 -0.00000000000E+00 -0.00000000000E+00 -0.55858918971E+03  0.55858918971E+03  0.00000000000E+00 0.  1.
          6    2    1    2  501    0  0.22954503980E+03  0.33903298287E+03 -0.28305895360E+03  0.52679873162E+03  0.17251157543E+03 0.  0.
         24    2    3    3    0    0  0.16321904537E+03  0.31465713987E+03 -0.27514902152E+03  0.45553881102E+03  0.78479627027E+02 0.  0.
         -6    2    1    2    0  502 -0.22954503980E+03 -0.33903298287E+03  0.16733416589E+03  0.47465486010E+03  0.17222724630E+03 0.  0.
        -24    2    5    5    0    0 -0.70512381922E+02 -0.52570800007E+02  0.26659461934E+02  0.11805504123E+03  0.74098453639E+02 0.  0.
          5    1    3    3  501    0  0.66325994428E+02  0.24375842994E+02 -0.79099320782E+01  0.71259920601E+02  0.47000000000E+01 0. -1.
        -13    1    4    4    0    0  0.10427627969E+03  0.20658161037E+03 -0.22453267688E+03  0.32243515199E+03  0.00000000000E+00 0.  1.
         14    1    4    4    0    0  0.58942765686E+02  0.10807552950E+03 -0.50616344636E+02  0.13310365903E+03  0.00000000000E+00 0. -1.
         -5    1    5    5    0  502 -0.15903265788E+03 -0.28646218286E+03  0.14067470396E+03  0.35659981887E+03  0.47000000000E+01 0.  1.
         11    1    6    6    0    0 -0.66878422482E-01 -0.36383491907E+02  0.27761416238E+02  0.45765261800E+02  0.00000000000E+00 0. -1.
        -12    1    6    6    0    0 -0.70445503499E+02 -0.16187308099E+02 -0.11019543041E+01  0.72289779430E+02  0.00000000000E+00 0.  1.
</event>
<event>
12    1  0.1039610E+000  0.2223717E+03  0.7818608E-02  0.1132135E+00
         21   -1    0    0  503  502  0.00000000000E+00  0.00000000000E+00  0.55985697303E+03  0.55985697303E+03  0.00000000000E+00 0.  1.
         21   -1    0    0  501  503 -0.00000000000E+00 -0.00000000000E+00 -0.17026859328E+03  0.17026859328E+03  0.00000000000E+00 0.  1.
          6    2    1    2  501    0  0.15199416101E+01  0.14075521333E+03  0.44808642444E+03  0.50023056063E+03  0.17214769738E+03 0.  0.
         24    2    3    3    0    0 -0.31737038315E+02  0.52105031638E+02  0.34949419115E+03  0.36345556330E+03  0.78940375750E+02 0.  0.
         -6    2    1    2    0  502 -0.15199416101E+01 -0.14075521333E+03 -0.58498044694E+02  0.22989500568E+03  0.17209111569E+03 0.  0.
        -24    2    5    5    0    0 -0.51210911870E+02 -0.95246462571E+02  0.76002600366E+01  0.13538937193E+03  0.81105313958E+02 0.  0.
          5    1    3    3  501    0  0.33256979925E+02  0.88650181697E+02  0.98592233293E+02  0.13677499733E+03  0.47000000000E+01 0. -1.
        -11    1    4    4    0    0 -0.34696594546E+02  0.26147254119E+02  0.67625874619E+02  0.80379048819E+02  0.00000000000E+00 0.  1.
         12    1    4    4    0    0  0.29595562316E+01  0.25957777518E+02  0.28186831653E+03  0.28307651448E+03  0.00000000000E+00 0. -1.
         -5    1    5    5    0  502  0.49690970260E+02 -0.45508750763E+02 -0.66098304731E+02  0.94505633746E+02  0.47000000000E+01 0.  1.
         11    1    6    6    0    0 -0.24826565056E+02 -0.23590966462E+02 -0.34148153184E+02  0.48363089200E+02  0.00000000000E+00 0. -1.
        -12    1    6    6    0    0 -0.26384346814E+02 -0.71655496109E+02  0.41748413221E+02  0.87026282731E+02  0.00000000000E+00 0.  1.
</event>
<event>
12    1  0.1039610E+000  0.2349380E+03  0.7818608E-02  0.1123451E+00
         21   -1    0    0  503  502  0.00000000000E+00  0.00000000000E+00  0.24265432820E+03  0.24265432820E+03  0.00000000000E+00 0.  1.
         21   -1    0    0  501  503 -0.00000000000E+00 -0.00000000000E+00 -0.24670597787E+03  0.24670597787E+03  0.00000000000E+00 0.  1.
          6    2    1    2  501    0 -0.15721562169E+03 -0.30946455313E+02  0.68656925017E+02  0.24342855985E+03  0.16990955124E+03 0.  0.
         24    2    3    3    0    0 -0.89541282941E+01 -0.30449306275E+02  0.30675916905E+02  0.90306502145E+02  0.78783981783E+02 0.  0.
         -6    2    1    2    0  502  0.15721562169E+03  0.30946455313E+02 -0.72708574687E+02  0.24593174621E+03  0.17181807868E+03 0.  0.
        -24    2    5    5    0    0  0.17074973772E+03  0.28278188947E+02 -0.20750093316E+02  0.19196818694E+03  0.80411998638E+02 0.  0.
          5    1    3    3  501    0 -0.14826149339E+03 -0.49714903818E+00  0.37981008112E+02  0.15312205771E+03  0.47000000000E+01 0. -1.
        -11    1    4    4    0    0 -0.20233558705E+02 -0.40186893597E+02 -0.10769169989E+02  0.46264006928E+02  0.00000000000E+00 0.  1.
         12    1    4    4    0    0  0.11279430411E+02  0.97375873216E+01  0.41445086894E+02  0.44042495217E+02  0.00000000000E+00 0. -1.
         -5    1    5    5    0  502 -0.13534116031E+02  0.26682663660E+01 -0.51958481372E+02  0.53963559265E+02  0.47000000000E+01 0.  1.
         11    1    6    6    0    0  0.32837660522E+02 -0.96871171035E+01 -0.34078467691E+02  0.48306253700E+02  0.00000000000E+00 0. -1.
        -12    1    6    6    0    0  0.13791207719E+03  0.37965306051E+02  0.13328374375E+02  0.14366193324E+03  0.00000000000E+00 0.  1.
</event>
<event>
12    1  0.1039610E+000  0.2408243E+03  0.7818608E-02  0.1119315E+00
         21   -1    0    0  503  502  0.00000000000E+00  0.00000000000E+00  0.16284237848E+03  0.16284237848E+03  0.00000000000E+00 0.  1.
         21   -1    0    0  501  503 -0.00000000000E+00 -0.00000000000E+00 -0.37914337028E+03  0.37914337028E+03  0.00000000000E+00 0.  1.
          6    2    1    2  501    0 -0.92669596722E+02 -0.14089833192E+03 -0.17569125359E+03  0.29776151869E+03  0.17133158299E+03 0.  0.
         24    2    3    3    0    0 -0.35821974882E+02 -0.41450029193E+02 -0.15314576256E+03  0.18091971885E+03  0.79227528516E+02 0.  0.
         -6    2    1    2    0  502  0.92669596722E+02  0.14089833192E+03 -0.40609738203E+02  0.24422423007E+03  0.17191954403E+03 0.  0.
        -24    2    5    5    0    0  0.11848853488E+03  0.64864936869E+02 -0.10257042006E+02  0.15825289242E+03  0.81803289143E+02 0.  0.
          5    1    3    3  501    0 -0.56847621840E+02 -0.99448302727E+02 -0.22545491029E+02  0.11684179984E+03  0.47000000000E+01 0. -1.
        -13    1    4    4    0    0 -0.48642301780E+02 -0.53452867639E+02 -0.90269138392E+02  0.11563649911E+03  0.00000000000E+00 0.  1.
         14    1    4    4    0    0  0.12820326898E+02  0.12002838446E+02 -0.62876624167E+02  0.65283219737E+02  0.00000000000E+00 0. -1.
         -5    1    5    5    0  502 -0.25818938161E+02  0.76033395051E+02 -0.30352696197E+02  0.85971337649E+02  0.47000000000E+01 0.  1.
         11    1    6    6    0    0  0.42017276333E+02  0.59789153985E+02 -0.30184275412E+02  0.79065067677E+02  0.00000000000E+00 0. -1.
        -12    1    6    6    0    0  0.76471258550E+02  0.50757828841E+01  0.19927233406E+02  0.79187824742E+02  0.00000000000E+00 0.  1.
</event>
<event>
12    1  0.1039610E+000  0.2716916E+03  0.7818608E-02  0.1100750E+00
         21   -1    0    0  503  502  0.00000000000E+00  0.00000000000E+00  0.23486750560E+03  0.23486750560E+03  0.00000000000E+00 0.  1.
         21   -1    0    0  501  503 -0.00000000000E+00 -0.00000000000E+00 -0.45281149740E+03  0.45281149740E+03  0.00000000000E+00 0. -1.
          6    2    1    2  501    0  0.20705633020E+03  0.17435433910E+02 -0.30196134103E+03  0.40619822878E+03  0.17504294145E+03 0.  0.
         24    2    3    3    0    0  0.11743282923E+03  0.75443241737E+02 -0.14691475367E+03  0.21789312543E+03  0.80070700993E+02 0.  0.
         -6    2    1    2    0  502 -0.20705633020E+03 -0.17435433910E+02  0.84017349230E+02  0.28148077422E+03  0.17028268571E+03 0.  0.
        -24    2    5    5    0    0 -0.15334528736E+03  0.52710487615E+02  0.50499250425E+02  0.18687168704E+03  0.77959479629E+02 0.  0.
          5    1    3    3  501    0  0.89623500974E+02 -0.58007807827E+02 -0.15504658736E+03  0.18830510335E+03  0.47000000000E+01 0. -1.
        -11    1    4    4    0    0 -0.64433498796E+01 -0.25904097459E+00  0.47009361578E+01  0.79801416439E+01  0.00000000000E+00 0.  1.
         12    1    4    4    0    0  0.12387617911E+03  0.75702282711E+02 -0.15161568983E+03  0.20991298378E+03  0.00000000000E+00 0. -1.
         -5    1    5    5    0  502 -0.53711042836E+02 -0.70145921525E+02  0.33518098804E+02  0.94609087178E+02  0.47000000000E+01 0.  1.
         11    1    6    6    0    0 -0.23947688527E+02  0.29906805364E+02 -0.13629698517E+02  0.40665433411E+02  0.00000000000E+00 0. -1.
        -12    1    6    6    0    0 -0.12939759884E+03  0.22803682251E+02  0.64128948942E+02  0.14620625363E+03  0.00000000000E+00 0.  1.
</event>
<event>
12    1  0.1039610E+000  0.2015119E+03  0.7818608E-02  0.1148558E+00
         21   -1    0    0  501  502  0.00000000000E+00  0.00000000000E+00  0.73812994507E+03  0.73812994507E+03  0.00000000000E+00 0.  1.
         21   -1    0    0  502  503 -0.00000000000E+00 -0.00000000000E+00 -0.55203311717E+02  0.55203311717E+02  0.00000000000E+00 0.  1.
         -6    2    1    2    0  503 -0.58920556720E+02  0.86899507105E+02  0.37058400953E+03  0.42162776983E+03  0.17150601106E+03 0.  0.
        -24    2    3    3    0    0 -0.10266681072E+02  0.22695564298E+01  0.73343874631E+02  0.10873287380E+03  0.79579886098E+02 0.  0.
          6    2    1    2  501    0  0.58920556720E+02 -0.86899507105E+02  0.31234262382E+03  0.37170548696E+03  0.17199970361E+03 0.  0.
         24    2    5    5    0    0 -0.18880169997E+02 -0.22956308350E+02  0.76763110436E+02  0.11546052043E+03  0.80963595165E+02 0.  0.
          5    1    5    5  501    0  0.77800726717E+02 -0.63943198755E+02  0.23557951338E+03  0.25624496653E+03  0.47000000000E+01 0. -1.
        -11    1    6    6    0    0  0.28404059843E+02 -0.14542428750E+01  0.85048409296E+01  0.29685649010E+02  0.00000000000E+00 0.  1.
         12    1    6    6    0    0 -0.47284229840E+02 -0.21502065475E+02  0.68258269507E+02  0.85774871421E+02  0.00000000000E+00 0. -1.
         -5    1    3    3    0  503 -0.48653875649E+02  0.84629950675E+02  0.29724013490E+03  0.31289489603E+03  0.47000000000E+01 0.  1.
         11    1    4    4    0    0  0.50194652472E+01  0.16618727074E+02 -0.11835727021E+02  0.21010986532E+02  0.00000000000E+00 0. -1.
        -12    1    4    4    0    0 -0.15286146319E+02 -0.14349170644E+02  0.85179601653E+02  0.87721887264E+02  0.00000000000E+00 0.  1.
</event>
<event>
12    1  0.1039610E+000  0.2389366E+03  0.7818608E-02  0.1120696E+00
         21   -1    0    0  501  502  0.00000000000E+00  0.00000000000E+00  0.14793356843E+03  0.14793356843E+03  0.00000000000E+00 0. -1.
         21   -1    0    0  502  503 -0.00000000000E+00 -0.00000000000E+00 -0.50308759601E+03  0.50308759601E+03  0.00000000000E+00 0. -1.
         -6    2    1    2    0  503  0.26030755464E+02 -0.16299091138E+03 -0.18929743467E+02  0.23854393544E+03  0.17117603957E+03 0.  0.
        -24    2    3    3    0    0  0.80536695433E+02 -0.13411332645E+03 -0.10752252975E+02  0.17614382523E+03  0.80240217969E+02 0.  0.
          6    2    1    2  501    0 -0.26030755464E+02  0.16299091138E+03 -0.33622428410E+03  0.41247722900E+03  0.17276301052E+03 0.  0.
         24    2    5    5    0    0  0.11137950607E+02  0.15354376071E+03 -0.18978614563E+03  0.26102763420E+03  0.91743688323E+02 0.  0.
          5    1    5    5  501    0 -0.37168706072E+02  0.94471506724E+01 -0.14643813847E+03  0.15144959480E+03  0.47000000000E+01 0. -1.
        -13    1    6    6    0    0  0.25094065770E+02  0.17692320406E+02 -0.80370448892E+02  0.86035686743E+02  0.00000000000E+00 0.  1.
         14    1    6    6    0    0 -0.13956115163E+02  0.13585144030E+03 -0.10941569674E+03  0.17499194746E+03  0.00000000000E+00 0. -1.
         -5    1    3    3    0  503 -0.54505939968E+02 -0.28877584934E+02 -0.81774904926E+01  0.62400110210E+02  0.47000000000E+01 0.  1.
         11    1    4    4    0    0 -0.24636256807E+01 -0.33111240078E+02  0.23886429140E+02  0.40902141363E+02  0.00000000000E+00 0. -1.
        -12    1    4    4    0    0  0.83000321113E+02 -0.10100208637E+03 -0.34638682115E+02  0.13524168386E+03  0.00000000000E+00 0.  1.
</event>
<event>
12    1  0.1039610E+000  0.5659168E+03  0.7818608E-02  0.9978941E-01
         21   -1    0    0  503  502  0.00000000000E+00  0.00000000000E+00  0.80357635399E+03  0.80357635399E+03  0.00000000000E+00 0. -1.
         21   -1    0    0  501  503 -0.00000000000E+00 -0.00000000000E+00 -0.49539802943E+03  0.49539802943E+03  0.00000000000E+00 0. -1.
          6    2    1    2  501    0 -0.18834560776E+03  0.50508317173E+03  0.44157651145E+03  0.71754776171E+03  0.17117796746E+03 0.  0.
         24    2    3    3    0    0 -0.10728879296E+03  0.35205367338E+03  0.37689800142E+03  0.53263255344E+03  0.78693452553E+02 0.  0.
         -6    2    1    2    0  502  0.18834560776E+03 -0.50508317173E+03 -0.13339818689E+03  0.58142662171E+03  0.17227525024E+03 0.  0.
        -24    2    5    5    0    0  0.12760893663E+03 -0.33827644444E+03 -0.18974674712E+02  0.37017260962E+03  0.77153930935E+02 0.  0.
          5    1    3    3  501    0 -0.81056814794E+02  0.15302949835E+03  0.64678510033E+02  0.18491520827E+03  0.47000000000E+01 0. -1.
        -11    1    4    4    0    0 -0.34779574555E+02  0.17757753975E+03  0.13538297323E+03  0.22599104157E+03  0.00000000000E+00 0.  1.
         12    1    4    4    0    0 -0.72509218406E+02  0.17447613363E+03  0.24151502819E+03  0.30664151187E+03  0.00000000000E+00 0. -1.
         -5    1    5    5    0  502  0.60736671127E+02 -0.16680672729E+03 -0.11442351218E+03  0.21125401210E+03  0.47000000000E+01 0.  1.
         11    1    6    6    0    0  0.77983711425E+02 -0.10362529076E+03 -0.11762399562E+02  0.13022294029E+03  0.00000000000E+00 0. -1.
        -12    1    6    6    0    0  0.49625225203E+02 -0.23465115368E+03 -0.72122751502E+01  0.23994966933E+03  0.00000000000E+00 0.  1.
</event>
<event>
12    1  0.1039610E+000  0.1938495E+03  0.7818608E-02  0.1155089E+00
         21   -1    0    0  501  502  0.00000000000E+00  0.00000000000E+00  0.14555969675E+03  0.14555969675E+03  0.00000000000E+00 0. -1.
         21   -1    0    0  502  503 -0.00000000000E+00 -0.00000000000E+00 -0.25942802986E+03  0.25942802986E+03  0.00000000000E+00 0. -1.
         -6    2    1    2    0  503 -0.61348637106E+02 -0.64285171273E+02 -0.41061727516E+02  0.19815066706E+03  0.17228285715E+03 0.  0.
        -24    2    3    3    0    0 -0.17670760773E+02  0.31138981455E+02 -0.86657497546E+01  0.88218346151E+02  0.80159150610E+02 0.  0.
          6    2    1    2  501    0  0.61348637106E+02  0.64285171273E+02 -0.72806605595E+02  0.20683705956E+03  0.17200153740E+03 0.  0.
         24    2    5    5    0    0  0.52665103771E+02  0.10932111920E+03 -0.69263910623E+02  0.16059550849E+03  0.79175171456E+02 0.  0.
          5    1    5    5  501    0  0.86835333350E+01 -0.45035947929E+02 -0.35426949726E+01  0.46241551063E+02  0.47000000000E+01 0. -1.
        -11    1    6    6    0    0 -0.13785453771E+01  0.30322698770E+02  0.14282589337E+02  0.33546368004E+02  0.00000000000E+00 0.  1.
         12    1    6    6    0    0  0.54043649148E+02  0.78998420432E+02 -0.83546499960E+02  0.12704914049E+03  0.00000000000E+00 0. -1.
         -5    1    3    3    0  503 -0.43677876333E+02 -0.95424152728E+02 -0.32395977761E+02  0.10993232091E+03  0.47000000000E+01 0.  1.
         13    1    4    4    0    0  0.11133569789E+02 -0.13069379012E+01  0.28793051453E+02  0.30898289191E+02  0.00000000000E+00 0. -1.
        -14    1    4    4    0    0 -0.28804330562E+02  0.32445919356E+02 -0.37458801208E+02  0.57320056960E+02  0.00000000000E+00 0.  1.
</event>
<event>
12    1  0.1039610E+000  0.2317860E+03  0.7818608E-02  0.1125450E+00
         21   -1    0    0  501  502  0.00000000000E+00  0.00000000000E+00  0.11117805927E+03  0.11117805927E+03  0.00000000000E+00 0. -1.
         21   -1    0    0  502  503 -0.00000000000E+00 -0.00000000000E+00 -0.48600094670E+03  0.48600094670E+03  0.00000000000E+00 0. -1.
         -6    2    1    2    0  503  0.13363450540E+03 -0.79069252686E+02 -0.16223373309E+03  0.28292142684E+03  0.17208899402E+03 0.  0.
        -24    2    3    3    0    0  0.12764045436E+03 -0.11735584957E+03 -0.14865290853E+03  0.24158958748E+03  0.78761415352E+02 0.  0.
          6    2    1    2  501    0 -0.13363450540E+03  0.79069252686E+02 -0.21258915435E+03  0.31425757913E+03  0.17162036517E+03 0.  0.
         24    2    5    5    0    0 -0.13838330005E+03  0.79893988116E+02 -0.11282059108E+03  0.21426214195E+03  0.87445941203E+02 0.  0.
          5    1    5    5  501    0  0.47487946527E+01 -0.82473542964E+00 -0.99768563268E+02  0.99995437174E+02  0.47000000000E+01 0. -1.
        -11    1    6    6    0    0 -0.64228144053E+02 -0.10543903057E+02 -0.43964618961E+02  0.78544994115E+02  0.00000000000E+00 0.  1.
         12    1    6    6    0    0 -0.74155155996E+02  0.90437891173E+02 -0.68855972117E+02  0.13571714784E+03  0.00000000000E+00 0. -1.
         -5    1    3    3    0  503  0.59940510415E+01  0.38286596888E+02 -0.13580824559E+02  0.41331839360E+02  0.47000000000E+01 0.  1.
         11    1    4    4    0    0  0.40845717340E+02 -0.33985491078E+02 -0.97049610875E+02  0.11064363154E+03  0.00000000000E+00 0. -1.
        -12    1    4    4    0    0  0.86794737015E+02 -0.83370358496E+02 -0.51603297652E+02  0.13094595594E+03  0.00000000000E+00 0.  1.
</event>
<event>
12    1  0.1039610E+000  0.2905072E+03  0.7818608E-02  0.1090176E+00
         21   -1    0    0  501  502  0.00000000000E+00  0.00000000000E+00  0.52988430272E+03  0.52988430272E+03  0.00000000000E+00 0. -1.
         21   -1    0    0  502  503 -0.00000000000E+00 -0.00000000000E+00 -0.20457795436E+03  0.20457795436E+03  0.00000000000E+00 0. -1.
         -6    2    1    2    0  503  0.21037626877E+03 -0.10228414739E+03  0.33636016493E+03  0.44444641350E+03  0.17226210451E+03 0.  0.
        -24    2    3    3    0    0  0.20113630977E+03 -0.68650527897E+02  0.34008901925E+03  0.40905444326E+03  0.80599543721E+02 0.  0.
          6    2    1    2  501    0 -0.21037626877E+03  0.10228414739E+03 -0.11053816567E+02  0.29001584359E+03  0.17107536761E+03 0.  0.
         24    2    5    5    0    0 -0.15321182484E+03  0.13688785136E+03 -0.42498964752E+01  0.22268402862E+03  0.85778597915E+02 0.  0.
          5    1    5    5  501    0 -0.57164443926E+02 -0.34603703973E+02 -0.68039200919E+01  0.67331814966E+02  0.47000000000E+01 0. -1.
        -13    1    6    6    0    0 -0.12173569476E+03  0.13113205071E+03 -0.30234260850E+02  0.18146433432E+03  0.00000000000E+00 0.  1.
         14    1    6    6    0    0 -0.31476130077E+02  0.57558006539E+01  0.25984364374E+02  0.41219694295E+02  0.00000000000E+00 0. -1.
         -5    1    3    3    0  503  0.92399589990E+01 -0.33633619493E+02 -0.37288543225E+01  0.35391970234E+02  0.47000000000E+01 0.  1.
         13    1    4    4    0    0  0.19924671018E+02 -0.37370098441E+02  0.49227408990E+02  0.64937312606E+02  0.00000000000E+00 0. -1.
        -14    1    4    4    0    0  0.18121163875E+03 -0.31280429456E+02  0.29086161026E+03  0.34411713065E+03  0.00000000000E+00 0.  1.
</event>
<event>
12    1  0.1039610E+000  0.2371795E+03  0.7818608E-02  0.1121842E+00
         21   -1    0    0  501  502  0.00000000000E+00  0.00000000000E+00  0.50106694778E+03  0.50106694778E+03  0.00000000000E+00 0. -1.
         21   -1    0    0  502  503 -0.00000000000E+00 -0.00000000000E+00 -0.11933413386E+03  0.11933413386E+03  0.00000000000E+00 0. -1.
         -6    2    1    2    0  503 -0.10573492286E+03 -0.12394016220E+03  0.11275112905E+03  0.26178532977E+03  0.17110728817E+03 0.  0.
        -24    2    3    3    0    0 -0.29232008044E+02 -0.13502282651E+03  0.71454262099E+02  0.17401835054E+03  0.78044863898E+02 0.  0.
          6    2    1    2  501    0  0.10573492286E+03  0.12394016220E+03  0.26898168487E+03  0.35861575186E+03  0.17237480376E+03 0.  0.
         24    2    5    5    0    0  0.42695949433E+00  0.83574232806E+02  0.80581076400E+02  0.13898867094E+03  0.76417969693E+02 0.  0.
          5    1    5    5  501    0  0.10530796337E+03  0.40365929394E+02  0.18840060846E+03  0.21962708092E+03  0.47000000000E+01 0. -1.
        -11    1    6    6    0    0  0.67940555018E+01 -0.12892508547E+02  0.26482533422E+01  0.14811793024E+02  0.00000000000E+00 0.  1.
         12    1    6    6    0    0 -0.63670960075E+01  0.96466741354E+02  0.77932823058E+02  0.12417687792E+03  0.00000000000E+00 0. -1.
         -5    1    3    3    0  503 -0.76502914818E+02  0.11082664307E+02  0.41296866951E+02  0.87766979233E+02  0.47000000000E+01 0.  1.
         13    1    4    4    0    0 -0.38386045257E+02 -0.59765824137E+02  0.17812722800E+01  0.71053607482E+02  0.00000000000E+00 0. -1.
        -14    1    4    4    0    0  0.91540372134E+01 -0.75257002370E+02  0.69672989819E+02  0.10296474306E+03  0.00000000000E+00 0.  1.
</event>
<event>
12    1  0.1039610E+000  0.2431238E+03  0.7818608E-02  0.1118372E+00
         21   -1    0    0  501  502  0.00000000000E+00  0.00000000000E+00  0.25851086645E+03  0.25851086645E+03  0.00000000000E+00 0.  1.
         21   -1    0    0  502  503 -0.00000000000E+00 -0.00000000000E+00 -0.22537458684E+03  0.22537458684E+03  0.00000000000E+00 0.  1.
         -6    2    1    2    0  503 -0.15230386749E+03  0.77018007773E+02  0.26222316260E+02  0.24066334001E+03  0.16763946964E+03 0.  0.
        -24    2    3    3    0    0 -0.55739880097E+02 -0.15524135740E+02  0.41674393453E+02  0.10594322764E+03  0.78353553777E+02 0.  0.
          6    2    1    2  501    0  0.15230386749E+03 -0.77018007773E+02  0.69139633475E+01  0.24322211328E+03  0.17315008497E+03 0.  0.
         24    2    5    5    0    0 -0.50026666575E+01  0.75153930604E+01  0.43447211902E+01  0.64560610576E+02  0.63778429185E+02 0.  0.
          5    1    5    5  501    0  0.15730653415E+03 -0.84533400834E+02  0.25692421573E+01  0.17866150270E+03  0.47000000000E+01 0. -1.
        -11    1    6    6    0    0 -0.22206624515E+02  0.13295002767E+02 -0.21040113682E+02  0.33355324233E+02  0.00000000000E+00 0.  1.
         12    1    6    6    0    0  0.17203957858E+02 -0.57796097062E+01  0.25384834872E+02  0.31205286344E+02  0.00000000000E+00 0. -1.
         -5    1    3    3    0  503 -0.96563987390E+02  0.92542143513E+02 -0.15452077193E+02  0.13472011237E+03  0.47000000000E+01 0.  1.
         11    1    4    4    0    0  0.23120492651E+01 -0.15539756507E+02  0.45132061957E+02  0.47788415129E+02  0.00000000000E+00 0. -1.
        -12    1    4    4    0    0 -0.58051929363E+02  0.15620766748E-01 -0.34576685042E+01  0.58154812511E+02  0.00000000000E+00 0.  1.
</event>
<event>
12    1  0.1039610E+000  0.2057345E+03  0.7818608E-02  0.1145250E+00
         21   -1    0    0  501  502  0.00000000000E+00  0.00000000000E+00  0.31511333600E+03  0.31511333600E+03  0.00000000000E+00 0. -1.
         21   -1    0    0  502  503 -0.00000000000E+00 -0.00000000000E+00 -0.40037578307E+03  0.40037578307E+03  0.00000000000E+00 0. -1.
         -6    2    1    2    0  503  0.74598821879E+02 -0.84333689925E+02  0.24949348855E+03  0.32256647913E+03  0.17066041470E+03 0.  0.
        -24    2    3    3    0    0  0.41193255364E+02 -0.34537566741E+02  0.24417634554E+03  0.26218479508E+03  0.78924338741E+02 0.  0.
          6    2    1    2  501    0 -0.74598821879E+02  0.84333689925E+02 -0.33475593561E+03  0.39292263994E+03  0.17219032804E+03 0.  0.
         24    2    5    5    0    0 -0.47965464310E+02  0.21605497784E+02 -0.30974505925E+03  0.32017790982E+03  0.61679890608E+02 0.  0.
          5    1    5    5  501    0 -0.26633357570E+02  0.62728192141E+02 -0.25010876364E+02  0.72744730127E+02  0.47000000000E+01 0. -1.
        -11    1    6    6    0    0 -0.75232265074E+01 -0.16299560673E+02 -0.15039705385E+03  0.15146467714E+03  0.00000000000E+00 0.  1.
         12    1    6    6    0    0 -0.40442237802E+02  0.37905058457E+02 -0.15934800540E+03  0.16871323267E+03  0.00000000000E+00 0. -1.
         -5    1    3    3    0  503  0.33405566515E+02 -0.49796123184E+02  0.53171430043E+01  0.60381684045E+02  0.47000000000E+01 0.  1.
         13    1    4    4    0    0 -0.93325057929E+01 -0.36289743385E+02  0.15700060816E+03  0.16141013630E+03  0.00000000000E+00 0. -1.
        -14    1    4    4    0    0  0.50525761157E+02  0.17521766445E+01  0.87175737386E+02  0.10077465878E+03  0.00000000000E+00 0.  1.
</event>
<event>
12    1  0.1039610E+000  0.1743242E+03  0.7818608E-02  0.1173918E+00
         21   -1    0    0  501  502  0.00000000000E+00  0.00000000000E+00  0.10685699105E+03  0.10685699105E+03  0.00000000000E+00 0. -1.
         21   -1    0    0  502  503 -0.00000000000E+00 -0.00000000000E+00 -0.46381123985E+03  0.46381123985E+03  0.00000000000E+00 0. -1.
         -6    2    1    2    0  503  0.11496996690E+02  0.22124983713E+02 -0.35501248036E-01  0.17432421967E+03  0.17253184189E+03 0.  0.
        -24    2    3    3    0    0 -0.15478741507E+02 -0.49652900922E+02  0.62852383638E+01  0.97241167561E+02  0.81922758979E+02 0.  0.
          6    2    1    2  501    0 -0.11496996690E+02 -0.22124983713E+02 -0.35691874755E+03  0.39634401122E+03  0.17051653011E+03 0.  0.
         24    2    5    5    0    0 -0.64818963497E+02 -0.42040363757E+02 -0.25432688498E+03  0.27892580662E+03  0.84549103845E+02 0.  0.
          5    1    5    5  501    0  0.53321966807E+02  0.19915380044E+02 -0.10259186257E+03  0.11741820460E+03  0.47000000000E+01 0. -1.
        -13    1    6    6    0    0  0.19438764263E+02 -0.96404919100E+01 -0.29238891477E+02  0.36410402568E+02  0.00000000000E+00 0.  1.
         14    1    6    6    0    0 -0.84257727760E+02 -0.32399871847E+02 -0.22508799350E+03  0.24251540405E+03  0.00000000000E+00 0. -1.
         -5    1    3    3    0  503  0.26975738196E+02  0.71777884634E+02 -0.63207396118E+01  0.77083052113E+02  0.47000000000E+01 0.  1.
         11    1    4    4    0    0 -0.21765493233E+02  0.14466313501E+02  0.18033026442E+02  0.31752180470E+02  0.00000000000E+00 0. -1.
        -12    1    4    4    0    0  0.62867517267E+01 -0.64119214422E+02 -0.11747788078E+02  0.65488987090E+02  0.00000000000E+00 0.  1.
</event>
<event>
12    1  0.1039610E+000  0.6287434E+03  0.7818608E-02  0.9847618E-01
         21   -1    0    0  501  502  0.00000000000E+00  0.00000000000E+00  0.25818706770E+03  0.25818706770E+03  0.00000000000E+00 0.  1.
         21   -1    0    0  502  503 -0.00000000000E+00 -0.00000000000E+00 -0.15920568532E+04  0.15920568532E+04  0.00000000000E+00 0.  1.
         -6    2    1    2    0  503 -0.20783031944E+03  0.56775057107E+03 -0.84887145215E+03  0.10563621810E+04  0.17258088715E+03 0.  0.
        -24    2    3    3    0    0 -0.61972759006E+02  0.13655487264E+03 -0.28682616566E+03  0.33309103385E+03  0.78692638933E+02 0.  0.
          6    2    1    2  501    0  0.20783031944E+03 -0.56775057107E+03 -0.48499833335E+03  0.79388173988E+03  0.17172850935E+03 0.  0.
         24    2    5    5    0    0  0.13792173136E+03 -0.25768641119E+03 -0.17558778619E+03  0.35027834649E+03  0.80244369684E+02 0.  0.
          5    1    5    5  501    0  0.69908588085E+02 -0.31006415988E+03 -0.30941054716E+03  0.44360339339E+03  0.47000000000E+01 0. -1.
        -11    1    6    6    0    0  0.14431802650E+03 -0.23798283930E+03 -0.17645404878E+03  0.32954446727E+03  0.00000000000E+00 0.  1.
         12    1    6    6    0    0 -0.63962951390E+01 -0.19703571890E+02  0.86626259241E+00  0.20733879222E+02  0.00000000000E+00 0. -1.
         -5    1    3    3    0  503 -0.14585756044E+03  0.43119569844E+03 -0.56204528649E+03  0.72327114719E+03  0.47000000000E+01 0.  1.
         13    1    4    4    0    0 -0.43993301086E+02  0.14337033768E+03 -0.24947176380E+03  0.29107838326E+03  0.00000000000E+00 0. -1.
        -14    1    4    4    0    0 -0.17979457920E+02 -0.68154650482E+01 -0.37354401860E+02  0.42012650586E+02  0.00000000000E+00 0.  1.
</event>
<event>
12    1  0.1039610E+000  0.2606839E+03  0.7818608E-02  0.1106765E+00
         21   -1    0    0  501  502  0.00000000000E+00  0.00000000000E+00  0.70767399024E+03  0.70767399024E+03  0.00000000000E+00 0. -1.
         21   -1    0    0  502  503 -0.00000000000E+00 -0.00000000000E+00 -0.12983297731E+03  0.12983297731E+03  0.00000000000E+00 0. -1.
         -6    2    1    2    0  503  0.16129869196E+03  0.11078886819E+03  0.75080194385E+02  0.27128054577E+03  0.17223431010E+03 0.  0.
        -24    2    3    3    0    0  0.11845986052E+03  0.12723362607E+03  0.17776618237E+02  0.19771842657E+03  0.92495588508E+02 0.  0.
          6    2    1    2  501    0 -0.16129869196E+03 -0.11078886819E+03  0.50276081854E+03  0.56622642178E+03  0.17190834392E+03 0.  0.
         24    2    5    5    0    0 -0.34927148870E+02 -0.63432455623E+00  0.21510349737E+03  0.23325102507E+03  0.83163802331E+02 0.  0.
          5    1    5    5  501    0 -0.12637154309E+03 -0.11015454364E+03  0.28765732117E+03  0.33297539671E+03  0.47000000000E+01 0. -1.
        -13    1    6    6    0    0 -0.52763926718E+02 -0.99981613055E+01  0.78145589577E+02  0.94819451394E+02  0.00000000000E+00 0.  1.
         14    1    6    6    0    0  0.17836777848E+02  0.93638367493E+01  0.13695790779E+03  0.13843157367E+03  0.00000000000E+00 0. -1.
         -5    1    3    3    0  503  0.42838831446E+02 -0.16444757873E+02  0.57303576148E+02  0.73562119195E+02  0.47000000000E+01 0.  1.
         11    1    4    4    0    0 -0.41518656065E+01 -0.52825481589E+01 -0.12944835277E+02  0.14584651639E+02  0.00000000000E+00 0. -1.
        -12    1    4    4    0    0  0.12261172613E+03  0.13251617423E+03  0.30721453514E+02  0.18313377493E+03  0.00000000000E+00 0.  1.
</event>
<event>
12    1  0.1039610E+000  0.1947709E+03  0.7818608E-02  0.1156487E+00
         21   -1    0    0  501  502  0.00000000000E+00  0.00000000000E+00  0.12033194791E+03  0.12033194791E+03  0.00000000000E+00 0. -1.
         21   -1    0    0  502  503 -0.00000000000E+00 -0.00000000000E+00 -0.35372273800E+03  0.35372273800E+03  0.00000000000E+00 0. -1.
         -6    2    1    2    0  503  0.87209899798E+02 -0.24688370958E+02 -0.21235490082E+03  0.28814977425E+03  0.17239665372E+03 0.  0.
        -24    2    3    3    0    0  0.12626458670E+03 -0.34350296561E+02 -0.17364947738E+03  0.23212459081E+03  0.81271126099E+02 0.  0.
          6    2    1    2  501    0 -0.87209899798E+02  0.24688370958E+02 -0.21035889267E+02  0.18590491166E+03  0.16094423027E+03 0.  0.
         24    2    5    5    0    0 -0.10401272581E+03  0.45397530311E+02  0.16703571761E+02  0.13945535664E+03  0.79304503627E+02 0.  0.
          5    1    5    5  501    0  0.16802826016E+02 -0.20709159353E+02 -0.37739461028E+02  0.46449555023E+02  0.47000000000E+01 0. -1.
        -11    1    6    6    0    0 -0.62200580999E+02  0.43625518548E+02  0.45590995432E+02  0.88603820514E+02  0.00000000000E+00 0.  1.
         12    1    6    6    0    0 -0.41812144815E+02  0.17720117629E+01 -0.28887423671E+02  0.50851536122E+02  0.00000000000E+00 0. -1.
         -5    1    3    3    0  503 -0.39054686901E+02  0.96619256026E+01 -0.38705423443E+02  0.56025183437E+02  0.47000000000E+01 0.  1.
         11    1    4    4    0    0  0.36867970956E+02 -0.64792681572E+01 -0.31023678326E+01  0.37561321654E+02  0.00000000000E+00 0. -1.
        -12    1    4    4    0    0  0.89396615743E+02 -0.27871028404E+02 -0.17054710955E+03  0.19456326916E+03  0.00000000000E+00 0.  1.
</event>
<event>
12    1  0.1039610E+000  0.3295570E+03  0.7818608E-02  0.1071348E+00
         21   -1    0    0  503  502  0.00000000000E+00  0.00000000000E+00  0.68634007656E+03  0.68634007656E+03  0.00000000000E+00 0.  1.
         21   -1    0    0  501  503 -0.00000000000E+00 -0.00000000000E+00 -0.15819486945E+03  0.15819486945E+03  0.00000000000E+00 0.  1.
          6    2    1    2  501    0  0.17544522288E+03 -0.21987238459E+03  0.26834623182E+03  0.42488826042E+03  0.17145099000E+03 0.  0.
         24    2    3    3    0    0  0.65712034347E+02 -0.35795134825E+02  0.58037132658E+02  0.12459205042E+03  0.80966086275E+02 0.  0.
         -6    2    1    2    0  502 -0.17544522288E+03  0.21987238459E+03  0.25979897529E+03  0.41964668558E+03  0.17170597375E+03 0.  0.
        -24    2    5    5    0    0 -0.17363750534E+02  0.64428541055E+02  0.11064951074E+03  0.15240111842E+03  0.80809961845E+02 0.  0.
          5    1    3    3  501    0  0.10973318854E+03 -0.18407724977E+03  0.21030909917E+03  0.30029621000E+03  0.47000000000E+01 0. -1.
        -11    1    4    4    0    0  0.38467473651E+02 -0.61469466082E+02  0.42577409909E+02  0.84089699869E+02  0.00000000000E+00 0.  1.
         12    1    4    4    0    0  0.27244560696E+02  0.25674331257E+02  0.15459722749E+02  0.40502350555E+02  0.00000000000E+00 0. -1.
         -5    1    5    5    0  502 -0.15808147235E+03  0.15544384354E+03  0.14914946455E+03  0.26724556716E+03  0.47000000000E+01 0.  1.
         11    1    6    6    0    0 -0.51379940399E+00  0.81071270086E+02  0.83792737317E+02  0.11659347173E+03  0.00000000000E+00 0. -1.
        -12    1    6    6    0    0 -0.16849951130E+02 -0.16642729031E+02  0.26856773425E+02  0.35807646690E+02  0.00000000000E+00 0.  1.
</event>
<event>
12    1  0.1039610E+000  0.2886547E+03  0.7818608E-02  0.1091054E+00
         21   -1    0    0  501  502  0.00000000000E+00  0.00000000000E+00  0.13267632991E+03  0.13267632991E+03  0.00000000000E+00 0.  1.
         21   -1    0    0  502  503 -0.00000000000E+00 -0.00000000000E+00 -0.65383150604E+03  0.65383150604E+03  0.00000000000E+00 0.  1.
         -6    2    1    2    0  503  0.21915229766E+03  0.75787509653E+02 -0.33874510228E+03  0.44505030798E+03  0.17190129764E+03 0.  0.
        -24    2    3    3    0    0  0.16268236387E+03  0.99528399386E+02 -0.31969851312E+03  0.38072810477E+03  0.79845454919E+02 0.  0.
          6    2    1    2  501    0 -0.21915229766E+03 -0.75787509653E+02 -0.18241007385E+03  0.34145752796E+03  0.17189628318E+03 0.  0.
         24    2    5    5    0    0 -0.18978504283E+03 -0.25319386736E+01 -0.10785904610E+03  0.23278940902E+03  0.80824265738E+02 0.  0.
          5    1    5    5  501    0 -0.29367254830E+02 -0.73255570979E+02 -0.74551027745E+02  0.10866811894E+03  0.47000000000E+01 0. -1.
        -11    1    6    6    0    0 -0.10335204619E+03  0.30101127796E+02 -0.86174748958E+02  0.13789057511E+03  0.00000000000E+00 0.  1.
         12    1    6    6    0    0 -0.86432996643E+02 -0.32633066470E+02 -0.21684297145E+02  0.94898833916E+02  0.00000000000E+00 0. -1.
         -5    1    3    3    0  503  0.56469933792E+02 -0.23740889733E+02 -0.19046589158E+02  0.64322203214E+02  0.47000000000E+01 0.  1.
         13    1    4    4    0    0  0.81441583452E+02  0.40255619255E+02 -0.81014259484E+02  0.12172327894E+03  0.00000000000E+00 0. -1.
        -14    1    4    4    0    0  0.81240780415E+02  0.59272780131E+02 -0.23868425364E+03  0.25900482583E+03  0.00000000000E+00 0.  1.
</event>
<event>
12    1  0.1039610E+000  0.2443852E+03  0.7818608E-02  0.1116909E+00
         21   -1    0    0  501  502  0.00000000000E+00  0.00000000000E+00  0.57000937601E+02  0.57000937601E+02  0.00000000000E+00 0. -1.
         21   -1    0    0  502  503 -0.00000000000E+00 -0.00000000000E+00 -0.11720211137E+04  0.11720211137E+04  0.00000000000E+00 0. -1.
         -6    2    1    2    0  503 -0.13296622318E+03  0.10982802984E+03 -0.35737574264E+03  0.43294518410E+03  0.17315281797E+03 0.  0.
        -24    2    3    3    0    0 -0.10228676361E+03  0.77090245935E+02 -0.35733209063E+03  0.38783328280E+03  0.79516942972E+02 0.  0.
          6    2    1    2  501    0  0.13296622318E+03 -0.10982802984E+03 -0.75764443347E+03  0.79607686720E+03  0.17312157082E+03 0.  0.
         24    2    5    5    0    0  0.96591803140E+02 -0.13474001325E+03 -0.69776877856E+03  0.72157257604E+03  0.79377997901E+02 0.  0.
          5    1    5    5  501    0  0.36374420041E+02  0.24911983417E+02 -0.59875654904E+02  0.74504291160E+02  0.47000000000E+01 0. -1.
        -11    1    6    6    0    0  0.78114822812E+02 -0.41060796334E+02 -0.32480931708E+03  0.33658432376E+03  0.00000000000E+00 0.  1.
         12    1    6    6    0    0  0.18476980328E+02 -0.93679216918E+02 -0.37295946148E+03  0.38498825228E+03  0.00000000000E+00 0. -1.
         -5    1    3    3    0  503 -0.30679459571E+02  0.32737783900E+02 -0.43652003249E-01  0.45111901309E+02  0.47000000000E+01 0.  1.
         13    1    4    4    0    0 -0.79701123492E+02  0.10683464284E+02 -0.18078489759E+03  0.19786253989E+03  0.00000000000E+00 0. -1.
        -14    1    4    4    0    0 -0.22585640118E+02  0.66406781651E+02 -0.17654719304E+03  0.18997074290E+03  0.00000000000E+00 0.  1.
</event>
<event>
12    1  0.1039610E+000  0.1725780E+03  0.7818608E-02  0.1178942E+00
         21   -1    0    0  501  502  0.00000000000E+00  0.00000000000E+00  0.34110808144E+03  0.34110808144E+03  0.00000000000E+00 0.  1.
         21   -1    0    0  502  503 -0.00000000000E+00 -0.00000000000E+00 -0.88828134403E+02  0.88828134403E+02  0.00000000000E+00 0.  1.
         -6    2    1    2    0  503 -0.13087433950E+02  0.16639059410E+00  0.64635715099E+02  0.18428491689E+03  0.17208092955E+03 0.  0.
        -24    2    3    3    0    0  0.62834500143E+01  0.44799096571E+02  0.90752922200E+02  0.12886372875E+03  0.79519349232E+02 0.  0.
          6    2    1    2  501    0  0.13087433950E+02 -0.16639059410E+00  0.18764423194E+03  0.24565129895E+03  0.15799650085E+03 0.  0.
         24    2    5    5    0    0  0.56512232150E+02  0.11370891734E+01  0.71446399534E+02  0.12150848436E+03  0.80403970120E+02 0.  0.
          5    1    5    5  501    0 -0.43424798200E+02 -0.13034797675E+01  0.11619783240E+03  0.12414281459E+03  0.47000000000E+01 0. -1.
        -11    1    6    6    0    0  0.65500269784E+02 -0.10845541146E+02  0.80234669254E+02  0.10414179399E+03  0.00000000000E+00 0.  1.
         12    1    6    6    0    0 -0.89880376340E+01  0.11982630320E+02 -0.87882697197E+01  0.17366690374E+02  0.00000000000E+00 0. -1.
         -5    1    3    3    0  503 -0.19370883964E+02 -0.44632705977E+02 -0.26117207102E+02  0.55421188143E+02  0.47000000000E+01 0.  1.
         13    1    4    4    0    0  0.64055051219E+00 -0.19563882308E+02  0.46778597143E+02  0.50708904017E+02  0.00000000000E+00 0. -1.
        -14    1    4    4    0    0  0.56428995021E+01  0.64362978880E+02  0.43974325057E+02  0.78154824735E+02  0.00000000000E+00 0.  1.
</event>
<event>
12    1  0.1039610E+000  0.1889843E+03  0.7818608E-02  0.1160657E+00
         21   -1    0    0  503  502  0.00000000000E+00  0.00000000000E+00  0.26063604257E+03  0.26063604257E+03  0.00000000000E+00 0.  1.
         21   -1    0    0  501  503 -0.00000000000E+00 -0.00000000000E+00 -0.13857711821E+03  0.13857711821E+03  0.00000000000E+00 0.  1.
          6    2    1    2  501    0  0.65116726887E+02  0.25345928073E+01  0.10002483163E+03  0.20894873581E+03  0.17148759422E+03 0.  0.
         24    2    3    3    0    0  0.35930885858E+02 -0.68873920648E+02  0.33245920439E+02  0.10680911524E+03  0.65331848040E+02 0.  0.
         -6    2    1    2    0  502 -0.65116726887E+02 -0.25345928073E+01  0.22034092731E+02  0.19026442498E+03  0.17739345503E+03 0.  0.
        -24    2    5    5    0    0  0.11725221830E+02 -0.40216626527E+02  0.44685134029E+02  0.10160902232E+03  0.81072648519E+02 0.  0.
          5    1    3    3  501    0  0.29185841029E+02  0.71408513455E+02  0.66778911188E+02  0.10213962057E+03  0.47000000000E+01 0. -1.
        -13    1    4    4    0    0  0.54490719392E+02 -0.59553808428E+02  0.25735617529E+02  0.84724356638E+02  0.00000000000E+00 0.  1.
         14    1    4    4    0    0 -0.18559833535E+02 -0.93201122195E+01  0.75103029099E+01  0.22084758600E+02  0.00000000000E+00 0. -1.
         -5    1    5    5    0  502 -0.76841948718E+02  0.37682033719E+02 -0.22651041297E+02  0.88655402654E+02  0.47000000000E+01 0.  1.
         13    1    6    6    0    0 -0.86561960418E+01  0.38855512516E+01 -0.19159940660E+02  0.21380611884E+02  0.00000000000E+00 0. -1.
        -14    1    6    6    0    0  0.20381417872E+02 -0.44102177778E+02  0.63845074689E+02  0.80228410437E+02  0.00000000000E+00 0.  1.
</event>
<event>
12    1  0.1039610E+000  0.4767562E+03  0.7818608E-02  0.1020076E+00
         21   -1    0    0  503  502  0.00000000000E+00  0.00000000000E+00  0.12132254780E+03  0.12132254780E+03  0.00000000000E+00 0.  1.
         21   -1    0    0  501  503 -0.00000000000E+00 -0.00000000000E+00 -0.18861055053E+04  0.18861055053E+04  0.00000000000E+00 0.  1.
          6    2    1    2  501    0 -0.44372219632E+03 -0.27796003497E+02 -0.97189554018E+03  0.10822432419E+04  0.17031584858E+03 0.  0.
         24    2    3    3    0    0 -0.32234163361E+03  0.32498816788E+02 -0.59897312525E+03  0.68542851948E+03  0.77994542806E+02 0.  0.
         -6    2    1    2    0  502  0.44372219632E+03  0.27796003497E+02 -0.79288741734E+03  0.92518481124E+03  0.17214666147E+03 0.  0.
        -24    2    5    5    0    0  0.42209206981E+03  0.13612936639E+02 -0.64810305929E+03  0.77803311368E+03  0.83372196119E+02 0.  0.
          5    1    3    3  501    0 -0.12138056271E+03 -0.60294820285E+02 -0.37292241493E+03  0.39681472241E+03  0.47000000000E+01 0. -1.
        -11    1    4    4    0    0 -0.31728057131E+02  0.11664233007E+02 -0.26054774039E+02  0.42679915548E+02  0.00000000000E+00 0.  1.
         12    1    4    4    0    0 -0.29061357647E+03  0.20834583781E+02 -0.57291835121E+03  0.64274860394E+03  0.00000000000E+00 0. -1.
         -5    1    5    5    0  502  0.21630126513E+02  0.14183066858E+02 -0.14478435805E+03  0.14715169756E+03  0.47000000000E+01 0.  1.
         11    1    6    6    0    0  0.27477935601E+03 -0.27655973326E+02 -0.38743560461E+03  0.47578870843E+03  0.00000000000E+00 0. -1.
        -12    1    6    6    0    0  0.14731271379E+03  0.41268909965E+02 -0.26066745469E+03  0.30224440525E+03  0.00000000000E+00 0.  1.
</event>
<event>
12    1  0.1039610E+000  0.2328939E+03  0.7818608E-02  0.1124660E+00
         21   -1    0    0  501  502  0.00000000000E+00  0.00000000000E+00  0.20649221791E+03  0.20649221791E+03  0.00000000000E+00 0.  1.
         21   -1    0    0  502  503 -0.00000000000E+00 -0.00000000000E+00 -0.28799745676E+03  0.28799745676E+03  0.00000000000E+00 0.  1.
         -6    2    1    2    0  503 -0.50383275495E+02  0.14844859574E+03 -0.11443741334E+03  0.25927890815E+03  0.17191326480E+03 0.  0.
        -24    2    3    3    0    0  0.18521671407E+02  0.28002385939E+02 -0.69590641494E+02  0.11337310255E+03  0.82966361063E+02 0.  0.
          6    2    1    2  501    0  0.50383275495E+02 -0.14844859574E+03  0.32932174488E+02  0.23521076652E+03  0.17223273946E+03 0.  0.
         24    2    5    5    0    0  0.70872473746E+02 -0.71110582676E+02  0.70116591492E+02  0.14686063138E+03  0.81068404107E+02 0.  0.
          5    1    5    5  501    0 -0.20489198251E+02 -0.77338013067E+02 -0.37184417003E+02  0.88350135133E+02  0.47000000000E+01 0. -1.
        -13    1    6    6    0    0  0.74901814629E+02 -0.22014019679E+02  0.31167216249E+02  0.84061253059E+02  0.00000000000E+00 0.  1.
         14    1    6    6    0    0 -0.40293408832E+01 -0.49096562997E+02  0.38949375243E+02  0.62799378324E+02  0.00000000000E+00 0. -1.
         -5    1    3    3    0  503 -0.68904946903E+02  0.12044620980E+03 -0.44846771848E+02  0.14590580560E+03  0.47000000000E+01 0.  1.
         11    1    4    4    0    0 -0.10714700569E+02  0.42929264338E+02 -0.10035179019E+02  0.45369938977E+02  0.00000000000E+00 0. -1.
        -12    1    4    4    0    0  0.29236371976E+02 -0.14926878399E+02 -0.59555462476E+02  0.68003163571E+02  0.00000000000E+00 0.  1.
</event>
<event>
12    1  0.1039610E+000  0.1850749E+03  0.7818608E-02  0.1163025E+00
         21   -1    0    0  503  502  0.00000000000E+00  0.00000000000E+00  0.99796851710E+02  0.99796851710E+02  0.00000000000E+00 0.  1.
         21   -1    0    0  501  503 -0.00000000000E+00 -0.00000000000E+00 -0.10218842894E+04  0.10218842894E+04  0.00000000000E+00 0.  1.
          6    2    1    2  501    0  0.65561791630E+02  0.23846602947E+02 -0.37935686639E+01  0.18492272402E+03  0.17121627757E+03 0.  0.
         24    2    3    3    0    0  0.47232780396E+02  0.60348954021E+01 -0.69297589674E+02  0.11445233062E+03  0.77651944872E+02 0.  0.
         -6    2    1    2    0  502 -0.65561791630E+02 -0.23846602947E+02 -0.91829386899E+03  0.93675841705E+03  0.17142255714E+03 0.  0.
        -24    2    5    5    0    0 -0.18770770925E+02 -0.64201790644E+02 -0.75397504757E+03  0.76114319600E+03  0.79914833986E+02 0.  0.
          5    1    3    3  501    0  0.18329011233E+02  0.17811707545E+02  0.65504021011E+02  0.70470393407E+02  0.47000000000E+01 0. -1.
        -11    1    4    4    0    0 -0.15111264260E+02  0.12612944878E+02  0.16782287542E+01  0.19754825683E+02  0.00000000000E+00 0.  1.
         12    1    4    4    0    0  0.62344044656E+02 -0.65780494755E+01 -0.70975818429E+02  0.94697504934E+02  0.00000000000E+00 0. -1.
         -5    1    5    5    0  502 -0.46791020704E+02  0.40355187697E+02 -0.16431882141E+03  0.17561522105E+03  0.47000000000E+01 0.  1.
         11    1    6    6    0    0 -0.79461400604E+01 -0.74577307300E+02 -0.40752596779E+03  0.41436979901E+03  0.00000000000E+00 0. -1.
        -12    1    6    6    0    0 -0.10824630865E+02  0.10375516657E+02 -0.34644907978E+03  0.34677339699E+03  0.00000000000E+00 0.  1.
</event>
<event>
12    1  0.1039610E+000  0.1806183E+03  0.7818608E-02  0.1167987E+00
         21   -1    0    0  501  502  0.00000000000E+00  0.00000000000E+00  0.10673005772E+04  0.10673005772E+04  0.00000000000E+00 0.  1.
         21   -1    0    0  502  503 -0.00000000000E+00 -0.00000000000E+00 -0.32101169690E+02  0.32101169690E+02  0.00000000000E+00 0.  1.
         -6    2    1    2    0  503 -0.33757025158E+02 -0.37684862538E+02  0.38213935119E+03  0.42267417647E+03  0.17338768731E+03 0.  0.
        -24    2    3    3    0    0  0.14252082135E+02 -0.11223839594E+02  0.35844245252E+03  0.36276847453E+03  0.52828760365E+02 0.  0.
          6    2    1    2  501    0  0.33757025158E+02  0.37684862538E+02  0.65306005628E+03  0.67672757038E+03  0.17003847151E+03 0.  0.
         24    2    5    5    0    0 -0.43804640117E+01  0.42600609924E+02  0.61747983133E+03  0.62412837780E+03  0.80130452686E+02 0.  0.
          5    1    5    5  501    0  0.38137489170E+02 -0.49157473861E+01  0.35580224948E+02  0.52599192578E+02  0.47000000000E+01 0. -1.
        -11    1    6    6    0    0 -0.29355341891E+02 -0.22771119359E+01  0.10403450137E+03  0.10812076032E+03  0.00000000000E+00 0.  1.
         12    1    6    6    0    0  0.24974877880E+02  0.44877721860E+02  0.51344532996E+03  0.51600761748E+03  0.00000000000E+00 0. -1.
         -5    1    3    3    0  503 -0.48009107293E+02 -0.26461022943E+02  0.23696898668E+02  0.59905701939E+02  0.47000000000E+01 0.  1.
         13    1    4    4    0    0 -0.13260184168E+02 -0.15048909213E+02  0.65250608166E+02  0.68263782628E+02  0.00000000000E+00 0. -1.
        -14    1    4    4    0    0  0.27512266303E+02  0.38250696182E+01  0.29319184435E+03  0.29450469190E+03  0.00000000000E+00 0.  1.
</event>
<event>
12    1  0.1039610E+000  0.2523253E+03  0.7818608E-02  0.1112679E+00
         21   -1    0    0  503  502  0.00000000000E+00  0.00000000000E+00  0.26533602616E+03  0.26533602616E+03  0.00000000000E+00 0.  1.
         21   -1    0    0  501  503 -0.00000000000E+00 -0.00000000000E+00 -0.23665955406E+03  0.23665955406E+03  0.00000000000E+00 0.  1.
          6    2    1    2  501    0  0.17830951567E+03  0.49278171438E+02  0.35817527381E+02  0.25485477520E+03  0.17159673545E+03 0.  0.
         24    2    3    3    0    0  0.29466170131E+02 -0.61745987780E+01  0.30758966991E+02  0.95867259121E+02  0.85662339851E+02 0.  0.
         -6    2    1    2    0  502 -0.17830951567E+03 -0.49278171438E+02 -0.71410552775E+01  0.24714080502E+03  0.16372220765E+03 0.  0.
        -24    2    5    5    0    0 -0.15209881863E+03  0.17971491310E+02  0.63167437072E+01  0.17356961411E+03  0.81421646766E+02 0.  0.
          5    1    3    3  501    0  0.14884334554E+03  0.55452770215E+02  0.50585603897E+01  0.15898751608E+03  0.47000000000E+01 0. -1.
        -13    1    4    4    0    0  0.19283581556E+02  0.36543616525E+02 -0.15485352426E+01  0.41348402481E+02  0.00000000000E+00 0.  1.
         14    1    4    4    0    0  0.10182588575E+02 -0.42718215303E+02  0.32307502234E+02  0.54518856640E+02  0.00000000000E+00 0. -1.
         -5    1    5    5    0  502 -0.26210697048E+02 -0.67249662748E+02 -0.13457798985E+02  0.73571190917E+02  0.47000000000E+01 0.  1.
         13    1    6    6    0    0 -0.10344409464E+03 -0.94728808346E+01  0.36465907216E+02  0.11009168260E+03  0.00000000000E+00 0. -1.
        -14    1    6    6    0    0 -0.48654723983E+02  0.27444372145E+02 -0.30149163509E+02  0.63477931509E+02  0.00000000000E+00 0.  1.
</event>
<event>
12    1  0.1039610E+000  0.1843199E+03  0.7818608E-02  0.1165425E+00
         21   -1    0    0  501  502  0.00000000000E+00  0.00000000000E+00  0.14771236915E+03  0.14771236915E+03  0.00000000000E+00 0.  1.
         21   -1    0    0  502  503 -0.00000000000E+00 -0.00000000000E+00 -0.39842206555E+03  0.39842206555E+03  0.00000000000E+00 0.  1.
         -6    2    1    2    0  503  0.48303438167E+02  0.42419635634E+02 -0.30893149915E+03  0.35973949004E+03  0.17274600402E+03 0.  0.
        -24    2    3    3    0    0  0.69087392785E+02 -0.29347221093E+02 -0.17363288311E+03  0.20511006207E+03  0.79293330344E+02 0.  0.
          6    2    1    2  501    0 -0.48303438167E+02 -0.42419635634E+02  0.58221802745E+02  0.18639494466E+03  0.16498681600E+03 0.  0.
         24    2    5    5    0    0 -0.64886340196E+01 -0.26071904197E+02 -0.29196812339E+02  0.88008815396E+02  0.78557311415E+02 0.  0.
          5    1    5    5  501    0 -0.41814804147E+02 -0.16347731437E+02  0.87418615084E+02  0.98386129267E+02  0.47000000000E+01 0. -1.
        -11    1    6    6    0    0  0.22101330264E+02  0.19193570562E+02 -0.13363484890E+02  0.32178326227E+02  0.00000000000E+00 0.  1.
         12    1    6    6    0    0 -0.28589964283E+02 -0.45265474758E+02 -0.15833327449E+02  0.55830489170E+02  0.00000000000E+00 0. -1.
         -5    1    3    3    0  503 -0.20783954619E+02  0.71766856727E+02 -0.13529861604E+03  0.15462942798E+03  0.47000000000E+01 0.  1.
         13    1    4    4    0    0  0.41424717090E+02 -0.41078362759E+01 -0.18556526653E+02  0.45576596914E+02  0.00000000000E+00 0. -1.
        -14    1    4    4    0    0  0.27662675696E+02 -0.25239384817E+02 -0.15507635645E+03  0.15953346515E+03  0.00000000000E+00 0.  1.
</event>
<event>
12    1  0.1039610E+000  0.1851501E+03  0.7818608E-02  0.1163262E+00
         21   -1    0    0  503  502  0.00000000000E+00  0.00000000000E+00  0.34667438624E+02  0.34667438624E+02  0.00000000000E+00 0. -1.
         21   -1    0    0  501  503 -0.00000000000E+00 -0.00000000000E+00 -0.99162304456E+03  0.99162304456E+03  0.00000000000E+00 0. -1.
          6    2    1    2  501    0  0.25705356839E+02 -0.62470707826E+02 -0.53393214267E+03  0.56512306286E+03  0.17238674105E+03 0.  0.
         24    2    3    3    0    0 -0.12208712974E+02  0.22269265874E+02 -0.25526081572E+03  0.27135761510E+03  0.88498013284E+02 0.  0.
         -6    2    1    2    0  502 -0.25705356839E+02  0.62470707826E+02 -0.42302346327E+03  0.46116742033E+03  0.17077231740E+03 0.  0.
        -24    2    5    5    0    0 -0.39924623156E+02 -0.14168733588E+02 -0.31634258669E+03  0.32896041997E+03  0.79671809387E+02 0.  0.
          5    1    3    3  501    0  0.37914069813E+02 -0.84739973700E+02 -0.27867132695E+03  0.29376544776E+03  0.47000000000E+01 0. -1.
        -13    1    4    4    0    0 -0.43245531712E+02 -0.92035345146E+01 -0.89802920227E+02  0.10009718049E+03  0.00000000000E+00 0.  1.
         14    1    4    4    0    0  0.31036818738E+02  0.31472800389E+02 -0.16545789550E+03  0.17126043461E+03  0.00000000000E+00 0. -1.
         -5    1    5    5    0  502  0.14219266317E+02  0.76639441415E+02 -0.10668087658E+03  0.13220700035E+03  0.47000000000E+01 0.  1.
         13    1    6    6    0    0 -0.26657877722E+02  0.30651638820E+02 -0.18884233583E+03  0.19316209051E+03  0.00000000000E+00 0. -1.
        -14    1    6    6    0    0 -0.13266745435E+02 -0.44820372408E+02 -0.12750025086E+03  0.13579832947E+03  0.00000000000E+00 0.  1.
</event>
<event>
12    1  0.1039610E+000  0.4825169E+03  0.7818608E-02  0.1018512E+00
         21   -1    0    0  501  502  0.00000000000E+00  0.00000000000E+00  0.97355142669E+02  0.97355142669E+02  0.00000000000E+00 0. -1.
         21   -1    0    0  502  503 -0.00000000000E+00 -0.00000000000E+00 -0.24510034264E+04  0.24510034264E+04  0.00000000000E+00 0. -1.
         -6    2    1    2    0  503 -0.44096075383E+03 -0.83137606189E+02 -0.97152896315E+03  0.10847539348E+04  0.17738186141E+03 0.  0.
        -24    2    3    3    0    0 -0.15974098926E+03 -0.37981778909E+02 -0.25572339229E+03  0.31434929433E+03  0.80381753542E+02 0.  0.
          6    2    1    2  501    0  0.44096075383E+03  0.83137606189E+02 -0.13821193205E+04  0.14636046343E+04  0.17471823392E+03 0.  0.
         24    2    5    5    0    0  0.40834385378E+03  0.54870228582E+02 -0.13355055983E+04  0.13999034890E+04  0.79994565785E+02 0.  0.
          5    1    5    5  501    0  0.32616900047E+02  0.28267377607E+02 -0.46613722225E+02  0.63701145241E+02  0.47000000000E+01 0. -1.
        -11    1    6    6    0    0  0.23327569085E+03  0.17186063662E+02 -0.62989051750E+03  0.67191887365E+03  0.00000000000E+00 0.  1.
         12    1    6    6    0    0  0.17506816293E+03  0.37684164920E+02 -0.70561508082E+03  0.72798461539E+03  0.00000000000E+00 0. -1.
         -5    1    3    3    0  503 -0.28121976457E+03 -0.45155827280E+02 -0.71580557086E+03  0.77040464043E+03  0.47000000000E+01 0.  1.
         11    1    4    4    0    0 -0.10676844165E+02  0.97138457507E+01 -0.70008111621E+02  0.71480693151E+02  0.00000000000E+00 0. -1.
        -12    1    4    4    0    0 -0.14906414510E+03 -0.47695624660E+02 -0.18571528067E+03  0.24286860118E+03  0.00000000000E+00 0.  1.
</event>
<event>
12    1  0.1039610E+000  0.3765672E+03  0.7818608E-02  0.1052225E+00
         21   -1    0    0  501  502  0.00000000000E+00  0.00000000000E+00  0.71963919423E+03  0.71963919423E+03  0.00000000000E+00 0. -1.
         21   -1    0    0  502  503 -0.00000000000E+00 -0.00000000000E+00 -0.19925686681E+03  0.19925686681E+03  0.00000000000E+00 0.  1.
         -6    2    1    2    0  503  0.25923052431E+03 -0.21200944028E+03  0.21096248694E+03  0.43163416025E+03  0.17220455831E+03 0.  0.
        -24    2    3    3    0    0  0.10607162972E+03 -0.98944211375E+02  0.16626005649E+03  0.23602794801E+03  0.83819080536E+02 0.  0.
          6    2    1    2  501    0 -0.25923052431E+03  0.21200944028E+03  0.30941984049E+03  0.48726190079E+03  0.17185765846E+03 0.  0.
         24    2    5    5    0    0 -0.20927703079E+03  0.19032608723E+03  0.31511863443E+03  0.43230659562E+03  0.86996228360E+02 0.  0.
          5    1    5    5  501    0 -0.49953493519E+02  0.21683353049E+02 -0.56987939482E+01  0.54955305173E+02  0.47000000000E+01 0. -1.
        -13    1    6    6    0    0 -0.76924561118E+02  0.20411313837E+02  0.69819394853E+02  0.10587142076E+03  0.00000000000E+00 0.  1.
         14    1    6    6    0    0 -0.13235246968E+03  0.16991477339E+03  0.24529923958E+03  0.32643517486E+03  0.00000000000E+00 0. -1.
         -5    1    3    3    0  503  0.15315889460E+03 -0.11306522890E+03  0.44702430446E+02  0.19560621224E+03  0.47000000000E+01 0.  1.
         11    1    4    4    0    0  0.44349040993E+02 -0.50348689594E+01  0.89272174107E+02  0.99808358429E+02  0.00000000000E+00 0. -1.
        -12    1    4    4    0    0  0.61722588723E+02 -0.93909342416E+02  0.76987882384E+02  0.13621958958E+03  0.00000000000E+00 0.  1.
</event>
<event>
12    1  0.1039610E+000  0.2423893E+03  0.7818608E-02  0.1118550E+00
         21   -1    0    0  503  502  0.00000000000E+00  0.00000000000E+00  0.16050510249E+04  0.16050510249E+04  0.00000000000E+00 0.  1.
         21   -1    0    0  501  503 -0.00000000000E+00 -0.00000000000E+00 -0.36426956030E+02  0.36426956030E+02  0.00000000000E+00 0.  1.
          6    2    1    2  501    0 -0.81221958583E+02 -0.14603272664E+03  0.83686868531E+03  0.87126445992E+03  0.17558473413E+03 0.  0.
         24    2    3    3    0    0 -0.90164300872E+02 -0.11409201185E+03  0.81379593840E+03  0.83058748367E+03  0.80406158636E+02 0.  0.
         -6    2    1    2    0  502  0.81221958583E+02  0.14603272664E+03  0.73175538360E+03  0.77021352105E+03  0.17274363310E+03 0.  0.
        -24    2    5    5    0    0  0.46831919814E+02  0.14910805938E+03  0.70455922198E+03  0.72601110432E+03  0.79132700168E+02 0.  0.
          5    1    3    3  501    0  0.89423422895E+01 -0.31940714794E+02  0.23072746910E+02  0.40676976254E+02  0.47000000000E+01 0. -1.
        -11    1    4    4    0    0 -0.13502198422E+02 -0.59679119618E+01  0.28678181568E+03  0.28716151403E+03  0.00000000000E+00 0.  1.
         12    1    4    4    0    0 -0.76662102450E+02 -0.10812409988E+03  0.52701412272E+03  0.54342596964E+03  0.00000000000E+00 0. -1.
         -5    1    5    5    0  502  0.34390038769E+02 -0.30753327401E+01  0.27196161621E+02  0.44202416731E+02  0.47000000000E+01 0.  1.
         11    1    6    6    0    0  0.51518945867E+02  0.57063118345E+02  0.41750322734E+03  0.42452249187E+03  0.00000000000E+00 0. -1.
        -12    1    6    6    0    0 -0.46870260529E+01  0.92044941035E+02  0.28705599464E+03  0.30148861246E+03  0.00000000000E+00 0.  1.
</event>
<event>
12    1  0.1039610E+000  0.1942097E+03  0.7818608E-02  0.1155031E+00
         21   -1    0    0  501  502  0.00000000000E+00  0.00000000000E+00  0.80612079804E+02  0.80612079804E+02  0.00000000000E+00 0.  1.
         21   -1    0    0  502  503 -0.00000000000E+00 -0.00000000000E+00 -0.56836878810E+03  0.56836878810E+03  0.00000000000E+00 0.  1.
         -6    2    1    2    0  503 -0.30712412135E+01 -0.90679767906E+02 -0.38335032528E+03  0.42973815219E+03  0.17171241866E+03 0.  0.
        -24    2    3    3    0    0 -0.16128921351E+01 -0.13022933146E+03 -0.28047370632E+03  0.31941143969E+03  0.79974293862E+02 0.  0.
          6    2    1    2  501    0  0.30712412135E+01  0.90679767906E+02 -0.10440638301E+03  0.21924271571E+03  0.17010121325E+03 0.  0.
         24    2    5    5    0    0 -0.47347835680E+02  0.68292473023E+01 -0.42957952324E+02  0.10360970678E+03  0.81247335401E+02 0.  0.
          5    1    5    5  501    0  0.50419076894E+02  0.83850520604E+02 -0.61448430687E+02  0.11563300893E+03  0.47000000000E+01 0. -1.
        -13    1    6    6    0    0 -0.50888123546E+02 -0.10038899118E+02 -0.60040681200E+02  0.79342699806E+02  0.00000000000E+00 0.  1.
         14    1    6    6    0    0  0.35402878660E+01  0.16868146420E+02  0.17082728876E+02  0.24267006978E+02  0.00000000000E+00 0. -1.
         -5    1    3    3    0  503 -0.14583490784E+01  0.39549563556E+02 -0.10287661897E+03  0.11032671249E+03  0.47000000000E+01 0.  1.
         13    1    4    4    0    0 -0.22679456680E+02 -0.45500786064E+02 -0.43652992704E+02  0.67009425156E+02  0.00000000000E+00 0. -1.
        -14    1    4    4    0    0  0.21066564545E+02 -0.84728545399E+02 -0.23682071361E+03  0.25240201454E+03  0.00000000000E+00 0.  1.
</event>
<event>
12    1  0.1039610E+000  0.2321237E+03  0.7818608E-02  0.1125265E+00
         21   -1    0    0  501  502  0.00000000000E+00  0.00000000000E+00  0.26779660483E+03  0.26779660483E+03  0.00000000000E+00 0.  1.
         21   -1    0    0  502  503 -0.00000000000E+00 -0.00000000000E+00 -0.24921796819E+03  0.24921796819E+03  0.00000000000E+00 0.  1.
         -6    2    1    2    0  503  0.11233217824E+03  0.10470223572E+03 -0.10481653357E+03  0.25469177838E+03  0.17406987055E+03 0.  0.
        -24    2    3    3    0    0  0.12023935935E+03  0.17280371889E+02 -0.62712330434E+02  0.15722404162E+03  0.77655959755E+02 0.  0.
          6    2    1    2  501    0 -0.11233217824E+03 -0.10470223572E+03  0.12339517021E+03  0.26232279463E+03  0.17322183500E+03 0.  0.
         24    2    5    5    0    0 -0.44635131619E+02  0.23302959897E+01  0.95286865734E+02  0.13251131692E+03  0.80510478049E+02 0.  0.
          5    1    5    5  501    0 -0.67697046622E+02 -0.10703253171E+03  0.28108304473E+02  0.12981147771E+03  0.47000000000E+01 0. -1.
        -13    1    6    6    0    0 -0.54757564567E+02  0.16061297049E+02  0.28895349526E+02  0.63963250109E+02  0.00000000000E+00 0.  1.
         14    1    6    6    0    0  0.10122432948E+02 -0.13731001060E+02  0.66391516208E+02  0.68548066809E+02  0.00000000000E+00 0. -1.
         -5    1    3    3    0  503 -0.79071811040E+01  0.87421863834E+02 -0.42104203133E+02  0.97467736768E+02  0.47000000000E+01 0.  1.
         13    1    4    4    0    0  0.10305410731E+03  0.23959796291E+02 -0.79457913540E+02  0.13231697131E+03  0.00000000000E+00 0. -1.
        -14    1    4    4    0    0  0.17185252038E+02 -0.66794244024E+01  0.16745583106E+02  0.24907070312E+02  0.00000000000E+00 0.  1.
</event>
<event>
12    1  0.1039610E+000  0.3082604E+03  0.7818608E-02  0.1081215E+00
         21   -1    0    0  503  502  0.00000000000E+00  0.00000000000E+00  0.28680795047E+03  0.28680795047E+03  0.00000000000E+00 0. -1.
         21   -1    0    0  501  503 -0.00000000000E+00 -0.00000000000E+00 -0.42785882880E+03  0.42785882880E+03  0.00000000000E+00 0. -1.
          6    2    1    2  501    0 -0.43726992680E+02  0.25211955267E+03 -0.24054226436E+03  0.39100520284E+03  0.17189580849E+03 0.  0.
         24    2    3    3    0    0  0.36253262760E+02  0.15027193476E+03 -0.16930812169E+03  0.24313305666E+03  0.80947450438E+02 0.  0.
         -6    2    1    2    0  502  0.43726992680E+02 -0.25211955267E+03  0.99491386024E+02  0.32366157643E+03  0.17141167241E+03 0.  0.
        -24    2    5    5    0    0 -0.28210705545E+02 -0.18342877016E+03  0.36359171843E+02  0.20575813078E+03  0.81070718372E+02 0.  0.
          5    1    3    3  501    0 -0.79980255440E+02  0.10184761791E+03 -0.71234142665E+02  0.14787214618E+03  0.47000000000E+01 0. -1.
        -13    1    4    4    0    0  0.24961897452E+02  0.15758688387E+03 -0.16359333823E+03  0.22851586949E+03  0.00000000000E+00 0.  1.
         14    1    4    4    0    0  0.11291365308E+02 -0.73149491066E+01 -0.57147834582E+01  0.14617187176E+02  0.00000000000E+00 0. -1.
         -5    1    5    5    0  502  0.71937698225E+02 -0.68690782513E+02  0.63132214181E+02  0.11790344565E+03  0.47000000000E+01 0.  1.
         13    1    6    6    0    0 -0.18503640823E+02 -0.18964489529E+03  0.37411464735E+02  0.19418338943E+03  0.00000000000E+00 0. -1.
        -14    1    6    6    0    0 -0.97070647214E+01  0.62161251353E+01 -0.10522928920E+01  0.11574741359E+02  0.00000000000E+00 0.  1.
</event>
<event>
12    1  0.1039610E+000  0.3747141E+03  0.7818608E-02  0.1052930E+00
         21   -1    0    0  501  502  0.00000000000E+00  0.00000000000E+00  0.48665030443E+03  0.48665030443E+03  0.00000000000E+00 0. -1.
         21   -1    0    0  502  503 -0.00000000000E+00 -0.00000000000E+00 -0.34733280758E+03  0.34733280758E+03  0.00000000000E+00 0.  1.
         -6    2    1    2    0  503  0.29839035733E+03 -0.14649494935E+03 -0.10224947027E+03  0.38815215464E+03  0.17236462935E+03 0.  0.
        -24    2    3    3    0    0  0.20965115389E+03 -0.12758938310E+03 -0.97648298944E+01  0.25850815992E+03  0.80613025210E+02 0.  0.
          6    2    1    2  501    0 -0.29839035733E+03  0.14649494935E+03  0.24156696712E+03  0.44583095736E+03  0.17295394591E+03 0.  0.
         24    2    5    5    0    0 -0.19666608989E+03  0.15103758474E+03  0.12007206790E+03  0.28723851536E+03  0.81232753848E+02 0.  0.
          5    1    5    5  501    0 -0.10172426744E+03 -0.45426353973E+01  0.12149489923E+03  0.15859244200E+03  0.47000000000E+01 0. -1.
        -11    1    6    6    0    0 -0.89132657820E+02  0.75526975901E+02  0.12636360451E+02  0.11751013737E+03  0.00000000000E+00 0.  1.
         12    1    6    6    0    0 -0.10753343207E+03  0.75510608844E+02  0.10743570745E+03  0.16972837799E+03  0.00000000000E+00 0. -1.
         -5    1    3    3    0  503  0.88739203434E+02 -0.18905566246E+02 -0.92484640379E+02  0.12964399472E+03  0.47000000000E+01 0.  1.
         13    1    4    4    0    0  0.54369956591E+02 -0.77226366941E+01  0.23161217460E+02  0.59600111505E+02  0.00000000000E+00 0. -1.
        -14    1    4    4    0    0  0.15528119730E+03 -0.11986674641E+03 -0.32926047354E+02  0.19890804842E+03  0.00000000000E+00 0.  1.
</event>
<event>
12    1  0.1039610E+000  0.1820710E+03  0.7818608E-02  0.1167591E+00
         21   -1    0    0  503  502  0.00000000000E+00  0.00000000000E+00  0.12345136716E+03  0.12345136716E+03  0.00000000000E+00 0. -1.
         21   -1    0    0  501  503 -0.00000000000E+00 -0.00000000000E+00 -0.35084964645E+03  0.35084964645E+03  0.00000000000E+00 0. -1.
          6    2    1    2  501    0  0.30190449364E+02  0.41448076548E+02  0.10070715786E+02  0.17506634700E+03  0.16708500906E+03 0.  0.
         24    2    3    3    0    0  0.50397762261E+02  0.46670613635E+02  0.59646379555E+02  0.12107146922E+03  0.79890734425E+02 0.  0.
         -6    2    1    2    0  502 -0.30190449364E+02 -0.41448076548E+02 -0.23746899508E+03  0.29923466661E+03  0.17470104692E+03 0.  0.
        -24    2    5    5    0    0 -0.23265080993E+02  0.43375599666E+02 -0.79191778928E+02  0.11946597099E+03  0.74686503025E+02 0.  0.
          5    1    3    3  501    0 -0.20207312897E+02 -0.52225370868E+01 -0.49575663769E+02  0.53994877778E+02  0.47000000000E+01 0. -1.
        -13    1    4    4    0    0  0.38377856696E+02  0.46417327917E+02  0.26954086447E-02  0.60228134811E+02  0.00000000000E+00 0.  1.
         14    1    4    4    0    0  0.12019905565E+02  0.25328571809E+00  0.59643684147E+02  0.60843334409E+02  0.00000000000E+00 0. -1.
         -5    1    5    5    0  502 -0.69253683706E+01 -0.84823676214E+02 -0.15827721615E+03  0.17976869562E+03  0.47000000000E+01 0.  1.
         13    1    6    6    0    0 -0.44722613763E+02  0.48132631074E+02 -0.68872335944E+02  0.95185403368E+02  0.00000000000E+00 0. -1.
        -14    1    6    6    0    0  0.21457532770E+02 -0.47570314085E+01 -0.10319442984E+02  0.24280567619E+02  0.00000000000E+00 0.  1.
</event>
<event>
12    1  0.1039610E+000  0.3486330E+03  0.7818608E-02  0.1063253E+00
         21   -1    0    0  503  502  0.00000000000E+00  0.00000000000E+00  0.76296348524E+03  0.76296348524E+03  0.00000000000E+00 0.  1.
         21   -1    0    0  501  503 -0.00000000000E+00 -0.00000000000E+00 -0.15897863084E+03  0.15897863084E+03  0.00000000000E+00 0.  1.
          6    2    1    2  501    0  0.11272910789E+02  0.30254149569E+03  0.29837059684E+03  0.45832048818E+03  0.17138909445E+03 0.  0.
         24    2    3    3    0    0 -0.59688567014E+02  0.15913694752E+03  0.17109298244E+03  0.25381602150E+03  0.79135775908E+02 0.  0.
         -6    2    1    2    0  502 -0.11272910789E+02 -0.30254149569E+03  0.30561425756E+03  0.46362162790E+03  0.17287713642E+03 0.  0.
        -24    2    5    5    0    0 -0.28269527669E+02 -0.19989697105E+03  0.28366549550E+03  0.35718563032E+03  0.79733907089E+02 0.  0.
          5    1    3    3  501    0  0.70961477803E+02  0.14340454817E+03  0.12727761439E+03  0.20450446668E+03  0.47000000000E+01 0. -1.
        -13    1    4    4    0    0 -0.11570907224E+02  0.41655123746E+01 -0.59472721167E+01  0.13660433118E+02  0.00000000000E+00 0.  1.
         14    1    4    4    0    0 -0.48117659790E+02  0.15497143515E+03  0.17704025456E+03  0.24015558838E+03  0.00000000000E+00 0. -1.
         -5    1    5    5    0  502  0.16996616881E+02 -0.10264452464E+03  0.21948762060E+02  0.10643599758E+03  0.47000000000E+01 0.  1.
         11    1    6    6    0    0 -0.13765938575E+02 -0.61578217856E+02  0.34705468248E+02  0.72012828756E+02  0.00000000000E+00 0. -1.
        -12    1    6    6    0    0 -0.14503589094E+02 -0.13831875319E+03  0.24896002725E+03  0.28517280156E+03  0.00000000000E+00 0.  1.
</event>
<event>
12    1  0.1039610E+000  0.2261407E+03  0.7818608E-02  0.1129540E+00
         21   -1    0    0  501  502  0.00000000000E+00  0.00000000000E+00  0.14549204779E+03  0.14549204779E+03  0.00000000000E+00 0. -1.
         21   -1    0    0  502  503 -0.00000000000E+00 -0.00000000000E+00 -0.35302793829E+03  0.35302793829E+03  0.00000000000E+00 0. -1.
         -6    2    1    2    0  503  0.31585173528E+02  0.14156672521E+03 -0.12639393896E+03  0.25906575367E+03  0.17349604043E+03 0.  0.
        -24    2    3    3    0    0 -0.62635051957E+01  0.10372265896E+03 -0.15107048568E+03  0.19994115820E+03  0.79727997716E+02 0.  0.
          6    2    1    2  501    0 -0.31585173528E+02 -0.14156672521E+03 -0.81141951548E+02  0.23945423242E+03  0.17238199514E+03 0.  0.
         24    2    5    5    0    0 -0.84644961219E+02 -0.78380559739E+02 -0.86701736046E+02  0.15662408223E+03  0.60873890108E+02 0.  0.
          5    1    5    5  501    0  0.53059787691E+02 -0.63186165467E+02  0.55597844982E+01  0.82830150187E+02  0.47000000000E+01 0. -1.
        -11    1    6    6    0    0 -0.26907542945E+02 -0.44781444813E+02 -0.70741779932E+02  0.87941987099E+02  0.00000000000E+00 0.  1.
         12    1    6    6    0    0 -0.57737418274E+02 -0.33599114926E+02 -0.15959956114E+02  0.68682095134E+02  0.00000000000E+00 0. -1.
         -5    1    3    3    0  503  0.37848678724E+02  0.37844066249E+02  0.24676546721E+02  0.59124595470E+02  0.47000000000E+01 0.  1.
         11    1    4    4    0    0  0.12081448938E+02 -0.91523415177E+01 -0.28686611395E+02  0.32444544025E+02  0.00000000000E+00 0. -1.
        -12    1    4    4    0    0 -0.18344954134E+02  0.11287500048E+03 -0.12238387428E+03  0.16749661417E+03  0.00000000000E+00 0.  1.
</event>
<event>
12    1  0.1039610E+000  0.1804747E+03  0.7818608E-02  0.1167577E+00
         21   -1    0    0  503  502  0.00000000000E+00  0.00000000000E+00  0.18920286822E+03  0.18920286822E+03  0.00000000000E+00 0. -1.
         21   -1    0    0  501  503 -0.00000000000E+00 -0.00000000000E+00 -0.20375189272E+03  0.20375189272E+03  0.00000000000E+00 0. -1.
          6    2    1    2  501    0 -0.29291367829E+02  0.44213809773E+02  0.71201505141E+02  0.19401231561E+03  0.17250588126E+03 0.  0.
         24    2    3    3    0    0 -0.38586223684E+02  0.90270292466E+02  0.32930623582E+02  0.13323119750E+03  0.83836171532E+02 0.  0.
         -6    2    1    2    0  502  0.29291367829E+02 -0.44213809773E+02 -0.85750529641E+02  0.19894244532E+03  0.17149955689E+03 0.  0.
        -24    2    5    5    0    0 -0.47637205344E+01 -0.54632369537E+01  0.18381814648E+02  0.82636851889E+02  0.80239754417E+02 0.  0.
          5    1    3    3  501    0  0.92948558546E+01 -0.46056482693E+02  0.38270881559E+02  0.60781118110E+02  0.47000000000E+01 0. -1.
        -13    1    4    4    0    0 -0.51437816726E+02  0.78399383747E+02  0.52107369797E+02  0.10727297119E+03  0.00000000000E+00 0.  1.
         14    1    4    4    0    0  0.12851593042E+02  0.11870908720E+02 -0.19176746215E+02  0.25958226306E+02  0.00000000000E+00 0. -1.
         -5    1    5    5    0  502  0.34055088364E+02 -0.38750572820E+02 -0.10413234429E+03  0.11630559344E+03  0.47000000000E+01 0.  1.
         11    1    6    6    0    0 -0.27142819388E+02 -0.34393974988E+02  0.12735251483E+02  0.45627456538E+02  0.00000000000E+00 0. -1.
        -12    1    6    6    0    0  0.22379098853E+02  0.28930738034E+02  0.56465631654E+01  0.37009395351E+02  0.00000000000E+00 0.  1.
</event>
<event>
12    1  0.1039610E+000  0.2057987E+03  0.7818608E-02  0.1145090E+00
         21   -1    0    0  501  502  0.00000000000E+00  0.00000000000E+00  0.35860370074E+03  0.35860370074E+03  0.00000000000E+00 0.  1.
         21   -1    0    0  502  503 -0.00000000000E+00 -0.00000000000E+00 -0.12260661382E+03  0.12260661382E+03  0.00000000000E+00 0.  1.
         -6    2    1    2    0  503  0.93278824422E+02  0.60911341191E+02  0.69526536387E+02  0.21651132726E+03  0.17213972523E+03 0.  0.
        -24    2    3    3    0    0  0.39863204890E+02  0.44743614315E+02  0.10830991794E+03  0.14838743654E+03  0.81833531482E+02 0.  0.
          6    2    1    2  501    0 -0.93278824422E+02 -0.60911341191E+02  0.16647055053E+03  0.26469898729E+03  0.17303750781E+03 0.  0.
         24    2    5    5    0    0 -0.27645074453E+02  0.31263291569E+02  0.91858203643E+02  0.12907802886E+03  0.80508163663E+02 0.  0.
          5    1    5    5  501    0 -0.65633749969E+02 -0.92174632760E+02  0.74612346882E+02  0.13562095843E+03  0.47000000000E+01 0. -1.
        -11    1    6    6    0    0 -0.10609386425E+02  0.94973641732E+01  0.99410238738E+02  0.10042487029E+03  0.00000000000E+00 0.  1.
         12    1    6    6    0    0 -0.17035688028E+02  0.21765927396E+02 -0.75520350949E+01  0.28653158570E+02  0.00000000000E+00 0. -1.
         -5    1    3    3    0  503  0.53415619532E+02  0.16167726876E+02 -0.38783381550E+02  0.68123890720E+02  0.47000000000E+01 0.  1.
         11    1    4    4    0    0  0.63815162544E+02  0.21228868784E+02  0.64371565967E+02  0.93095318601E+02  0.00000000000E+00 0. -1.
        -12    1    4    4    0    0 -0.23951957654E+02  0.23514745531E+02  0.43938351970E+02  0.55292117944E+02  0.00000000000E+00 0.  1.
</event>
<event>
12    1  0.1039610E+000  0.1963872E+03  0.7818608E-02  0.1153036E+00
         21   -1    0    0  503  502  0.00000000000E+00  0.00000000000E+00  0.38449320526E+03  0.38449320526E+03  0.00000000000E+00 0. -1.
         21   -1    0    0  501  503 -0.00000000000E+00 -0.00000000000E+00 -0.15781190139E+03  0.15781190139E+03  0.00000000000E+00 0. -1.
          6    2    1    2  501    0 -0.31170101111E+02  0.89550299679E+02  0.27790900563E+03  0.34029594692E+03  0.17197989623E+03 0.  0.
         24    2    3    3    0    0 -0.33678117168E+02  0.12355729379E+03  0.26390846227E+03  0.30313587417E+03  0.76439919690E+02 0.  0.
         -6    2    1    2    0  502  0.31170101111E+02 -0.89550299679E+02 -0.51227701756E+02  0.20200915972E+03  0.17085839695E+03 0.  0.
        -24    2    5    5    0    0 -0.20773470782E+02 -0.10174631975E+03 -0.49636964227E+02  0.14842279940E+03  0.93710450281E+02 0.  0.
          5    1    3    3  501    0  0.25080160561E+01 -0.34006994112E+02  0.14000543354E+02  0.37160072757E+02  0.47000000000E+01 0. -1.
        -11    1    4    4    0    0 -0.22965116811E+02  0.10815439380E+02  0.14534289545E+02  0.29250912665E+02  0.00000000000E+00 0.  1.
         12    1    4    4    0    0 -0.10713000356E+02  0.11274185441E+03  0.24937417273E+03  0.27388496150E+03  0.00000000000E+00 0. -1.
         -5    1    5    5    0  502  0.51943571893E+02  0.12196020076E+02 -0.15907375281E+01  0.53586360322E+02  0.47000000000E+01 0.  1.
         13    1    6    6    0    0  0.27702281320E+02 -0.83431608238E+02 -0.27938933741E+02  0.92243339392E+02  0.00000000000E+00 0. -1.
        -14    1    6    6    0    0 -0.48475752102E+02 -0.18314711516E+02 -0.21698030486E+02  0.56179460007E+02  0.00000000000E+00 0.  1.
</event>
<event>
12    1  0.1039610E+000  0.1951501E+03  0.7818608E-02  0.1154500E+00
         21   -1    0    0  501  502  0.00000000000E+00  0.00000000000E+00  0.21592318282E+03  0.21592318282E+03  0.00000000000E+00 0. -1.
         21   -1    0    0  502  503 -0.00000000000E+00 -0.00000000000E+00 -0.22619400430E+03  0.22619400430E+03  0.00000000000E+00 0. -1.
         -6    2    1    2    0  503  0.64825339069E+02  0.51800400764E+02  0.10118294443E+03  0.21738286572E+03  0.17358489554E+03 0.  0.
        -24    2    3    3    0    0  0.77898652453E+02  0.50427144497E+02  0.73710291061E+01  0.12253792483E+03  0.79687602521E+02 0.  0.
          6    2    1    2  501    0 -0.64825339069E+02 -0.51800400764E+02 -0.11145376591E+03  0.22473432141E+03  0.17662946294E+03 0.  0.
         24    2    5    5    0    0 -0.95862032929E+02 -0.57386145356E+02 -0.33578803931E+02  0.14058518825E+03  0.78447179966E+02 0.  0.
          5    1    5    5  501    0  0.31036693860E+02  0.55857445915E+01 -0.77874961979E+02  0.84149133160E+02  0.47000000000E+01 0. -1.
        -13    1    6    6    0    0 -0.31414660729E+02 -0.55254202343E+02  0.76952180356E+01  0.64024402894E+02  0.00000000000E+00 0.  1.
         14    1    6    6    0    0 -0.64447372200E+02 -0.21319430130E+01 -0.41274021966E+02  0.76560785352E+02  0.00000000000E+00 0. -1.
         -5    1    3    3    0  503 -0.13073313384E+02  0.13732562669E+01  0.93811915323E+02  0.94844940889E+02  0.47000000000E+01 0.  1.
         13    1    4    4    0    0 -0.71594656042E+01 -0.11964642659E+02 -0.77817163602E+01  0.15967646389E+02  0.00000000000E+00 0. -1.
        -14    1    4    4    0    0  0.85058118057E+02  0.62391787156E+02  0.15152745466E+02  0.10657027844E+03  0.00000000000E+00 0.  1.
</event>
<event>
12    1  0.1039610E+000  0.1874537E+03  0.7818608E-02  0.1161062E+00
         21   -1    0    0  501  502  0.00000000000E+00  0.00000000000E+00  0.12339949656E+03  0.12339949656E+03  0.00000000000E+00 0.  1.
         21   -1    0    0  502  503 -0.00000000000E+00 -0.00000000000E+00 -0.28364354612E+03  0.28364354612E+03  0.00000000000E+00 0.  1.
         -6    2    1    2    0  503 -0.39131477392E+02 -0.62093867168E+02 -0.69369827188E+02  0.19872351957E+03  0.17114889261E+03 0.  0.
        -24    2    3    3    0    0  0.25376561804E+02 -0.84175035773E+02 -0.42089926360E+02  0.12513582958E+03  0.78472972467E+02 0.  0.
          6    2    1    2  501    0  0.39131477392E+02  0.62093867168E+02 -0.90874222367E+02  0.20831952311E+03  0.17248761856E+03 0.  0.
         24    2    5    5    0    0 -0.22027216533E+02  0.86365261120E+02 -0.65335864474E+02  0.13758209221E+03  0.81950596785E+02 0.  0.
          5    1    5    5  501    0  0.61158693926E+02 -0.24271393952E+02 -0.25538357893E+02  0.70737430904E+02  0.47000000000E+01 0. -1.
        -13    1    6    6    0    0 -0.17663131089E+02  0.23179961997E+02 -0.68216511548E+02  0.74180787848E+02  0.00000000000E+00 0.  1.
         14    1    6    6    0    0 -0.43640854442E+01  0.63185299123E+02  0.28806470734E+01  0.63401304360E+02  0.00000000000E+00 0. -1.
         -5    1    3    3    0  503 -0.64508039196E+02  0.22081168605E+02 -0.27279900828E+02  0.73587689983E+02  0.47000000000E+01 0.  1.
         11    1    4    4    0    0  0.34863066108E+02 -0.62803942403E+02  0.55721318725E+01  0.72047326206E+02  0.00000000000E+00 0. -1.
        -12    1    4    4    0    0 -0.94865043040E+01 -0.21371093370E+02 -0.47662058232E+02  0.53088503376E+02  0.00000000000E+00 0.  1.
</event>
<event>
12    1  0.1039610E+000  0.2272928E+03  0.7818608E-02  0.1131279E+00
         21   -1    0    0  503  502  0.00000000000E+00  0.00000000000E+00  0.10400988306E+04  0.10400988306E+04  0.00000000000E+00 0.  1.
         21   -1    0    0  501  503 -0.00000000000E+00 -0.00000000000E+00 -0.46759371157E+02  0.46759371157E+02  0.00000000000E+00 0.  1.
          6    2    1    2  501    0  0.12243411568E+03 -0.29406391502E+02  0.44075338217E+03  0.48935221030E+03  0.17131022528E+03 0.  0.
         24    2    3    3    0    0  0.69729997388E+02 -0.75516620017E+02  0.35369728362E+03  0.37752765327E+03  0.82827097705E+02 0.  0.
         -6    2    1    2    0  502 -0.12243411568E+03  0.29406391502E+02  0.55258607726E+03  0.59750599145E+03  0.18922787450E+03 0.  0.
        -24    2    5    5    0    0 -0.85101824472E+02  0.95288732767E+02  0.35221733525E+03  0.38325402382E+03  0.80649441422E+02 0.  0.
          5    1    3    3  501    0  0.52704118289E+02  0.46110228515E+02  0.87056098551E+02  0.11182455702E+03  0.47000000000E+01 0. -1.
        -13    1    4    4    0    0  0.55648178100E+00 -0.55929553701E+02  0.10936436332E+03  0.12283724441E+03  0.00000000000E+00 0.  1.
         14    1    4    4    0    0  0.69173515607E+02 -0.19587066316E+02  0.24433292029E+03  0.25469040886E+03  0.00000000000E+00 0. -1.
         -5    1    5    5    0  502 -0.37332291205E+02 -0.65882341265E+02  0.20036874201E+03  0.21425196763E+03  0.47000000000E+01 0.  1.
         13    1    6    6    0    0 -0.91745527874E+01  0.29349603052E+02  0.18943097097E+03  0.19191056350E+03  0.00000000000E+00 0. -1.
        -14    1    6    6    0    0 -0.75927271685E+02  0.65939129715E+02  0.16278636428E+03  0.19134346032E+03  0.00000000000E+00 0.  1.
</event>
<event>
12    1  0.1039610E+000  0.2225733E+03  0.7818608E-02  0.1132182E+00
         21   -1    0    0  503  502  0.00000000000E+00  0.00000000000E+00  0.37652931004E+03  0.37652931004E+03  0.00000000000E+00 0.  1.
         21   -1    0    0  501  503 -0.00000000000E+00 -0.00000000000E+00 -0.13827485405E+03  0.13827485405E+03  0.00000000000E+00 0.  1.
          6    2    1    2  501    0 -0.63726693473E+02 -0.12553294605E+03  0.60028151008E+02  0.23052603933E+03  0.17239276055E+03 0.  0.
         24    2    3    3    0    0 -0.89634872167E+02 -0.11489479331E+03  0.90656395289E+02  0.18875782935E+03  0.78585700324E+02 0.  0.
         -6    2    1    2    0  502  0.63726693473E+02  0.12553294605E+03  0.17822630499E+03  0.28427812476E+03  0.17096731975E+03 0.  0.
        -24    2    5    5    0    0  0.55496303875E+02  0.15380088989E+03  0.11425225176E+03  0.21369777730E+03  0.76672090840E+02 0.  0.
          5    1    3    3  501    0  0.25908178694E+02 -0.10638152738E+02 -0.30628244281E+02  0.41768209976E+02  0.47000000000E+01 0. -1.
        -13    1    4    4    0    0 -0.47123708356E+00  0.10620569895E+02  0.11421423223E+02  0.15603444419E+02  0.00000000000E+00 0.  1.
         14    1    4    4    0    0 -0.89163635083E+02 -0.12551536321E+03  0.79234972066E+02  0.17315438493E+03  0.00000000000E+00 0. -1.
         -5    1    5    5    0  502  0.82303895977E+01 -0.28267943841E+02  0.63974053225E+02  0.70580347463E+02  0.47000000000E+01 0.  1.
         11    1    6    6    0    0 -0.14284613179E+02  0.14188251094E+02 -0.22734723318E+00  0.20134754271E+02  0.00000000000E+00 0. -1.
        -12    1    6    6    0    0  0.69780917055E+02  0.13961263880E+03  0.11447959899E+03  0.19356302303E+03  0.00000000000E+00 0.  1.
</event>
<event>
12    1  0.1039610E+000  0.3573868E+03  0.7818608E-02  0.1059734E+00
         21   -1    0    0  501  502  0.00000000000E+00  0.00000000000E+00  0.78730804538E+02  0.78730804538E+02  0.00000000000E+00 0.  1.
         21   -1    0    0  502  503 -0.00000000000E+00 -0.00000000000E+00 -0.23307778109E+04  0.23307778109E+04  0.00000000000E+00 0.  1.
         -6    2    1    2    0  503 -0.19413804039E+03  0.24458958572E+03 -0.45826056761E+03  0.58046649331E+03  0.17153704515E+03 0.  0.
        -24    2    3    3    0    0 -0.18650842556E+03  0.13445839690E+03 -0.34206644405E+03  0.42012231935E+03  0.81417797629E+02 0.  0.
          6    2    1    2  501    0  0.19413804039E+03 -0.24458958572E+03 -0.17937864388E+04  0.18290421222E+04  0.17381499507E+03 0.  0.
         24    2    5    5    0    0  0.22776617516E+02 -0.12269332018E+03 -0.60871630228E+03  0.62544885397E+03  0.71262242102E+02 0.  0.
          5    1    5    5  501    0  0.17136142288E+03 -0.12189626553E+03 -0.11850701365E+04  0.12035932682E+04  0.47000000000E+01 0. -1.
        -11    1    6    6    0    0  0.44919340579E+01  0.74936903405E+01 -0.15063953769E+02  0.17414234685E+02  0.00000000000E+00 0.  1.
         12    1    6    6    0    0  0.18284683458E+02 -0.13018701053E+03 -0.59365234851E+03  0.60803461929E+03  0.00000000000E+00 0. -1.
         -5    1    3    3    0  503 -0.76296148312E+01  0.11013118881E+03 -0.11619412356E+03  0.16034417395E+03  0.47000000000E+01 0.  1.
         11    1    4    4    0    0 -0.92290092816E+02  0.44646917930E+02 -0.21512475372E+03  0.23830540946E+03  0.00000000000E+00 0. -1.
        -12    1    4    4    0    0 -0.94218332745E+02  0.89811478974E+02 -0.12694169033E+03  0.18181690989E+03  0.00000000000E+00 0.  1.
</event>
<event>
12    1  0.1039610E+000  0.1976453E+03  0.7818608E-02  0.1152371E+00
         21   -1    0    0  503  502  0.00000000000E+00  0.00000000000E+00  0.88994156409E+03  0.88994156409E+03  0.00000000000E+00 0.  1.
         21   -1    0    0  501  503 -0.00000000000E+00 -0.00000000000E+00 -0.49850159448E+02  0.49850159448E+02  0.00000000000E+00 0.  1.
          6    2    1    2  501    0  0.94000567426E+02 -0.19320503733E+02  0.58832145519E+03  0.61971084088E+03  0.16944026419E+03 0.  0.
         24    2    3    3    0    0  0.10611719992E+03 -0.82160727487E+01  0.58779830995E+03  0.60260865239E+03  0.79384953092E+02 0.  0.
         -6    2    1    2    0  502 -0.94000567426E+02  0.19320503733E+02  0.25176994946E+03  0.32008088266E+03  0.17278389814E+03 0.  0.
        -24    2    5    5    0    0 -0.20979285799E+02  0.46542257652E+02  0.54072122657E+02  0.10752582585E+03  0.77663998064E+02 0.  0.
          5    1    3    3  501    0 -0.12116632490E+02 -0.11104430984E+02  0.52314523736E+00  0.17102188495E+02  0.47000000000E+01 0. -1.
        -13    1    4    4    0    0  0.54848898835E+02  0.30432825491E+02  0.20233450288E+03  0.21183439198E+03  0.00000000000E+00 0.  1.
         14    1    4    4    0    0  0.51268301081E+02 -0.38648898240E+02  0.38546380707E+03  0.39077426040E+03  0.00000000000E+00 0. -1.
         -5    1    5    5    0  502 -0.73021281626E+02 -0.27221753919E+02  0.19769782680E+03  0.21255505681E+03  0.47000000000E+01 0.  1.
         11    1    6    6    0    0 -0.13716743883E+02 -0.20939990515E+02  0.13245131313E+02  0.28320765686E+02  0.00000000000E+00 0. -1.
        -12    1    6    6    0    0 -0.72625419165E+01  0.67482248167E+02  0.40826991344E+02  0.79205060160E+02  0.00000000000E+00 0.  1.
</event>
<event>
12    1  0.1039610E+000  0.6275072E+03  0.7818608E-02  0.9849955E-01
         21   -1    0    0  501  502  0.00000000000E+00  0.00000000000E+00  0.63546388039E+03  0.63546388039E+03  0.00000000000E+00 0. -1.
         21   -1    0    0  502  503 -0.00000000000E+00 -0.00000000000E+00 -0.73342837556E+03  0.73342837556E+03  0.00000000000E+00 0. -1.
         -6    2    1    2    0  503  0.54594825176E+03  0.25614068382E+03  0.22066781734E+03  0.66517632504E+03  0.17348692827E+03 0.  0.
        -24    2    3    3    0    0  0.12669589009E+03  0.40362453719E+02  0.58555505217E+02  0.16654291352E+03  0.81405273876E+02 0.  0.
          6    2    1    2  501    0 -0.54594825176E+03 -0.25614068382E+03 -0.31863231251E+03  0.70371593092E+03  0.17326862769E+03 0.  0.
         24    2    5    5    0    0 -0.14674185547E+03 -0.83138345086E+02 -0.15538293930E+03  0.23899235297E+03  0.67292870211E+02 0.  0.
          5    1    5    5  501    0 -0.39920639629E+03 -0.17300233873E+03 -0.16324937321E+03  0.46472357795E+03  0.47000000000E+01 0. -1.
        -13    1    6    6    0    0 -0.11531952362E+03 -0.90805873604E+02 -0.11076244429E+03  0.18388207708E+03  0.00000000000E+00 0.  1.
         14    1    6    6    0    0 -0.31422331850E+02  0.76675285187E+01 -0.44620495019E+02  0.55110275886E+02  0.00000000000E+00 0. -1.
         -5    1    3    3    0  503  0.41925236167E+03  0.21577823010E+03  0.16211231213E+03  0.49863341153E+03  0.47000000000E+01 0.  1.
         13    1    4    4    0    0  0.53923371218E+02  0.33691623378E+02 -0.12291499847E+02  0.64760608535E+02  0.00000000000E+00 0. -1.
        -14    1    4    4    0    0  0.72772518874E+02  0.66708303407E+01  0.70847005064E+02  0.10178230498E+03  0.00000000000E+00 0.  1.
</event>
<event>
12    1  0.1039610E+000  0.1748604E+03  0.7818608E-02  0.1172960E+00
         21   -1    0    0  503  502  0.00000000000E+00  0.00000000000E+00  0.21822511485E+03  0.21822511485E+03  0.00000000000E+00 0.  1.
         21   -1    0    0  501  503 -0.00000000000E+00 -0.00000000000E+00 -0.16424269961E+03  0.16424269961E+03  0.00000000000E+00 0.  1.
          6    2    1    2  501    0 -0.32927031050E+02 -0.23171458225E+02  0.10073586621E+03  0.20180157709E+03  0.17016185215E+03 0.  0.
         24    2    3    3    0    0 -0.81690524875E+01 -0.34271736898E+02 -0.10620002694E+02  0.87091537306E+02  0.78935834984E+02 0.  0.
         -6    2    1    2    0  502  0.32927031050E+02  0.23171458225E+02 -0.46753450955E+02  0.18066623737E+03  0.16980370520E+03 0.  0.
        -24    2    5    5    0    0  0.48424267196E+02 -0.28955075036E+02 -0.66154586432E+01  0.11291309556E+03  0.97582256749E+02 0.  0.
          5    1    3    3  501    0 -0.24757978563E+02  0.11100278673E+02  0.11135586890E+03  0.11471003979E+03  0.47000000000E+01 0. -1.
        -11    1    4    4    0    0  0.29419085401E+02 -0.28133726035E+01  0.13467679093E+02  0.32477315643E+02  0.00000000000E+00 0.  1.
         12    1    4    4    0    0 -0.37588137888E+02 -0.31458364294E+02 -0.24087681788E+02  0.54614221663E+02  0.00000000000E+00 0. -1.
         -5    1    5    5    0  502 -0.15497236145E+02  0.52126533261E+02 -0.40137992312E+02  0.67753141808E+02  0.47000000000E+01 0.  1.
         13    1    6    6    0    0 -0.16379887431E+02 -0.42378239995E+02 -0.10458540233E+02  0.46621851112E+02  0.00000000000E+00 0. -1.
        -14    1    6    6    0    0  0.64804154627E+02  0.13423164958E+02  0.38430815897E+01  0.66291244448E+02  0.00000000000E+00 0.  1.
</event>
<event>
12    1  0.1039610E+000  0.2067830E+03  0.7818608E-02  0.1144884E+00
         21   -1    0    0  503  502  0.00000000000E+00  0.00000000000E+00  0.64397540716E+03  0.64397540716E+03  0.00000000000E+00 0.  1.
         21   -1    0    0  501  503 -0.00000000000E+00 -0.00000000000E+00 -0.77709835819E+02  0.77709835819E+02  0.00000000000E+00 0.  1.
          6    2    1    2  501    0 -0.80795299178E+02  0.74409610136E+02  0.42985039949E+03  0.47700163977E+03  0.17519853865E+03 0.  0.
         24    2    3    3    0    0 -0.88482391856E+02  0.27629785096E+02  0.40370878845E+03  0.42266088846E+03  0.84076762972E+02 0.  0.
         -6    2    1    2    0  502  0.80795299178E+02 -0.74409610136E+02  0.13641517184E+03  0.24468360321E+03  0.17086923690E+03 0.  0.
        -24    2    5    5    0    0 -0.22848729462E+02 -0.38087152783E+02  0.76859465362E+02  0.11966209404E+03  0.80243028911E+02 0.  0.
          5    1    3    3  501    0  0.76870926782E+01  0.46779825040E+02  0.26141611048E+02  0.54340751309E+02  0.47000000000E+01 0. -1.
        -11    1    4    4    0    0 -0.39775821971E+02  0.46065272075E+02  0.12383250073E+03  0.13798048247E+03  0.00000000000E+00 0.  1.
         12    1    4    4    0    0 -0.48706569884E+02 -0.18435486979E+02  0.27987628772E+03  0.28468040599E+03  0.00000000000E+00 0. -1.
         -5    1    5    5    0  502  0.10364402864E+03 -0.36322457353E+02  0.59555706481E+02  0.12502150917E+03  0.47000000000E+01 0.  1.
         11    1    6    6    0    0  0.24702783600E+01 -0.37577275815E+02 -0.11185608708E+01  0.37674993182E+02  0.00000000000E+00 0. -1.
        -12    1    6    6    0    0 -0.25319007822E+02 -0.50987696771E+00  0.77978026233E+02  0.81987100856E+02  0.00000000000E+00 0.  1.
</event>
<event>
12    1  0.1039610E+000  0.4680648E+03  0.7818608E-02  0.1022485E+00
         21   -1    0    0  503  502  0.00000000000E+00  0.00000000000E+00  0.20059588467E+03  0.20059588467E+03  0.00000000000E+00 0. -1.
         21   -1    0    0  501  503 -0.00000000000E+00 -0.00000000000E+00 -0.11103486005E+04  0.11103486005E+04  0.00000000000E+00 0.  1.
          6    2    1    2  501    0  0.37165690548E+03  0.22612915943E+03 -0.53992617244E+03  0.71440754971E+03  0.17203087879E+03 0.  0.
         24    2    3    3    0    0  0.18468641018E+03  0.18533234069E+03 -0.29835076299E+03  0.40618179643E+03  0.86679451796E+02 0.  0.
         -6    2    1    2    0  502 -0.37165690548E+03 -0.22612915943E+03 -0.36982654340E+03  0.59653693548E+03  0.17268871142E+03 0.  0.
        -24    2    5    5    0    0 -0.37324987938E+03 -0.19817306637E+03 -0.37174040954E+03  0.56807936023E+03  0.77040189142E+02 0.  0.
          5    1    3    3  501    0  0.18697049530E+03  0.40796818740E+02 -0.24157540945E+03  0.30822575328E+03  0.47000000000E+01 0. -1.
        -13    1    4    4    0    0  0.31543812868E+02  0.40484256104E+02 -0.15869223831E+02  0.53719823041E+02  0.00000000000E+00 0.  1.
         14    1    4    4    0    0  0.15314259731E+03  0.14484808459E+03 -0.28248153916E+03  0.35246197339E+03  0.00000000000E+00 0. -1.
         -5    1    5    5    0  502  0.15929739045E+01 -0.27956093063E+02  0.19138661422E+01  0.28457575244E+02  0.47000000000E+01 0.  1.
         13    1    6    6    0    0 -0.14714310585E+03 -0.12091490617E+03 -0.17281830425E+03  0.25717246046E+03  0.00000000000E+00 0. -1.
        -14    1    6    6    0    0 -0.22610677353E+03 -0.77258160194E+02 -0.19892210529E+03  0.31090689977E+03  0.00000000000E+00 0.  1.
</event>
<event>
12    1  0.1039610E+000  0.2189539E+03  0.7818608E-02  0.1135722E+00
         21   -1    0    0  503  502  0.00000000000E+00  0.00000000000E+00  0.18094944242E+04  0.18094944242E+04  0.00000000000E+00 0.  1.
         21   -1    0    0  501  503 -0.00000000000E+00 -0.00000000000E+00 -0.28357348933E+02  0.28357348933E+02  0.00000000000E+00 0.  1.
          6    2    1    2  501    0 -0.62466232390E+02  0.11832781825E+03  0.11755208060E+04  0.11957382579E+04  0.17331276121E+03 0.  0.
         24    2    3    3    0    0 -0.62145662505E+02  0.86747213747E+02  0.11412233762E+04  0.11488784559E+04  0.78382074865E+02 0.  0.
         -6    2    1    2    0  502  0.62466232390E+02 -0.11832781825E+03  0.60561626924E+03  0.64211351525E+03  0.16623837745E+03 0.  0.
        -24    2    5    5    0    0  0.67554278424E+02 -0.14818209439E+03  0.54160237646E+03  0.57114144691E+03  0.79673738210E+02 0.  0.
          5    1    3    3  501    0 -0.32056988476E+00  0.31580604508E+02  0.34297429832E+02  0.46859801954E+02  0.47000000000E+01 0. -1.
        -13    1    4    4    0    0 -0.61370551838E+02  0.10094878236E+03  0.10093584254E+04  0.10162487058E+04  0.00000000000E+00 0.  1.
         14    1    4    4    0    0 -0.77511066689E+00 -0.14201568610E+02  0.13186495085E+03  0.13262975009E+03  0.00000000000E+00 0. -1.
         -5    1    5    5    0  502 -0.50880460340E+01  0.29854276132E+02  0.64013892782E+02  0.70972068343E+02  0.47000000000E+01 0. -1.
         13    1    6    6    0    0  0.20040184623E+01 -0.98752115559E+02  0.31518297330E+03  0.33029729499E+03  0.00000000000E+00 0. -1.
        -14    1    6    6    0    0  0.65550259962E+02 -0.49429978827E+02  0.22641940316E+03  0.24084415192E+03  0.00000000000E+00 0.  1.
</event>
<event>
12    1  0.1039610E+000  0.1884779E+03  0.7818608E-02  0.1160123E+00
         21   -1    0    0  501  502  0.00000000000E+00  0.00000000000E+00  0.55031059678E+02  0.55031059678E+02  0.00000000000E+00 0.  1.
         21   -1    0    0  502  503 -0.00000000000E+00 -0.00000000000E+00 -0.74991931979E+03  0.74991931979E+03  0.00000000000E+00 0.  1.
         -6    2    1    2    0  503  0.73465124607E+02 -0.18590408330E+02 -0.19525558607E+03  0.27138286993E+03  0.17257227583E+03 0.  0.
        -24    2    3    3    0    0  0.91986736374E+02  0.32587791705E+02 -0.96774489197E+02  0.15876460009E+03  0.79481901365E+02 0.  0.
          6    2    1    2  501    0 -0.73465124607E+02  0.18590408330E+02 -0.49963267404E+03  0.53356750953E+03  0.17122718957E+03 0.  0.
         24    2    5    5    0    0 -0.97222076628E+02  0.22408321774E+02 -0.23787940504E+03  0.27066860679E+03  0.81979377226E+02 0.  0.
          5    1    5    5  501    0  0.23756952022E+02 -0.38179134438E+01 -0.26175326900E+03  0.26289890274E+03  0.47000000000E+01 0. -1.
        -11    1    6    6    0    0  0.12631758960E+02  0.88587782530E+01 -0.13615859594E+02  0.20577437135E+02  0.00000000000E+00 0.  1.
         12    1    6    6    0    0 -0.10985383559E+03  0.13549543521E+02 -0.22426354545E+03  0.25009116965E+03  0.00000000000E+00 0. -1.
         -5    1    3    3    0  503 -0.18521611768E+02 -0.51178200035E+02 -0.98481096875E+02  0.11261826985E+03  0.47000000000E+01 0.  1.
         13    1    4    4    0    0  0.29516235716E+02  0.20829189823E+02  0.72587040815E+01  0.36847687912E+02  0.00000000000E+00 0. -1.
        -14    1    4    4    0    0  0.62470500658E+02  0.11758601882E+02 -0.10403319328E+03  0.12191691218E+03  0.00000000000E+00 0.  1.
</event>
<event>
12    1  0.1039610E+000  0.4363774E+03  0.7818608E-02  0.1031874E+00
         21   -1    0    0  503  502  0.00000000000E+00  0.00000000000E+00  0.28044376000E+03  0.28044376000E+03  0.00000000000E+00 0.  1.
         21   -1    0    0  501  503 -0.00000000000E+00 -0.00000000000E+00 -0.71939089089E+03  0.71939089089E+03  0.00000000000E+00 0.  1.
          6    2    1    2  501    0  0.32635904856E+03  0.23271304684E+03 -0.10070703958E+03  0.44771911563E+03  0.17217696690E+03 0.  0.
         24    2    3    3    0    0  0.13911321271E+03  0.36169648807E+02 -0.27189042042E+02  0.16644114579E+03  0.79389429775E+02 0.  0.
         -6    2    1    2    0  502 -0.32635904856E+03 -0.23271304684E+03 -0.33824009131E+03  0.55211553526E+03  0.17250975088E+03 0.  0.
        -24    2    5    5    0    0 -0.12041188764E+03 -0.12697191549E+03 -0.21874652090E+03  0.29154649772E+03  0.80798699984E+02 0.  0.
          5    1    3    3  501    0  0.18724583586E+03  0.19654339803E+03 -0.73517997536E+02  0.28127796984E+03  0.47000000000E+01 0. -1.
        -13    1    4    4    0    0  0.41729845287E+02 -0.61687601566E+01 -0.41640320350E+02  0.59273517429E+02  0.00000000000E+00 0.  1.
         14    1    4    4    0    0  0.97383367421E+02  0.42338408964E+02  0.14451278307E+02  0.10716762836E+03  0.00000000000E+00 0. -1.
         -5    1    5    5    0  502 -0.20594716092E+03 -0.10574113135E+03 -0.11949357041E+03  0.26056903753E+03  0.47000000000E+01 0.  1.
         13    1    6    6    0    0 -0.12625406464E+02 -0.41675219679E+02 -0.10308507566E+03  0.11190512789E+03  0.00000000000E+00 0. -1.
        -14    1    6    6    0    0 -0.10778648118E+03 -0.85296695811E+02 -0.11566144524E+03  0.17964136984E+03  0.00000000000E+00 0.  1.
</event>
<event>
12    1  0.1039610E+000  0.3754300E+03  0.7818608E-02  0.1052677E+00
         21   -1    0    0  503  502  0.00000000000E+00  0.00000000000E+00  0.17001066019E+04  0.17001066019E+04  0.00000000000E+00 0. -1.
         21   -1    0    0  501  503 -0.00000000000E+00 -0.00000000000E+00 -0.92683027786E+02  0.92683027786E+02  0.00000000000E+00 0. -1.
          6    2    1    2  501    0  0.19170686935E+03  0.27270065193E+03  0.51153462519E+03  0.63451979026E+03  0.17271514742E+03 0.  0.
         24    2    3    3    0    0  0.16054369306E+03  0.13890813705E+03  0.39050876055E+03  0.45137795860E+03  0.78582577723E+02 0.  0.
         -6    2    1    2    0  502 -0.19170686935E+03 -0.27270065193E+03  0.10958889490E+04  0.11582698395E+04  0.17175349557E+03 0.  0.
        -24    2    5    5    0    0 -0.31361752249E+02 -0.13423103871E+03  0.56081519524E+03  0.58276101913E+03  0.78071703890E+02 0.  0.
          5    1    3    3  501    0  0.31163176283E+02  0.13379251488E+03  0.12102586464E+03  0.18314183166E+03  0.47000000000E+01 0. -1.
        -13    1    4    4    0    0  0.15266068099E+03  0.13308064567E+03  0.31010855318E+03  0.37038231130E+03  0.00000000000E+00 0.  1.
         14    1    4    4    0    0  0.78830120719E+01  0.58274913767E+01  0.80400207373E+02  0.80995647295E+02  0.00000000000E+00 0. -1.
         -5    1    5    5    0  502 -0.16034511710E+03 -0.13846961321E+03  0.53507375373E+03  0.57550882034E+03  0.47000000000E+01 0.  1.
         11    1    6    6    0    0 -0.14678900441E+02  0.44955191077E+01  0.10177655135E+03  0.10292786899E+03  0.00000000000E+00 0. -1.
        -12    1    6    6    0    0 -0.16682851809E+02 -0.13872655782E+03  0.45903864389E+03  0.47983315014E+03  0.00000000000E+00 0.  1.
</event>
<event>
12    1  0.1039610E+000  0.2444841E+03  0.7818608E-02  0.1117168E+00
         21   -1    0    0  501  502  0.00000000000E+00  0.00000000000E+00  0.52748787429E+03  0.52748787429E+03  0.00000000000E+00 0. -1.
         21   -1    0    0  502  503 -0.00000000000E+00 -0.00000000000E+00 -0.12834544357E+03  0.12834544357E+03  0.00000000000E+00 0. -1.
         -6    2    1    2    0  503 -0.94786881257E+02  0.14309309975E+03  0.84669412149E+02  0.25873031647E+03  0.17410421951E+03 0.  0.
        -24    2    3    3    0    0  0.52903581506E+01  0.28406370474E+02  0.60753447425E+02  0.10457921174E+03  0.80068223298E+02 0.  0.
          6    2    1    2  501    0  0.94786881257E+02 -0.14309309975E+03  0.31447301857E+03  0.39710300139E+03  0.17128142413E+03 0.  0.
         24    2    5    5    0    0 -0.32769208183E+01 -0.87081515667E+01  0.12186481080E+03  0.14255274059E+03  0.73373575793E+02 0.  0.
          5    1    5    5  501    0  0.98063802075E+02 -0.13438494818E+03  0.19260820777E+03  0.25455026080E+03  0.47000000000E+01 0. -1.
        -13    1    6    6    0    0 -0.19926184275E+02 -0.21974958848E+02  0.14353770777E+02  0.32954246641E+02  0.00000000000E+00 0.  1.
         14    1    6    6    0    0  0.16649263457E+02  0.13266807282E+02  0.10751104002E+03  0.10959849395E+03  0.00000000000E+00 0. -1.
         -5    1    3    3    0  503 -0.10007723941E+03  0.11468672927E+03  0.23915964724E+02  0.15415110472E+03  0.47000000000E+01 0.  1.
         13    1    4    4    0    0 -0.91160757922E+01 -0.23059229845E+02  0.40376516157E+02  0.47382422647E+02  0.00000000000E+00 0. -1.
        -14    1    4    4    0    0  0.14406433943E+02  0.51465600319E+02  0.20376931268E+02  0.57196789097E+02  0.00000000000E+00 0.  1.
</event>
<event>
12    1  0.1039610E+000  0.6691687E+03  0.7818608E-02  0.9771532E-01
         21   -1    0    0  501  502  0.00000000000E+00  0.00000000000E+00  0.36864481240E+03  0.36864481240E+03  0.00000000000E+00 0. -1.
         21   -1    0    0  502  503 -0.00000000000E+00 -0.00000000000E+00 -0.12143993207E+04  0.12143993207E+04  0.00000000000E+00 0. -1.
         -6    2    1    2    0  503  0.62620860355E+03  0.16287430465E+03 -0.42271086659E+03  0.79149932906E+03  0.17065010081E+03 0.  0.
        -24    2    3    3    0    0  0.56607112040E+03  0.13573530261E+03 -0.42527791348E+03  0.72530475194E+03  0.79656096835E+02 0.  0.
          6    2    1    2  501    0 -0.62620860355E+03 -0.16287430465E+03 -0.42304364166E+03  0.79154480399E+03  0.17003528957E+03 0.  0.
         24    2    5    5    0    0 -0.51017872792E+03 -0.18781585334E+03 -0.33291002569E+03  0.64244359133E+03  0.79671535980E+02 0.  0.
          5    1    5    5  501    0 -0.11602987562E+03  0.24941548690E+02 -0.90133615969E+02  0.14910121266E+03  0.47000000000E+01 0. -1.
        -11    1    6    6    0    0 -0.23985790994E+03 -0.46529662595E+02 -0.14161135467E+03  0.28240149121E+03  0.00000000000E+00 0.  1.
         12    1    6    6    0    0 -0.27032081798E+03 -0.14128619074E+03 -0.19129867102E+03  0.36004210012E+03  0.00000000000E+00 0. -1.
         -5    1    3    3    0  503  0.60137483145E+02  0.27139002041E+02  0.25670468957E+01  0.66194577124E+02  0.47000000000E+01 0.  1.
         13    1    4    4    0    0  0.31292730408E+03  0.39348410433E+02 -0.20488270360E+03  0.37609668608E+03  0.00000000000E+00 0. -1.
        -14    1    4    4    0    0  0.25314381632E+03  0.96386892173E+02 -0.22039520989E+03  0.34920806586E+03  0.00000000000E+00 0.  1.
</event>
<event>
12    1  0.1039610E+000  0.2035959E+03  0.7818608E-02  0.1146939E+00
         21   -1    0    0  501  502  0.00000000000E+00  0.00000000000E+00  0.50511760365E+02  0.50511760365E+02  0.00000000000E+00 0.  1.
         21   -1    0    0  502  503 -0.00000000000E+00 -0.00000000000E+00 -0.12879823273E+04  0.12879823273E+04  0.00000000000E+00 0.  1.
         -6    2    1    2    0  503 -0.10705823867E+03 -0.11698539819E+02 -0.21300285781E+03  0.29399164127E+03  0.17164657120E+03 0.  0.
        -24    2    3    3    0    0 -0.13952947388E+03 -0.13813852062E+02 -0.20342409569E+03  0.25974695780E+03  0.80173703863E+02 0.  0.
          6    2    1    2  501    0  0.10705823867E+03  0.11698539819E+02 -0.10244677091E+04  0.10445024464E+04  0.17278006591E+03 0.  0.
         24    2    5    5    0    0  0.62843678462E+02 -0.17224817945E+02 -0.27289515645E+03  0.29106042480E+03  0.77449223347E+02 0.  0.
          5    1    5    5  501    0  0.44214560203E+02  0.28923357764E+02 -0.75157255269E+03  0.75344202160E+03  0.47000000000E+01 0. -1.
        -11    1    6    6    0    0  0.73812515073E+02  0.63826383596E+01 -0.21932425088E+03  0.23149978937E+03  0.00000000000E+00 0.  1.
         12    1    6    6    0    0 -0.10968836611E+02 -0.23607456304E+02 -0.53570905573E+02  0.59560635437E+02  0.00000000000E+00 0. -1.
         -5    1    3    3    0  503  0.32471235215E+02  0.21153122428E+01 -0.95787621215E+01  0.34244683471E+02  0.47000000000E+01 0.  1.
         11    1    4    4    0    0 -0.21324134418E+02 -0.92364382649E+01  0.13312429563E+01  0.23276655866E+02  0.00000000000E+00 0. -1.
        -12    1    4    4    0    0 -0.11820533946E+03 -0.45774137969E+01 -0.20475533864E+03  0.23647030194E+03  0.00000000000E+00 0.  1.
</event>
<event>
12    1  0.1039610E+000  0.3268165E+03  0.7818608E-02  0.1072579E+00
         21   -1    0    0  501  502  0.00000000000E+00  0.00000000000E+00  0.18216717588E+03  0.18216717588E+03  0.00000000000E+00 0. -1.
         21   -1    0    0  502  503 -0.00000000000E+00 -0.00000000000E+00 -0.58679347357E+03  0.58679347357E+03  0.00000000000E+00 0. -1.
         -6    2    1    2    0  503 -0.22909406471E+03 -0.15642119553E+03 -0.18741053261E+03  0.37654286856E+03  0.17236630538E+03 0.  0.
        -24    2    3    3    0    0 -0.20512259155E+03 -0.18080257109E+03 -0.13873711215E+03  0.31687482971E+03  0.79980148403E+02 0.  0.
          6    2    1    2  501    0  0.22909406471E+03  0.15642119553E+03 -0.21721576508E+03  0.39241778090E+03  0.17279278130E+03 0.  0.
         24    2    5    5    0    0  0.19819237903E+03  0.84359925263E+02 -0.97282177155E+02  0.24905147955E+03  0.78523890490E+02 0.  0.
          5    1    5    5  501    0  0.30901685682E+02  0.72061270263E+02 -0.11993358793E+03  0.14336630135E+03  0.47000000000E+01 0. -1.
        -13    1    6    6    0    0  0.92168796561E+02  0.47930279440E+02 -0.52714498708E+01  0.10402012753E+03  0.00000000000E+00 0.  1.
         14    1    6    6    0    0  0.10602358247E+03  0.36429645822E+02 -0.92010727284E+02  0.14503135202E+03  0.00000000000E+00 0. -1.
         -5    1    3    3    0  503 -0.23971473156E+02  0.24381375569E+02 -0.48673420459E+02  0.59668038841E+02  0.47000000000E+01 0.  1.
         13    1    4    4    0    0 -0.72048728596E+02 -0.98351033650E+02 -0.94335484467E+02  0.15415293945E+03  0.00000000000E+00 0. -1.
        -14    1    4    4    0    0 -0.13307386296E+03 -0.82451537444E+02 -0.44401627686E+02  0.16272189026E+03  0.00000000000E+00 0.  1.
</event>
<event>
12    1  0.1039610E+000  0.2330949E+03  0.7818608E-02  0.1124744E+00
         21   -1    0    0  503  502  0.00000000000E+00  0.00000000000E+00  0.18398481995E+03  0.18398481995E+03  0.00000000000E+00 0.  1.
         21   -1    0    0  501  503 -0.00000000000E+00 -0.00000000000E+00 -0.29453907570E+03  0.29453907570E+03  0.00000000000E+00 0.  1.
          6    2    1    2  501    0 -0.76870256352E+02  0.13599529930E+03 -0.70390370639E+02  0.24349133690E+03  0.17300135584E+03 0.  0.
         24    2    3    3    0    0 -0.95648894415E+02  0.76512407319E+02 -0.95743103626E+02  0.17599539068E+03  0.82491067225E+02 0.  0.
         -6    2    1    2    0  502  0.76870256352E+02 -0.13599529930E+03 -0.40163885108E+02  0.23503255876E+03  0.17094855444E+03 0.  0.
        -24    2    5    5    0    0  0.45100344505E+02 -0.38916057167E+01 -0.69239071791E+01  0.95076496762E+02  0.83321150234E+02 0.  0.
          5    1    3    3  501    0  0.18778638064E+02  0.59482891978E+02  0.25352732988E+02  0.67495946215E+02  0.47000000000E+01 0. -1.
        -11    1    4    4    0    0 -0.38145265453E+01 -0.16435164206E+02 -0.13452739088E+02  0.21578726196E+02  0.00000000000E+00 0.  1.
         12    1    4    4    0    0 -0.91834367870E+02  0.92947571526E+02 -0.82290364538E+02  0.15441666448E+03  0.00000000000E+00 0. -1.
         -5    1    5    5    0  502  0.31769911846E+02 -0.13210369358E+03 -0.33239977929E+02  0.13995606199E+03  0.47000000000E+01 0.  1.
         13    1    6    6    0    0  0.64350716634E+02  0.15484667667E+02  0.23568964343E+01  0.66229484558E+02  0.00000000000E+00 0. -1.
        -14    1    6    6    0    0 -0.19250372129E+02 -0.19376273384E+02 -0.92808036134E+01  0.28847012203E+02  0.00000000000E+00 0.  1.
</event>
<event>
12    1  0.1039610E+000  0.1762556E+03  0.7818608E-02  0.1171526E+00
         21   -1    0    0  503  502  0.00000000000E+00  0.00000000000E+00  0.16817695373E+03  0.16817695373E+03  0.00000000000E+00 0.  1.
         21   -1    0    0  501  503 -0.00000000000E+00 -0.00000000000E+00 -0.18596486650E+03  0.18596486650E+03  0.00000000000E+00 0.  1.
          6    2    1    2  501    0  0.37522034293E+02  0.90191714211E+01  0.67349951936E+01  0.17618845130E+03  0.17177823407E+03 0.  0.
         24    2    3    3    0    0  0.38220222370E+02 -0.39369474211E+02  0.52839824997E+02  0.10918327371E+03  0.78218918779E+02 0.  0.
         -6    2    1    2    0  502 -0.37522034293E+02 -0.90191714211E+01 -0.24522907966E+02  0.17795336893E+03  0.17197901031E+03 0.  0.
        -24    2    5    5    0    0  0.30967338274E+02  0.35780535936E+02 -0.10769378827E+01  0.92691352493E+02  0.79695070363E+02 0.  0.
          5    1    3    3  501    0 -0.69818807664E+00  0.48388645632E+02 -0.46104829804E+02  0.67005177590E+02  0.47000000000E+01 0. -1.
        -11    1    4    4    0    0  0.72956920506E+01 -0.23934013288E+02  0.67237093297E+02  0.71741834585E+02  0.00000000000E+00 0.  1.
         12    1    4    4    0    0  0.30924530319E+02 -0.15435460923E+02 -0.14397268300E+02  0.37441439126E+02  0.00000000000E+00 0. -1.
         -5    1    5    5    0  502 -0.68489372567E+02 -0.44799707357E+02 -0.23445970083E+02  0.85262016438E+02  0.47000000000E+01 0.  1.
         13    1    6    6    0    0  0.23862149831E+02 -0.22404079402E+01 -0.34203938895E+02  0.41765189551E+02  0.00000000000E+00 0. -1.
        -14    1    6    6    0    0  0.71051884433E+01  0.38020943876E+02  0.33127001012E+02  0.50926162943E+02  0.00000000000E+00 0.  1.
</event>
<event>
12    1  0.1039610E+000  0.3209565E+03  0.7818608E-02  0.1075287E+00
         21   -1    0    0  501  502  0.00000000000E+00  0.00000000000E+00  0.31271472817E+04  0.31271472817E+04  0.00000000000E+00 0. -1.
         21   -1    0    0  502  503 -0.00000000000E+00 -0.00000000000E+00 -0.32939614071E+02  0.32939614071E+02  0.00000000000E+00 0. -1.
         -6    2    1    2    0  503 -0.29245164275E+02  0.26900085005E+03  0.16165843174E+04  0.16480075768E+04  0.17136913638E+03 0.  0.
        -24    2    3    3    0    0  0.15409997170E+02  0.56718128430E+02  0.39223022373E+03  0.40457560275E+03  0.79890273706E+02 0.  0.
          6    2    1    2  501    0  0.29245164275E+02 -0.26900085005E+03  0.14776233502E+04  0.15120793189E+04  0.17261623566E+03 0.  0.
         24    2    5    5    0    0  0.48064105599E+02 -0.12659031947E+03  0.51285735932E+03  0.53666637106E+03  0.81565039010E+02 0.  0.
          5    1    5    5  501    0 -0.18818941324E+02 -0.14241053058E+03  0.96476599085E+03  0.97541294787E+03  0.47000000000E+01 0. -1.
        -13    1    6    6    0    0  0.16278143114E+02 -0.12195149043E+03  0.44317920194E+03  0.45994015806E+03  0.00000000000E+00 0.  1.
         14    1    6    6    0    0  0.31785962485E+02 -0.46388290350E+01  0.69678157382E+02  0.76726213005E+02  0.00000000000E+00 0. -1.
         -5    1    3    3    0  503 -0.44655161445E+02  0.21228272162E+03  0.12243540937E+04  0.12434319741E+04  0.47000000000E+01 0.  1.
         11    1    4    4    0    0  0.25975237184E+02 -0.19637716291E-01  0.24601432850E+03  0.24738181655E+03  0.00000000000E+00 0. -1.
        -12    1    4    4    0    0 -0.10565240014E+02  0.56737766146E+02  0.14621589523E+03  0.15719378620E+03  0.00000000000E+00 0.  1.
</event>
<event>
12    1  0.1039610E+000  0.1850959E+03  0.7818608E-02  0.1163070E+00
         21   -1    0    0  501  502  0.00000000000E+00  0.00000000000E+00  0.39117196958E+02  0.39117196958E+02  0.00000000000E+00 0.  1.
         21   -1    0    0  502  503 -0.00000000000E+00 -0.00000000000E+00 -0.87400639237E+03  0.87400639237E+03  0.00000000000E+00 0.  1.
         -6    2    1    2    0  503 -0.40496486271E+01 -0.68411938456E+02 -0.40734912936E+03  0.44723628098E+03  0.17143624137E+03 0.  0.
        -24    2    3    3    0    0 -0.50321976545E+01 -0.38640293387E+02 -0.90104471909E+02  0.12856155821E+03  0.83011222759E+02 0.  0.
          6    2    1    2  501    0  0.40496486271E+01  0.68411938456E+02 -0.42754006605E+03  0.46588730835E+03  0.17194151048E+03 0.  0.
         24    2    5    5    0    0 -0.21632048450E+00 -0.66732172525E+01 -0.34443271564E+03  0.35370486412E+03  0.80178904201E+02 0.  0.
          5    1    5    5  501    0  0.42659691116E+01  0.75085155709E+02 -0.83107350413E+02  0.11218244423E+03  0.47000000000E+01 0. -1.
        -11    1    6    6    0    0  0.37993224554E+02 -0.73737304673E+01 -0.22508013651E+03  0.22838328499E+03  0.00000000000E+00 0.  1.
         12    1    6    6    0    0 -0.38209545039E+02  0.70051321477E+00 -0.11935257913E+03  0.12532157913E+03  0.00000000000E+00 0. -1.
         -5    1    3    3    0  503  0.98254902734E+00 -0.29771645070E+02 -0.31724465745E+03  0.31867472277E+03  0.47000000000E+01 0.  1.
         13    1    4    4    0    0 -0.22086249615E+02  0.36355127676E+01 -0.78349803767E+02  0.81484422594E+02  0.00000000000E+00 0. -1.
        -14    1    4    4    0    0  0.17054051960E+02 -0.42275806154E+02 -0.11754668142E+02  0.47077135611E+02  0.00000000000E+00 0.  1.
</event>
<event>
12    1  0.1039610E+000  0.2184809E+03  0.7818608E-02  0.1135238E+00
         21   -1    0    0  503  502  0.00000000000E+00  0.00000000000E+00  0.32141149775E+03  0.32141149775E+03  0.00000000000E+00 0. -1.
         21   -1    0    0  501  503 -0.00000000000E+00 -0.00000000000E+00 -0.16284246208E+03  0.16284246208E+03  0.00000000000E+00 0. -1.
          6    2    1    2  501    0 -0.51758149983E+02  0.12468003641E+03  0.57163173699E+01  0.21855567727E+03  0.17178442948E+03 0.  0.
         24    2    3    3    0    0 -0.54162763617E+01  0.14648900014E+03  0.74692622021E+01  0.16709342931E+03  0.79850241259E+02 0.  0.
         -6    2    1    2    0  502  0.51758149983E+02 -0.12468003641E+03  0.15285271829E+03  0.26569828257E+03  0.17031619506E+03 0.  0.
        -24    2    5    5    0    0  0.90896930796E+02 -0.54150452297E+02  0.11930358741E+03  0.17821170884E+03  0.79570997778E+02 0.  0.
          5    1    3    3  501    0 -0.46341873622E+02 -0.21808963724E+02 -0.17529448322E+01  0.51462247960E+02  0.47000000000E+01 0. -1.
        -11    1    4    4    0    0 -0.40844745908E+02  0.69445910765E+02 -0.77538157056E+01  0.80939171285E+02  0.00000000000E+00 0.  1.
         12    1    4    4    0    0  0.35428469547E+02  0.77043089372E+02  0.15223077908E+02  0.86154258022E+02  0.00000000000E+00 0. -1.
         -5    1    5    5    0  502 -0.39138780813E+02 -0.70529584116E+02  0.33549130888E+02  0.87486573727E+02  0.47000000000E+01 0.  1.
         13    1    6    6    0    0  0.24870040014E+02 -0.24228115678E+02  0.95970929404E+02  0.10205851150E+03  0.00000000000E+00 0. -1.
        -14    1    6    6    0    0  0.66026890782E+02 -0.29922336619E+02  0.23332658002E+02  0.76153197336E+02  0.00000000000E+00 0.  1.
</event>
<event>
12    1  0.1039610E+000  0.3031482E+03  0.7818608E-02  0.1083889E+00
         21   -1    0    0  501  502  0.00000000000E+00  0.00000000000E+00  0.86792055290E+02  0.86792055290E+02  0.00000000000E+00 0. -1.
         21   -1    0    0  502  503 -0.00000000000E+00 -0.00000000000E+00 -0.14082043725E+04  0.14082043725E+04  0.00000000000E+00 0. -1.
         -6    2    1    2    0  503 -0.80889117479E+02  0.23511933968E+03 -0.28661840716E+03  0.41719174786E+03  0.17342055800E+03 0.  0.
        -24    2    3    3    0    0 -0.12432043326E+02  0.67766662757E+02 -0.43654160256E+02  0.11429406753E+03  0.80066046996E+02 0.  0.
          6    2    1    2  501    0  0.80889117479E+02 -0.23511933968E+03 -0.10347939101E+04  0.10778046800E+04  0.17041226070E+03 0.  0.
         24    2    5    5    0    0  0.77072585613E+02 -0.25242883785E+03 -0.10090600397E+04  0.10462055229E+04  0.81751641012E+02 0.  0.
          5    1    5    5  501    0  0.38165318658E+01  0.17309498171E+02 -0.25733870412E+02  0.31599157090E+02  0.47000000000E+01 0. -1.
        -11    1    6    6    0    0 -0.79585495459E+01 -0.10306416041E+03 -0.33556765685E+03  0.35112848360E+03  0.00000000000E+00 0.  1.
         12    1    6    6    0    0  0.85031135159E+02 -0.14936467745E+03 -0.67349238281E+03  0.69507703927E+03  0.00000000000E+00 0. -1.
         -5    1    3    3    0  503 -0.68457074153E+02  0.16735267692E+03 -0.24296424691E+03  0.30289768033E+03  0.47000000000E+01 0.  1.
         13    1    4    4    0    0  0.14492017154E+02  0.70501054715E+02 -0.48513795538E+02  0.86798649959E+02  0.00000000000E+00 0. -1.
        -14    1    4    4    0    0 -0.26924060480E+02 -0.27343919585E+01  0.48596352818E+01  0.27495417567E+02  0.00000000000E+00 0.  1.
</event>
<event>
12    1  0.1039610E+000  0.4290576E+03  0.7818608E-02  0.1034180E+00
         21   -1    0    0  501  502  0.00000000000E+00  0.00000000000E+00  0.48977841220E+03  0.48977841220E+03  0.00000000000E+00 0.  1.
         21   -1    0    0  502  503 -0.00000000000E+00 -0.00000000000E+00 -0.47219256570E+03  0.47219256570E+03  0.00000000000E+00 0.  1.
         -6    2    1    2    0  503 -0.14921934414E+03 -0.36351210836E+03  0.22631287695E+03  0.48483637377E+03  0.17158474719E+03 0.  0.
        -24    2    3    3    0    0 -0.15166070628E+03 -0.27338803682E+03  0.11668939122E+03  0.34282332105E+03  0.78545699607E+02 0.  0.
          6    2    1    2  501    0  0.14921934414E+03  0.36351210836E+03 -0.20872703045E+03  0.47713460413E+03  0.17228752605E+03 0.  0.
         24    2    5    5    0    0  0.16601134658E+03  0.23690867153E+03 -0.14738038103E+03  0.33537458524E+03  0.84081209969E+02 0.  0.
          5    1    5    5  501    0 -0.16792002441E+02  0.12660343682E+03 -0.61346649424E+02  0.14176001889E+03  0.47000000000E+01 0. -1.
        -13    1    6    6    0    0  0.37224835599E+01  0.32962886780E+02 -0.43720050040E+02  0.54880338595E+02  0.00000000000E+00 0.  1.
         14    1    6    6    0    0  0.16228886302E+03  0.20394578475E+03 -0.10366033099E+03  0.28049424664E+03  0.00000000000E+00 0. -1.
         -5    1    3    3    0  503  0.24413621373E+01 -0.90124071540E+02  0.10962348573E+03  0.14201305272E+03  0.47000000000E+01 0.  1.
         13    1    4    4    0    0 -0.10403206157E+03 -0.22846072903E+03  0.11789432750E+03  0.27733742445E+03  0.00000000000E+00 0. -1.
        -14    1    4    4    0    0 -0.47628644708E+02 -0.44927307786E+02 -0.12049362802E+01  0.65485896596E+02  0.00000000000E+00 0.  1.
</event>
<event>
12    1  0.1039610E+000  0.1866932E+03  0.7818608E-02  0.1161904E+00
         21   -1    0    0  503  502  0.00000000000E+00  0.00000000000E+00  0.42149086689E+03  0.42149086689E+03  0.00000000000E+00 0.  1.
         21   -1    0    0  501  503 -0.00000000000E+00 -0.00000000000E+00 -0.12179335258E+03  0.12179335258E+03  0.00000000000E+00 0.  1.
          6    2    1    2  501    0 -0.14835501301E+02 -0.69578663747E+02  0.30485023225E+03  0.35651991180E+03  0.17062092736E+03 0.  0.
         24    2    3    3    0    0 -0.71510035072E+02 -0.21000588591E+02  0.20322087545E+03  0.23033572765E+03  0.78747148370E+02 0.  0.
         -6    2    1    2    0  502  0.14835501301E+02  0.69578663747E+02 -0.51527179388E+01  0.18676430768E+03  0.17260670199E+03 0.  0.
        -24    2    5    5    0    0  0.62174150046E+02  0.76292524676E+02 -0.30224010780E+02  0.13257313387E+03  0.83522276917E+02 0.  0.
          5    1    3    3  501    0  0.56674533771E+02 -0.48578075156E+02  0.10162935681E+03  0.12618418415E+03  0.47000000000E+01 0. -1.
        -11    1    4    4    0    0 -0.10727496350E+02 -0.19541836168E+02  0.47931831148E+01  0.22802130232E+02  0.00000000000E+00 0.  1.
         12    1    4    4    0    0 -0.60782538723E+02 -0.14587524235E+01  0.19842769233E+03  0.20753359742E+03  0.00000000000E+00 0. -1.
         -5    1    5    5    0  502 -0.47338648745E+02 -0.67138609293E+01  0.25071292842E+02  0.54191173804E+02  0.47000000000E+01 0.  1.
         13    1    6    6    0    0  0.23823203702E+02  0.42234330338E+01  0.24387569109E+02  0.34353106822E+02  0.00000000000E+00 0. -1.
        -14    1    6    6    0    0  0.38350946343E+02  0.72069091642E+02 -0.54611579890E+02  0.98220027050E+02  0.00000000000E+00 0.  1.
</event>
<event>
12    1  0.1039610E+000  0.2494386E+03  0.7818608E-02  0.1114201E+00
         21   -1    0    0  503  502  0.00000000000E+00  0.00000000000E+00  0.19872146778E+03  0.19872146778E+03  0.00000000000E+00 0. -1.
         21   -1    0    0  501  503 -0.00000000000E+00 -0.00000000000E+00 -0.35451958213E+03  0.35451958213E+03  0.00000000000E+00 0. -1.
          6    2    1    2  501    0  0.13556578258E+03 -0.12022315163E+03  0.20903379098E+02  0.25031289950E+03  0.17142901973E+03 0.  0.
         24    2    3    3    0    0  0.22616035993E+01 -0.73666160632E+02  0.11672381882E+02  0.10873303210E+03  0.79087354850E+02 0.  0.
         -6    2    1    2    0  502 -0.13556578258E+03  0.12022315163E+03 -0.17670149345E+03  0.30292815040E+03  0.16646428723E+03 0.  0.
        -24    2    5    5    0    0 -0.52484124743E+02  0.13144490700E+03 -0.13004035406E+03  0.20686649524E+03  0.76491216781E+02 0.  0.
          5    1    3    3  501    0  0.13330417898E+03 -0.46556990999E+02  0.92309972158E+01  0.14157986740E+03  0.47000000000E+01 0. -1.
        -13    1    4    4    0    0 -0.17276351700E+01 -0.26089808364E+02  0.43923876880E+02  0.51117216121E+02  0.00000000000E+00 0.  1.
         14    1    4    4    0    0  0.39892387693E+01 -0.47576352268E+02 -0.32251494998E+02  0.57615815977E+02  0.00000000000E+00 0. -1.
         -5    1    5    5    0  502 -0.83081657838E+02 -0.11221755367E+02 -0.46661139394E+02  0.96061655161E+02  0.47000000000E+01 0.  1.
         13    1    6    6    0    0 -0.41402598687E+02  0.78724748222E+02 -0.31132757403E+02  0.94239109419E+02  0.00000000000E+00 0. -1.
        -14    1    6    6    0    0 -0.11081526056E+02  0.52720158776E+02 -0.98907596658E+02  0.11262738582E+03  0.00000000000E+00 0.  1.
</event>
<event>
12    1  0.1039610E+000  0.2417429E+03  0.7818608E-02  0.1118779E+00
         21   -1    0    0  503  502  0.00000000000E+00  0.00000000000E+00  0.57348648321E+03  0.57348648321E+03  0.00000000000E+00 0.  1.
         21   -1    0    0  501  503 -0.00000000000E+00 -0.00000000000E+00 -0.10744228919E+03  0.10744228919E+03  0.00000000000E+00 0.  1.
          6    2    1    2  501    0  0.21902784267E+02 -0.16673570940E+03  0.31242878964E+03  0.39450722474E+03  0.17246354116E+03 0.  0.
         24    2    3    3    0    0 -0.86079450581E+01 -0.18662108498E+03  0.27247762351E+03  0.34024380759E+03  0.81365024510E+02 0.  0.
         -6    2    1    2    0  502 -0.21902784267E+02  0.16673570940E+03  0.15361540438E+03  0.28642154766E+03  0.17366370303E+03 0.  0.
        -24    2    5    5    0    0 -0.13363482111E+02  0.12740830123E+03  0.26538487927E+02  0.15304164883E+03  0.79410308262E+02 0.  0.
          5    1    3    3  501    0  0.30510729325E+02  0.19885375577E+02  0.39951166131E+02  0.54263417152E+02  0.47000000000E+01 0. -1.
        -11    1    4    4    0    0  0.24226305444E+02 -0.90848121911E+02  0.18020686048E+03  0.20326044301E+03  0.00000000000E+00 0.  1.
         12    1    4    4    0    0 -0.32834250502E+02 -0.95772963066E+02  0.92270763032E+02  0.13698336458E+03  0.00000000000E+00 0. -1.
         -5    1    5    5    0  502 -0.85393021560E+01  0.39327408165E+02  0.12707691646E+03  0.13337989882E+03  0.47000000000E+01 0.  1.
         11    1    6    6    0    0 -0.21157639763E+02  0.74579003719E+02  0.52537732114E+02  0.93647673820E+02  0.00000000000E+00 0. -1.
        -12    1    6    6    0    0  0.77941576523E+01  0.52829297516E+02 -0.25999244187E+02  0.59393975013E+02  0.00000000000E+00 0.  1.
</event>
<event>
12    1  0.1039610E+000  0.2913008E+03  0.7818608E-02  0.1089676E+00
         21   -1    0    0  503  502  0.00000000000E+00  0.00000000000E+00  0.47305939312E+03  0.47305939312E+03  0.00000000000E+00 0.  1.
         21   -1    0    0  501  503 -0.00000000000E+00 -0.00000000000E+00 -0.22278164020E+03  0.22278164020E+03  0.00000000000E+00 0.  1.
          6    2    1    2  501    0 -0.21207363823E+03 -0.10114260272E+03  0.27873649736E+03  0.40315336729E+03  0.17214397601E+03 0.  0.
         24    2    3    3    0    0 -0.10920000512E+03 -0.91653216959E+02  0.85933777768E+02  0.18436577278E+03  0.79253837203E+02 0.  0.
         -6    2    1    2    0  502  0.21207363823E+03  0.10114260272E+03 -0.28458744441E+02  0.29268766603E+03  0.17219499294E+03 0.  0.
        -24    2    5    5    0    0  0.22653926130E+03  0.71576140168E+02 -0.75617293069E+01  0.25341674549E+03  0.87861745892E+02 0.  0.
          5    1    3    3  501    0 -0.10287363311E+03 -0.94893857656E+01  0.19280271959E+03  0.21878759451E+03  0.47000000000E+01 0. -1.
        -11    1    4    4    0    0 -0.56267435760E+02 -0.29985320730E+02 -0.30797434110E+01  0.63832817624E+02  0.00000000000E+00 0.  1.
         12    1    4    4    0    0 -0.52932569364E+02 -0.61667896229E+02  0.89013521180E+02  0.12053295515E+03  0.00000000000E+00 0. -1.
         -5    1    5    5    0  502 -0.14465623069E+02  0.29566462556E+02 -0.20897015134E+02  0.39270920544E+02  0.47000000000E+01 0.  1.
         11    1    6    6    0    0  0.63578087119E+02  0.15123695829E+02 -0.41816476608E+02  0.77585546677E+02  0.00000000000E+00 0. -1.
        -12    1    6    6    0    0  0.16296117418E+03  0.56452444340E+02  0.34254747301E+02  0.17583119881E+03  0.00000000000E+00 0.  1.
</event>
<event>
12    1  0.1039610E+000  0.1817009E+03  0.7818608E-02  0.1166651E+00
         21   -1    0    0  503  502  0.00000000000E+00  0.00000000000E+00  0.17599563824E+03  0.17599563824E+03  0.00000000000E+00 0. -1.
         21   -1    0    0  501  503 -0.00000000000E+00 -0.00000000000E+00 -0.19114756251E+03  0.19114756251E+03  0.00000000000E+00 0. -1.
          6    2    1    2  501    0 -0.41568941388E+02  0.41401907690E+02  0.23886156721E+02  0.18326422906E+03  0.17196841082E+03 0.  0.
         24    2    3    3    0    0 -0.19075585018E+02  0.49625436929E+02 -0.49011847019E+02  0.10638909353E+03  0.78037914752E+02 0.  0.
         -6    2    1    2    0  502  0.41568941388E+02 -0.41401907690E+02 -0.39038080994E+02  0.18387897169E+03  0.16983936415E+03 0.  0.
        -24    2    5    5    0    0 -0.60941360878E+00 -0.78586554379E+02 -0.39885950272E+02  0.12744741614E+03  0.92063765608E+02 0.  0.
          5    1    3    3  501    0 -0.22493356370E+02 -0.82235292393E+01  0.72898003741E+02  0.76875135534E+02  0.47000000000E+01 0. -1.
        -13    1    4    4    0    0 -0.95016272082E+01  0.27596902282E+02  0.18618856214E+02  0.34619817184E+02  0.00000000000E+00 0.  1.
         14    1    4    4    0    0 -0.95739578101E+01  0.22028534647E+02 -0.67630703233E+02  0.71769276342E+02  0.00000000000E+00 0. -1.
         -5    1    5    5    0  502  0.42178354997E+02  0.37184646689E+02  0.84786927868E+00  0.56431555552E+02  0.47000000000E+01 0.  1.
         13    1    6    6    0    0  0.22326917922E+02 -0.44586092092E+01  0.19307281777E+02  0.29851994734E+02  0.00000000000E+00 0. -1.
        -14    1    6    6    0    0 -0.22936331531E+02 -0.74127945170E+02 -0.59193232049E+02  0.97595421407E+02  0.00000000000E+00 0.  1.
</event>
<event>
12    1  0.1039610E+000  0.3673179E+03  0.7818608E-02  0.1055920E+00
         21   -1    0    0  503  502  0.00000000000E+00  0.00000000000E+00  0.24892020735E+04  0.24892020735E+04  0.00000000000E+00 0.  1.
         21   -1    0    0  501  503 -0.00000000000E+00 -0.00000000000E+00 -0.54012738635E+02  0.54012738635E+02  0.00000000000E+00 0. -1.
          6    2    1    2  501    0 -0.26525696735E+03 -0.18549010722E+03  0.11638961763E+04  0.12204821926E+04  0.17365089846E+03 0.  0.
         24    2    3    3    0    0 -0.17329018604E+03 -0.14813278092E+03  0.10005029633E+04  0.10292417922E+04  0.79747587888E+02 0.  0.
         -6    2    1    2    0  502  0.26525696735E+03  0.18549010722E+03  0.12712931585E+04  0.13227326195E+04  0.16931464577E+03 0.  0.
        -24    2    5    5    0    0  0.11370904475E+03  0.15601383331E+03  0.79861675606E+03  0.82545935964E+03  0.79525897075E+02 0.  0.
          5    1    3    3  501    0 -0.91966781307E+02 -0.37357326308E+02  0.16339321299E+03  0.19124040040E+03  0.47000000000E+01 0. -1.
        -11    1    4    4    0    0 -0.95175466042E+02 -0.30726372281E+02  0.38318668422E+03  0.39602337590E+03  0.00000000000E+00 0.  1.
         12    1    4    4    0    0 -0.78114720001E+02 -0.11740640863E+03  0.61731627911E+03  0.63321841628E+03  0.00000000000E+00 0. -1.
         -5    1    5    5    0  502  0.15154792260E+03  0.29476273910E+02  0.47267640243E+03  0.49727325988E+03  0.47000000000E+01 0.  1.
         11    1    6    6    0    0 -0.13317159413E+01  0.13851750810E+02  0.13729766237E+02  0.19548681509E+02  0.00000000000E+00 0. -1.
        -12    1    6    6    0    0  0.11504076069E+03  0.14216208250E+03  0.78488698982E+03  0.80591067813E+03  0.00000000000E+00 0.  1.
</event>
<event>
12    1  0.1039610E+000  0.2356068E+03  0.7818608E-02  0.1122765E+00
         21   -1    0    0  501  502  0.00000000000E+00  0.00000000000E+00  0.26098643670E+03  0.26098643670E+03  0.00000000000E+00 0.  1.
         21   -1    0    0  502  503 -0.00000000000E+00 -0.00000000000E+00 -0.22607588028E+03  0.22607588028E+03  0.00000000000E+00 0. -1.
         -6    2    1    2    0  503 -0.12786339673E+03  0.94783410830E+02  0.76826632169E+02  0.24775596805E+03  0.17363106030E+03 0.  0.
        -24    2    3    3    0    0 -0.91444403712E+02  0.12802837423E+03  0.38120333557E+02  0.18489232040E+03  0.89323382910E+02 0.  0.
          6    2    1    2  501    0  0.12786339673E+03 -0.94783410830E+02 -0.41916075747E+02  0.23930634892E+03  0.17371709195E+03 0.  0.
         24    2    5    5    0    0  0.77940812598E+02  0.90073725398E+01  0.76885018597E+01  0.11381732455E+03  0.82093649436E+02 0.  0.
          5    1    5    5  501    0  0.49922584134E+02 -0.10379078337E+03 -0.49604577607E+02  0.12548902438E+03  0.47000000000E+01 0. -1.
        -13    1    6    6    0    0  0.35927103695E+02 -0.27224163554E+02  0.29862976903E+02  0.54071334833E+02  0.00000000000E+00 0.  1.
         14    1    6    6    0    0  0.42013708903E+02  0.36231536094E+02 -0.22174475043E+02  0.59745989714E+02  0.00000000000E+00 0. -1.
         -5    1    3    3    0  503 -0.36418993021E+02 -0.33244963398E+02  0.38706298612E+02  0.62863647653E+02  0.47000000000E+01 0.  1.
         11    1    4    4    0    0 -0.31319140801E+02  0.51740996176E+02 -0.28749675215E+02  0.66966880551E+02  0.00000000000E+00 0. -1.
        -12    1    4    4    0    0 -0.60125262911E+02  0.76287378053E+02  0.66870008773E+02  0.11792543985E+03  0.00000000000E+00 0.  1.
</event>
<event>
12    1  0.1039610E+000  0.3581371E+03  0.7818608E-02  0.1059337E+00
         21   -1    0    0  503  502  0.00000000000E+00  0.00000000000E+00  0.14988776890E+03  0.14988776890E+03  0.00000000000E+00 0. -1.
         21   -1    0    0  501  503 -0.00000000000E+00 -0.00000000000E+00 -0.91392396004E+03  0.91392396004E+03  0.00000000000E+00 0. -1.
          6    2    1    2  501    0 -0.42474652876E+02 -0.31069104643E+03 -0.51666136538E+03  0.62865025381E+03  0.17300044123E+03 0.  0.
         24    2    3    3    0    0  0.32253941664E+02 -0.16764599155E+03 -0.34632802849E+03  0.39395516178E+03  0.78179734825E+02 0.  0.
         -6    2    1    2    0  502  0.42474652876E+02  0.31069104643E+03 -0.24737482576E+03  0.43516147513E+03  0.17273732241E+03 0.  0.
        -24    2    5    5    0    0 -0.42526214149E+02  0.16791120985E+03 -0.11100094214E+03  0.22014716105E+03  0.78363959048E+02 0.  0.
          5    1    3    3  501    0 -0.74728594540E+02 -0.14304505488E+03 -0.17033333690E+03  0.23469509203E+03  0.47000000000E+01 0. -1.
        -11    1    4    4    0    0  0.64169508915E+00 -0.98825851234E+02 -0.12094227156E+03  0.15618576662E+03  0.00000000000E+00 0.  1.
         12    1    4    4    0    0  0.31612246575E+02 -0.68820140320E+02 -0.22538575693E+03  0.23776939515E+03  0.00000000000E+00 0. -1.
         -5    1    5    5    0  502  0.85000867025E+02  0.14277983658E+03 -0.13637388362E+03  0.21501431409E+03  0.47000000000E+01 0.  1.
         11    1    6    6    0    0 -0.46641554920E+02  0.10983968050E+03 -0.34898548475E+02  0.12433060260E+03  0.00000000000E+00 0. -1.
        -12    1    6    6    0    0  0.41153407712E+01  0.58071529351E+02 -0.76102393664E+02  0.95816558445E+02  0.00000000000E+00 0.  1.
</event>
<event>
12    1  0.1039610E+000  0.1935717E+03  0.7818608E-02  0.1156177E+00
         21   -1    0    0  501  502  0.00000000000E+00  0.00000000000E+00  0.53796511914E+02  0.53796511914E+02  0.00000000000E+00 0.  1.
         21   -1    0    0  502  503 -0.00000000000E+00 -0.00000000000E+00 -0.78080860895E+03  0.78080860895E+03  0.00000000000E+00 0.  1.
         -6    2    1    2    0  503 -0.28788736287E+02 -0.78131727978E+02 -0.21177912372E+03  0.28420978142E+03  0.17026874158E+03 0.  0.
        -24    2    3    3    0    0  0.44743597439E+02 -0.56844781315E+02 -0.99903629779E+02  0.14856924786E+03  0.82817676205E+02 0.  0.
          6    2    1    2  501    0  0.28788736287E+02  0.78131727978E+02 -0.51523297332E+03  0.55039533944E+03  0.17474740235E+03 0.  0.
         24    2    5    5    0    0  0.52153583969E+02  0.11435762977E+03 -0.41382253604E+03  0.44010300582E+03  0.81510125660E+02 0.  0.
          5    1    5    5  501    0 -0.23364847681E+02 -0.36225901790E+02 -0.10141043727E+03  0.11029233362E+03  0.47000000000E+01 0. -1.
        -13    1    6    6    0    0  0.31914091008E+02  0.80523261922E+01 -0.17272805403E+03  0.17583608791E+03  0.00000000000E+00 0.  1.
         14    1    6    6    0    0  0.20239492961E+02  0.10630530358E+03 -0.24109448201E+03  0.26426691791E+03  0.00000000000E+00 0. -1.
         -5    1    3    3    0  503 -0.73532333727E+02 -0.21286946663E+02 -0.11187549394E+03  0.13564053356E+03  0.47000000000E+01 0.  1.
         13    1    4    4    0    0  0.22507216609E+02 -0.13173558625E+02 -0.95919005373E+02  0.99401071614E+02  0.00000000000E+00 0. -1.
        -14    1    4    4    0    0  0.22236380830E+02 -0.43671222690E+02 -0.39846244060E+01  0.49168176245E+02  0.00000000000E+00 0.  1.
</event>
<event>
12    1  0.1039610E+000  0.2023843E+03  0.7818608E-02  0.1149338E+00
         21   -1    0    0  503  502  0.00000000000E+00  0.00000000000E+00  0.23275504746E+03  0.23275504746E+03  0.00000000000E+00 0. -1.
         21   -1    0    0  501  503 -0.00000000000E+00 -0.00000000000E+00 -0.24478180913E+03  0.24478180913E+03  0.00000000000E+00 0. -1.
          6    2    1    2  501    0  0.89047832556E+02 -0.82981531944E+01  0.12646967533E+03  0.23230094549E+03  0.17312069394E+03 0.  0.
         24    2    3    3    0    0 -0.81787756125E+01 -0.11966037640E+02 -0.53731760649E+00  0.72240541377E+02  0.70769546281E+02 0.  0.
         -6    2    1    2    0  502 -0.89047832556E+02  0.82981531944E+01 -0.13849643700E+03  0.24523591109E+03  0.18155168189E+03 0.  0.
        -24    2    5    5    0    0 -0.12769752663E+03  0.11729698280E+01 -0.14128363944E+03  0.20555687900E+03  0.77359741241E+02 0.  0.
          5    1    3    3  501    0  0.97226608168E+02  0.36678844458E+01  0.12700699293E+03  0.16006040412E+03  0.47000000000E+01 0. -1.
        -13    1    4    4    0    0  0.14521310747E+01  0.27627031660E+02 -0.11629630008E+02  0.30010162564E+02  0.00000000000E+00 0.  1.
         14    1    4    4    0    0 -0.96309066872E+01 -0.39593069300E+02  0.11092312401E+02  0.42230378813E+02  0.00000000000E+00 0. -1.
         -5    1    5    5    0  502  0.38649694077E+02  0.71251833664E+01  0.27872024352E+01  0.39679032091E+02  0.47000000000E+01 0.  1.
         11    1    6    6    0    0 -0.12001694531E+02  0.27533780808E+02 -0.36352261817E+02  0.47155452457E+02  0.00000000000E+00 0. -1.
        -12    1    6    6    0    0 -0.11569583210E+03 -0.26360810980E+02 -0.10493137762E+03  0.15840142654E+03  0.00000000000E+00 0.  1.
</event>
<event>
12    1  0.1039610E+000  0.3671622E+03  0.7818608E-02  0.1055866E+00
         21   -1    0    0  501  502  0.00000000000E+00  0.00000000000E+00  0.30087984554E+03  0.30087984554E+03  0.00000000000E+00 0. -1.
         21   -1    0    0  502  503 -0.00000000000E+00 -0.00000000000E+00 -0.48584556695E+03  0.48584556695E+03  0.00000000000E+00 0. -1.
         -6    2    1    2    0  503 -0.28800097158E+03  0.14839464422E+03 -0.20381228439E+03  0.41993754367E+03  0.17275000217E+03 0.  0.
        -24    2    3    3    0    0 -0.82126654966E+02  0.56371166644E+02 -0.12895679891E+03  0.18228656351E+03  0.81707033756E+02 0.  0.
          6    2    1    2  501    0  0.28800097158E+03 -0.14839464422E+03  0.18846562986E+02  0.36678786882E+03  0.17091699071E+03 0.  0.
         24    2    5    5    0    0  0.97751904005E+02 -0.80946263394E+01  0.30426647296E+02  0.13007075688E+03  0.79822698640E+02 0.  0.
          5    1    5    5  501    0  0.19024906758E+03 -0.14030001788E+03 -0.11580084310E+02  0.23671711194E+03  0.47000000000E+01 0. -1.
        -13    1    6    6    0    0 -0.12853543811E+02 -0.40238065738E+01  0.11651950758E+02  0.17809339244E+02  0.00000000000E+00 0.  1.
         14    1    6    6    0    0  0.11060544782E+03 -0.40708197657E+01  0.18774696537E+02  0.11226141764E+03  0.00000000000E+00 0. -1.
         -5    1    3    3    0  503 -0.20587431662E+03  0.92023477576E+02 -0.74855485483E+02  0.23765098017E+03  0.47000000000E+01 0.  1.
         13    1    4    4    0    0 -0.68369644763E+02  0.66711959689E+02 -0.13380742366E+03  0.16440596254E+03  0.00000000000E+00 0. -1.
        -14    1    4    4    0    0 -0.13757010202E+02 -0.10340793044E+02  0.48506247536E+01  0.17880600969E+02  0.00000000000E+00 0.  1.
</event>
<event>
12    1  0.1039610E+000  0.2431648E+03  0.7818608E-02  0.1117851E+00
         21   -1    0    0  503  502  0.00000000000E+00  0.00000000000E+00  0.35421959303E+03  0.35421959303E+03  0.00000000000E+00 0. -1.
         21   -1    0    0  501  503 -0.00000000000E+00 -0.00000000000E+00 -0.19904845472E+03  0.19904845472E+03  0.00000000000E+00 0. -1.
          6    2    1    2  501    0 -0.42353798652E+02 -0.16585729082E+03  0.18966397468E+03  0.30766905611E+03  0.17142152612E+03 0.  0.
         24    2    3    3    0    0 -0.13021023206E+02 -0.18015626508E+03  0.12306164093E+03  0.23335328900E+03  0.81754285053E+02 0.  0.
         -6    2    1    2    0  502  0.42353798652E+02  0.16585729082E+03 -0.34492836365E+02  0.24559899164E+03  0.17270386144E+03 0.  0.
        -24    2    5    5    0    0  0.61989157694E+02  0.31009384060E+02 -0.11232765608E+02  0.10727825504E+03  0.81106173683E+02 0.  0.
          5    1    3    3  501    0 -0.29332775446E+02  0.14298974261E+02  0.66602333750E+02  0.74315767110E+02  0.47000000000E+01 0. -1.
        -11    1    4    4    0    0  0.83060859552E+01 -0.94571291719E+02  0.10813756554E+03  0.14389737093E+03  0.00000000000E+00 0.  1.
         12    1    4    4    0    0 -0.21327109161E+02 -0.85584973362E+02  0.14924075394E+02  0.89455918065E+02  0.00000000000E+00 0. -1.
         -5    1    5    5    0  502 -0.19635359042E+02  0.13484790676E+03 -0.23260070757E+02  0.13832073660E+03  0.47000000000E+01 0.  1.
         11    1    6    6    0    0  0.23566716505E+02 -0.10144526303E+02  0.28515338019E+02  0.38359171564E+02  0.00000000000E+00 0. -1.
        -12    1    6    6    0    0  0.38422441189E+02  0.41153910363E+02 -0.39748103627E+02  0.68919083475E+02  0.00000000000E+00 0.  1.
</event>
<event>
12    1  0.1039610E+000  0.2498319E+03  0.7818608E-02  0.1113741E+00
         21   -1    0    0  503  502  0.00000000000E+00  0.00000000000E+00  0.68107626740E+03  0.68107626740E+03  0.00000000000E+00 0.  1.
         21   -1    0    0  501  503 -0.00000000000E+00 -0.00000000000E+00 -0.16194705593E+03  0.16194705593E+03  0.00000000000E+00 0.  1.
          6    2    1    2  501    0  0.98544522846E+02 -0.15053588057E+03  0.53817723205E+03  0.59246632258E+03  0.17032185993E+03 0.  0.
         24    2    3    3    0    0  0.77963880964E+01 -0.10344326307E+02  0.18269639187E+03  0.19968443197E+03  0.79549431285E+02 0.  0.
         -6    2    1    2    0  502 -0.98544522846E+02  0.15053588057E+03 -0.19048020588E+02  0.25055700075E+03  0.17333178939E+03 0.  0.
        -24    2    5    5    0    0 -0.13516085713E+03  0.97244335069E+02 -0.25819813686E+02  0.18537500983E+03  0.77280744611E+02 0.  0.
          5    1    3    3  501    0  0.90748134749E+02 -0.14019155427E+03  0.35548084019E+03  0.39278189060E+03  0.47000000000E+01 0. -1.
        -11    1    4    4    0    0 -0.24885678796E+02 -0.10073374937E+01  0.16101587029E+02  0.29657593342E+02  0.00000000000E+00 0.  1.
         12    1    4    4    0    0  0.32682066893E+02 -0.93369888129E+01  0.16659480484E+03  0.17002683863E+03  0.00000000000E+00 0. -1.
         -5    1    5    5    0  502  0.36616334284E+02  0.53291545504E+02  0.67717930986E+01  0.65181990920E+02  0.47000000000E+01 0.  1.
         11    1    6    6    0    0 -0.69833371253E+02  0.87646978527E+02 -0.37798736324E+02  0.11826849561E+03  0.00000000000E+00 0. -1.
        -12    1    6    6    0    0 -0.65327485877E+02  0.95973565427E+01  0.11978922638E+02  0.67106514224E+02  0.00000000000E+00 0.  1.
</event>
<event>
12    1  0.1039610E+000  0.2772550E+03  0.7818608E-02  0.1097248E+00
         21   -1    0    0  503  502  0.00000000000E+00  0.00000000000E+00  0.11544083768E+04  0.11544083768E+04  0.00000000000E+00 0.  1.
         21   -1    0    0  501  503 -0.00000000000E+00 -0.00000000000E+00 -0.71545175212E+02  0.71545175212E+02  0.00000000000E+00 0.  1.
          6    2    1    2  501    0  0.11591432075E+03  0.18445879126E+03  0.70386497050E+03  0.75636863022E+03  0.17089889597E+03 0.  0.
         24    2    3    3    0    0 -0.29730403647E+01  0.52247567098E+02  0.26406779084E+03  0.28196620435E+03  0.83871896365E+02 0.  0.
         -6    2    1    2    0  502 -0.11591432075E+03 -0.18445879126E+03  0.37899823106E+03  0.46958492177E+03  0.17149100320E+03 0.  0.
        -24    2    5    5    0    0 -0.11287993441E+03 -0.20665431907E+03  0.31380577870E+03  0.40049082073E+03  0.80442175243E+02 0.  0.
          5    1    3    3  501    0  0.11888736111E+03  0.13221122417E+03  0.43979717966E+03  0.47440242587E+03  0.47000000000E+01 0. -1.
        -11    1    4    4    0    0  0.28095498356E+02 -0.85185225066E+01  0.60182625038E+02  0.66961710029E+02  0.00000000000E+00 0.  1.
         12    1    4    4    0    0 -0.31068538721E+02  0.60766089605E+02  0.20388516580E+03  0.21500449432E+03  0.00000000000E+00 0. -1.
         -5    1    5    5    0  502 -0.30343863437E+01  0.22195527803E+02  0.65192452353E+02  0.69094101041E+02  0.47000000000E+01 0.  1.
         11    1    6    6    0    0 -0.10485708055E+03 -0.12892132535E+03  0.17591217763E+03  0.24199340840E+03  0.00000000000E+00 0. -1.
        -12    1    6    6    0    0 -0.80228538551E+01 -0.77732993715E+02  0.13789360108E+03  0.15849741233E+03  0.00000000000E+00 0.  1.
</event>
<event>
12    1  0.1039610E+000  0.1855614E+03  0.7818608E-02  0.1162721E+00
         21   -1    0    0  501  502  0.00000000000E+00  0.00000000000E+00  0.11549919587E+03  0.11549919587E+03  0.00000000000E+00 0. -1.
         21   -1    0    0  502  503 -0.00000000000E+00 -0.00000000000E+00 -0.33508346798E+03  0.33508346798E+03  0.00000000000E+00 0. -1.
         -6    2    1    2    0  503  0.44127819682E+02 -0.54747986195E+02 -0.33846834416E+02  0.18862305808E+03  0.17172199445E+03 0.  0.
        -24    2    3    3    0    0  0.59441353954E+02 -0.80724359705E+02 -0.66404322604E+02  0.14399844212E+03  0.79223231837E+02 0.  0.
          6    2    1    2  501    0 -0.44127819682E+02  0.54747986195E+02 -0.18573743770E+03  0.26195960576E+03  0.17082105499E+03 0.  0.
         24    2    5    5    0    0 -0.51712555473E+01  0.21000973897E+02 -0.10289609622E+02  0.79037477236E+02  0.75321072437E+02 0.  0.
          5    1    5    5  501    0 -0.38956564134E+02  0.33747012298E+02 -0.17544782808E+03  0.18292212853E+03  0.47000000000E+01 0. -1.
        -11    1    6    6    0    0  0.50398850400E+01  0.46921963417E+02  0.46578420954E+01  0.47421161786E+02  0.00000000000E+00 0.  1.
         12    1    6    6    0    0 -0.10211140587E+02 -0.25920989520E+02 -0.14947451718E+02  0.31616315450E+02  0.00000000000E+00 0. -1.
         -5    1    3    3    0  503 -0.15313534273E+02  0.25976373511E+02  0.32557488188E+02  0.44624615963E+02  0.47000000000E+01 0.  1.
         11    1    4    4    0    0  0.20943317951E+02  0.95683961968E+01  0.37757734842E+01  0.23333093194E+02  0.00000000000E+00 0. -1.
        -12    1    4    4    0    0  0.38498036003E+02 -0.90292755902E+02 -0.70180096088E+02  0.12066534893E+03  0.00000000000E+00 0.  1.
</event>
<event>
12    1  0.1039610E+000  0.3988694E+03  0.7818608E-02  0.1044195E+00
         21   -1    0    0  501  502  0.00000000000E+00  0.00000000000E+00  0.34547510265E+03  0.34547510265E+03  0.00000000000E+00 0. -1.
         21   -1    0    0  502  503 -0.00000000000E+00 -0.00000000000E+00 -0.46212878532E+03  0.46212878532E+03  0.00000000000E+00 0. -1.
         -6    2    1    2    0  503 -0.38373729922E+02 -0.35742812204E+03 -0.32274835861E+02  0.39990721196E+03  0.17221122953E+03 0.  0.
        -24    2    3    3    0    0 -0.15684066960E+00 -0.21635915622E+03  0.44192394547E+02  0.23489111860E+03  0.80059732586E+02 0.  0.
          6    2    1    2  501    0  0.38373729922E+02  0.35742812204E+03 -0.84378846806E+02  0.40769667601E+03  0.17282761430E+03 0.  0.
         24    2    5    5    0    0  0.72281375056E+02  0.18903047995E+03 -0.89819986699E+02  0.23576881246E+03  0.81007304535E+02 0.  0.
          5    1    5    5  501    0 -0.33907645134E+02  0.16839764209E+03  0.54411398928E+01  0.17192786355E+03  0.47000000000E+01 0. -1.
        -13    1    6    6    0    0 -0.19812213947E+01  0.75337983088E+02 -0.47238595605E+01  0.75511931396E+02  0.00000000000E+00 0.  1.
         14    1    6    6    0    0  0.74262596451E+02  0.11369249686E+03 -0.85096127138E+02  0.16025688106E+03  0.00000000000E+00 0. -1.
         -5    1    3    3    0  503 -0.38216889253E+02 -0.14106896582E+03 -0.76467230408E+02  0.16501609336E+03  0.47000000000E+01 0.  1.
         11    1    4    4    0    0  0.23488748300E+02 -0.70414782318E+02 -0.14833065540E+02  0.75696649193E+02  0.00000000000E+00 0. -1.
        -12    1    4    4    0    0 -0.23645588970E+02 -0.14594437391E+03  0.59025460087E+02  0.15919446941E+03  0.00000000000E+00 0.  1.
</event>
<event>
12    1  0.1039610E+000  0.2302386E+03  0.7818608E-02  0.1126475E+00
         21   -1    0    0  501  502  0.00000000000E+00  0.00000000000E+00  0.46156363226E+03  0.46156363226E+03  0.00000000000E+00 0. -1.
         21   -1    0    0  502  503 -0.00000000000E+00 -0.00000000000E+00 -0.12007318941E+03  0.12007318941E+03  0.00000000000E+00 0.  1.
         -6    2    1    2    0  503  0.11495485031E+03 -0.10104996656E+03  0.11003152946E+03  0.25517986917E+03  0.17200033373E+03 0.  0.
        -24    2    3    3    0    0  0.13084765810E+03 -0.12486592566E+03  0.10785167712E+03  0.22608308235E+03  0.82273731215E+02 0.  0.
          6    2    1    2  501    0 -0.11495485031E+03  0.10104996656E+03  0.23145891340E+03  0.32645695250E+03  0.17197441638E+03 0.  0.
         24    2    5    5    0    0 -0.74803855933E+02  0.60467502431E+02  0.48027525022E+02  0.13428982995E+03  0.80468500398E+02 0.  0.
          5    1    5    5  501    0 -0.40150994373E+02  0.40582464134E+02  0.18343138838E+03  0.19216712254E+03  0.47000000000E+01 0. -1.
        -13    1    6    6    0    0 -0.80969035358E+02  0.22481967122E+02  0.19175039749E+02  0.86192259988E+02  0.00000000000E+00 0.  1.
         14    1    6    6    0    0  0.61651794257E+01  0.37985535309E+02  0.28852485273E+02  0.48097569964E+02  0.00000000000E+00 0. -1.
         -5    1    3    3    0  503 -0.15892807795E+02  0.23815959091E+02  0.21798523348E+01  0.29096786819E+02  0.47000000000E+01 0.  1.
         13    1    4    4    0    0  0.53976409202E+02 -0.58026704462E+01  0.13871701483E+02  0.56031668159E+02  0.00000000000E+00 0. -1.
        -14    1    4    4    0    0  0.76871248898E+02 -0.11906325521E+03  0.93979975639E+02  0.17005141419E+03  0.00000000000E+00 0.  1.
</event>
<event>
12    1  0.1039610E+000  0.2101792E+03  0.7818608E-02  0.1141571E+00
         21   -1    0    0  501  502  0.00000000000E+00  0.00000000000E+00  0.19069837510E+03  0.19069837510E+03  0.00000000000E+00 0. -1.
         21   -1    0    0  502  503 -0.00000000000E+00 -0.00000000000E+00 -0.29232931699E+03  0.29232931699E+03  0.00000000000E+00 0. -1.
         -6    2    1    2    0  503  0.11209511216E+03  0.39187346682E+02 -0.16165815555E+03  0.26515777305E+03  0.17341950017E+03 0.  0.
        -24    2    3    3    0    0  0.89071235376E+02 -0.40280034248E+02 -0.81198351706E+02  0.14965438102E+03  0.79038568487E+02 0.  0.
          6    2    1    2  501    0 -0.11209511216E+03 -0.39187346682E+02  0.60027213674E+02  0.21786991904E+03  0.17251977548E+03 0.  0.
         24    2    5    5    0    0 -0.11974382862E+03  0.23327782033E+02  0.39697462741E+02  0.15152210103E+03  0.80624367581E+02 0.  0.
          5    1    5    5  501    0  0.76487164562E+01 -0.62515128715E+02  0.20329750933E+02  0.66347818010E+02  0.47000000000E+01 0. -1.
        -13    1    6    6    0    0 -0.36636379653E+02  0.34638608087E+02  0.44863982583E+02  0.67489513389E+02  0.00000000000E+00 0.  1.
         14    1    6    6    0    0 -0.83107448962E+02 -0.11310826054E+02 -0.51665198425E+01  0.84032587645E+02  0.00000000000E+00 0. -1.
         -5    1    3    3    0  503  0.23023876783E+02  0.79467380930E+02 -0.80459803849E+02  0.11550339203E+03  0.47000000000E+01 0.  1.
         11    1    4    4    0    0 -0.14968554089E+02 -0.49887077875E+01 -0.11894053937E+02  0.19758879927E+02  0.00000000000E+00 0. -1.
        -12    1    4    4    0    0  0.10403978946E+03 -0.35291326461E+02 -0.69304297769E+02  0.12989550109E+03  0.00000000000E+00 0.  1.
</event>
<event>
12    1  0.1039610E+000  0.3020935E+03  0.7818608E-02  0.1084208E+00
         21   -1    0    0  503  502  0.00000000000E+00  0.00000000000E+00  0.17626863005E+03  0.17626863005E+03  0.00000000000E+00 0. -1.
         21   -1    0    0  501  503 -0.00000000000E+00 -0.00000000000E+00 -0.75122239510E+03  0.75122239510E+03  0.00000000000E+00 0. -1.
          6    2    1    2  501    0  0.24547819117E+03 -0.34820628758E+02 -0.28845063659E+02  0.30339550527E+03  0.17246673996E+03 0.  0.
         24    2    3    3    0    0  0.16873854662E+03 -0.85480844221E+02  0.37967044974E+01  0.20570719734E+03  0.80754964124E+02 0.  0.
         -6    2    1    2    0  502 -0.24547819117E+03  0.34820628758E+02 -0.54610870139E+03  0.62409551988E+03  0.17259341144E+03 0.  0.
        -24    2    5    5    0    0 -0.15781684766E+03  0.71733461587E+02 -0.32793675088E+03  0.38604477243E+03  0.10694020209E+03 0.  0.
          5    1    3    3  501    0  0.76739644549E+02  0.50660215463E+02 -0.32641768156E+02  0.97688307922E+02  0.47000000000E+01 0. -1.
        -11    1    4    4    0    0  0.44770798185E+02 -0.77716825373E+01  0.33446973227E+02  0.56422720934E+02  0.00000000000E+00 0.  1.
         12    1    4    4    0    0  0.12396774843E+03 -0.77709161684E+02 -0.29650268730E+02  0.14928447641E+03  0.00000000000E+00 0. -1.
         -5    1    5    5    0  502 -0.87661343504E+02 -0.36912832830E+02 -0.21817195052E+03  0.23805074746E+03  0.47000000000E+01 0.  1.
         11    1    6    6    0    0 -0.16856391726E+03  0.82171264088E+02 -0.29104350189E+03  0.34622569349E+03  0.00000000000E+00 0. -1.
        -12    1    6    6    0    0  0.10747069598E+02 -0.10437802501E+02 -0.36893248990E+02  0.39819078932E+02  0.00000000000E+00 0.  1.
</event>
<event>
12    1  0.1039610E+000  0.6913060E+03  0.7818608E-02  0.9732324E-01
         21   -1    0    0  503  502  0.00000000000E+00  0.00000000000E+00  0.21292067791E+04  0.21292067791E+04  0.00000000000E+00 0.  1.
         21   -1    0    0  501  503 -0.00000000000E+00 -0.00000000000E+00 -0.22565029658E+03  0.22565029658E+03  0.00000000000E+00 0.  1.
          6    2    1    2  501    0  0.26274478950E+03 -0.61568553205E+03  0.10405747247E+04  0.12492796911E+04  0.17262818451E+03 0.  0.
         24    2    3    3    0    0  0.66285564556E+02 -0.19490444344E+03  0.25778200543E+03  0.33909318111E+03  0.78428980681E+02 0.  0.
         -6    2    1    2    0  502 -0.26274478950E+03  0.61568553205E+03  0.86298175781E+03  0.11055773846E+04  0.17164014741E+03 0.  0.
        -24    2    5    5    0    0 -0.24377069656E+03  0.62004561334E+03  0.83933215545E+03  0.10745867376E+04  0.79859089898E+02 0.  0.
          5    1    3    3  501    0  0.19645922494E+03 -0.42078108862E+03  0.78279271928E+03  0.91018650999E+03  0.47000000000E+01 0. -1.
        -11    1    4    4    0    0  0.50589169163E+01 -0.13207312742E+03  0.16486746277E+03  0.21130590125E+03  0.00000000000E+00 0.  1.
         12    1    4    4    0    0  0.61226647640E+02 -0.62831316023E+02  0.92914542660E+02  0.12778727985E+03  0.00000000000E+00 0. -1.
         -5    1    5    5    0  502 -0.18974092932E+02 -0.43600812833E+01  0.23649602360E+02  0.30990647027E+02  0.47000000000E+01 0.  1.
         11    1    6    6    0    0 -0.16125034239E+03  0.39286734470E+03  0.59399022878E+03  0.73018546640E+03  0.00000000000E+00 0. -1.
        -12    1    6    6    0    0 -0.82520354178E+02  0.22717826864E+03  0.24534192667E+03  0.34440127116E+03  0.00000000000E+00 0.  1.
</event>
<event>
12    1  0.1039610E+000  0.3698598E+03  0.7818608E-02  0.1054851E+00
         21   -1    0    0  503  502  0.00000000000E+00  0.00000000000E+00  0.77329631625E+03  0.77329631625E+03  0.00000000000E+00 0. -1.
         21   -1    0    0  501  503 -0.00000000000E+00 -0.00000000000E+00 -0.28257845832E+03  0.28257845832E+03  0.00000000000E+00 0. -1.
          6    2    1    2  501    0  0.32716548618E+03  0.49722753826E+01 -0.78518298563E+02  0.37703307630E+03  0.17007891859E+03 0.  0.
         24    2    3    3    0    0  0.10741755157E+03 -0.49778872676E+02 -0.18326046445E+02  0.14265722389E+03  0.77451746266E+02 0.  0.
         -6    2    1    2    0  502 -0.32716548618E+03 -0.49722753826E+01  0.56923615650E+03  0.67884169827E+03  0.17243627975E+03 0.  0.
        -24    2    5    5    0    0 -0.15319864411E+03 -0.59664025706E+02  0.33502881061E+03  0.38197334266E+03  0.81423031415E+02 0.  0.
          5    1    3    3  501    0  0.21974793461E+03  0.54751148059E+02 -0.60192252117E+02  0.23437585241E+03  0.47000000000E+01 0. -1.
        -11    1    4    4    0    0  0.60000156459E+02 -0.17945526399E+02 -0.47427413278E+02  0.78558387350E+02  0.00000000000E+00 0.  1.
         12    1    4    4    0    0  0.47417395113E+02 -0.31833346277E+02  0.29101366832E+02  0.64098836542E+02  0.00000000000E+00 0. -1.
         -5    1    5    5    0  502 -0.17396684208E+03  0.54691750324E+02  0.23420734589E+03  0.29686835561E+03  0.47000000000E+01 0.  1.
         13    1    6    6    0    0 -0.34999824478E+02  0.20326217666E+02  0.82884062814E+02  0.92238336426E+02  0.00000000000E+00 0. -1.
        -14    1    6    6    0    0 -0.11819881963E+03 -0.79990243373E+02  0.25214474779E+03  0.28973500623E+03  0.00000000000E+00 0.  1.
</event>
<event>
12    1  0.1039610E+000  0.2266339E+03  0.7818608E-02  0.1129114E+00
         21   -1    0    0  503  502  0.00000000000E+00  0.00000000000E+00  0.15908569834E+03  0.15908569834E+03  0.00000000000E+00 0. -1.
         21   -1    0    0  501  503 -0.00000000000E+00 -0.00000000000E+00 -0.32672628956E+03  0.32672628956E+03  0.00000000000E+00 0. -1.
          6    2    1    2  501    0  0.70316221677E+02 -0.13081179828E+03 -0.11229554760E+03  0.25251813773E+03  0.17058435529E+03 0.  0.
         24    2    3    3    0    0  0.75816349149E+02 -0.34958480925E+02 -0.10293299842E+03  0.15593730538E+03  0.82164632638E+02 0.  0.
         -6    2    1    2    0  502 -0.70316221677E+02  0.13081179828E+03 -0.55345043613E+02  0.23329385017E+03  0.17119243288E+03 0.  0.
        -24    2    5    5    0    0 -0.59985406932E+02  0.11265220911E+03  0.23022867611E+02  0.15205275268E+03  0.79380211022E+02 0.  0.
          5    1    3    3  501    0 -0.55001274725E+01 -0.95853317359E+02 -0.93625491792E+01  0.96580832354E+02  0.47000000000E+01 0. -1.
        -13    1    4    4    0    0  0.64485170678E+02 -0.59426817628E+02 -0.63933432996E+02  0.10852358152E+03  0.00000000000E+00 0.  1.
         14    1    4    4    0    0  0.11331178472E+02  0.24468336703E+02 -0.38999565428E+02  0.47413723859E+02  0.00000000000E+00 0. -1.
         -5    1    5    5    0  502 -0.10330814745E+02  0.18159589173E+02 -0.78367911224E+02  0.81241097493E+02  0.47000000000E+01 0.  1.
         13    1    6    6    0    0 -0.12238378437E+02  0.10091727364E+02  0.34865577389E+02  0.38304429961E+02  0.00000000000E+00 0. -1.
        -14    1    6    6    0    0 -0.47747028495E+02  0.10256048175E+03 -0.11842709778E+02  0.11374832272E+03  0.00000000000E+00 0.  1.
</event>
<event>
12    1  0.1039610E+000  0.1888043E+03  0.7818608E-02  0.1159749E+00
         21   -1    0    0  503  502  0.00000000000E+00  0.00000000000E+00  0.29456935116E+03  0.29456935116E+03  0.00000000000E+00 0. -1.
         21   -1    0    0  501  503 -0.00000000000E+00 -0.00000000000E+00 -0.13470840011E+03  0.13470840011E+03  0.00000000000E+00 0. -1.
          6    2    1    2  501    0  0.59768046145E+02 -0.44095282327E+02  0.10240905643E+02  0.18908187971E+03  0.17358130032E+03 0.  0.
         24    2    3    3    0    0  0.39672484720E+02 -0.85373536852E+02 -0.31276485636E+02  0.12700523624E+03  0.79306775496E+02 0.  0.
         -6    2    1    2    0  502 -0.59768046145E+02  0.44095282327E+02  0.14962004541E+03  0.24019587157E+03  0.17260152221E+03 0.  0.
        -24    2    5    5    0    0 -0.47017941388E+02 -0.24220441053E+01  0.16827265824E+03  0.18826864562E+03  0.70091670684E+02 0.  0.
          5    1    3    3  501    0  0.20095561425E+02  0.41278254525E+02  0.41517391279E+02  0.62076643468E+02  0.47000000000E+01 0. -1.
        -11    1    4    4    0    0  0.33591110470E+02 -0.16193114757E+01 -0.26639179504E+02  0.42902572847E+02  0.00000000000E+00 0.  1.
         12    1    4    4    0    0  0.60813742500E+01 -0.83754225377E+02 -0.46373061319E+01  0.84102663390E+02  0.00000000000E+00 0. -1.
         -5    1    5    5    0  502 -0.12750104756E+02  0.46517326433E+02 -0.18652612838E+02  0.51927225955E+02  0.47000000000E+01 0.  1.
         11    1    6    6    0    0  0.13872329073E+02  0.19808129664E+01  0.66708735027E+01  0.15519848170E+02  0.00000000000E+00 0. -1.
        -12    1    6    6    0    0 -0.60890270462E+02 -0.44028570717E+01  0.16160178474E+03  0.17274879745E+03  0.00000000000E+00 0.  1.
</event>
<event>
12    1  0.1039610E+000  0.1769902E+03  0.7818608E-02  0.1171650E+00
         21   -1    0    0  503  502  0.00000000000E+00  0.00000000000E+00  0.58092736717E+02  0.58092736717E+02  0.00000000000E+00 0. -1.
         21   -1    0    0  501  503 -0.00000000000E+00 -0.00000000000E+00 -0.56619149917E+03  0.56619149917E+03  0.00000000000E+00 0. -1.
          6    2    1    2  501    0 -0.20414130423E+02  0.62416012297E+01 -0.33723838062E+03  0.38086122599E+03  0.17569818950E+03 0.  0.
         24    2    3    3    0    0  0.35862515464E+02 -0.42290863785E+02 -0.23871154767E+03  0.25736188250E+03  0.78595791215E+02 0.  0.
         -6    2    1    2    0  502  0.20414130423E+02 -0.62416012297E+01 -0.17086038183E+03  0.24342300989E+03  0.17206335275E+03 0.  0.
        -24    2    5    5    0    0 -0.53888893136E+02 -0.24735104282E+02 -0.94742437327E+02  0.13535367825E+03  0.76345599734E+02 0.  0.
          5    1    3    3  501    0 -0.56276645887E+02  0.48532465014E+02 -0.98526832947E+02  0.12349934349E+03  0.47000000000E+01 0. -1.
        -13    1    4    4    0    0 -0.18393396557E+02  0.86783933830E+01 -0.71335558768E+02  0.74178120044E+02  0.00000000000E+00 0.  1.
         14    1    4    4    0    0  0.54255912021E+02 -0.50969257168E+02 -0.16737598891E+03  0.18318376246E+03  0.00000000000E+00 0. -1.
         -5    1    5    5    0  502  0.74303023559E+02  0.18493503052E+02 -0.76117944499E+02  0.10806933163E+03  0.47000000000E+01 0.  1.
         13    1    6    6    0    0 -0.11274201404E+02 -0.44450046409E+02 -0.27934498719E+02  0.53695907310E+02  0.00000000000E+00 0. -1.
        -14    1    6    6    0    0 -0.42614691731E+02  0.19714942128E+02 -0.66807938608E+02  0.81657770944E+02  0.00000000000E+00 0.  1.
</event>
<event>
12    1  0.1039610E+000  0.2059733E+03  0.7818608E-02  0.1144818E+00
         21   -1    0    0  503  502  0.00000000000E+00  0.00000000000E+00  0.12638878098E+03  0.12638878098E+03  0.00000000000E+00 0.  1.
         21   -1    0    0  501  503 -0.00000000000E+00 -0.00000000000E+00 -0.39049116967E+03  0.39049116967E+03  0.00000000000E+00 0.  1.
          6    2    1    2  501    0  0.27460563148E+02  0.11020494837E+03 -0.35086786994E+02  0.20894040623E+03  0.17183072356E+03 0.  0.
         24    2    3    3    0    0  0.27105444807E+02  0.34040474274E+02  0.44648143643E+02  0.98573280743E+02  0.76352969285E+02 0.  0.
         -6    2    1    2    0  502 -0.27460563148E+02 -0.11020494837E+03 -0.22901560170E+03  0.30793954442E+03  0.17169567269E+03 0.  0.
        -24    2    5    5    0    0  0.43867443718E+02 -0.76977350115E+02 -0.17739796517E+03  0.21371519380E+03  0.79713743878E+02 0.  0.
          5    1    3    3  501    0  0.35511834172E+00  0.76164474101E+02 -0.79734930638E+02  0.11036712549E+03  0.47000000000E+01 0. -1.
        -13    1    4    4    0    0 -0.92767478949E+01  0.47708222758E+02  0.29542674935E+02  0.56876200757E+02  0.00000000000E+00 0.  1.
         14    1    4    4    0    0  0.36382192701E+02 -0.13667748485E+02  0.15105468708E+02  0.41697079985E+02  0.00000000000E+00 0. -1.
         -5    1    5    5    0  502 -0.71328006866E+02 -0.33227598260E+02 -0.51617636534E+02  0.94224350626E+02  0.47000000000E+01 0.  1.
         11    1    6    6    0    0  0.50619356223E+02 -0.30734277301E+02 -0.48299346894E+02  0.76418204219E+02  0.00000000000E+00 0. -1.
        -12    1    6    6    0    0 -0.67519125046E+01 -0.46243072814E+02 -0.12909861828E+03  0.13729698958E+03  0.00000000000E+00 0.  1.
</event>
<event>
12    1  0.1039610E+000  0.2329262E+03  0.7818608E-02  0.1124775E+00
         21   -1    0    0  503  502  0.00000000000E+00  0.00000000000E+00  0.25369945805E+03  0.25369945805E+03  0.00000000000E+00 0. -1.
         21   -1    0    0  501  503 -0.00000000000E+00 -0.00000000000E+00 -0.33457467463E+03  0.33457467463E+03  0.00000000000E+00 0.  1.
          6    2    1    2  501    0 -0.50903042371E+02  0.14922559785E+03  0.13687678716E+03  0.27016638480E+03  0.17145034803E+03 0.  0.
         24    2    3    3    0    0 -0.64660111686E+02  0.13918072772E+03  0.49394201414E+02  0.18091701965E+03  0.82091265389E+02 0.  0.
         -6    2    1    2    0  502  0.50903042371E+02 -0.14922559785E+03 -0.21775200373E+03  0.31810774787E+03  0.17005059645E+03 0.  0.
        -24    2    5    5    0    0  0.64960789887E+02 -0.15521033455E+03 -0.12968144109E+03  0.22859824367E+03  0.84437720662E+02 0.  0.
          5    1    3    3  501    0  0.13757069314E+02  0.10044870131E+02  0.87482585748E+02  0.89249365159E+02  0.47000000000E+01 0. -1.
        -13    1    4    4    0    0 -0.15314793042E+02  0.60569167560E+02 -0.19364184476E+02  0.65407481111E+02  0.00000000000E+00 0.  1.
         14    1    4    4    0    0 -0.49345318643E+02  0.78611560157E+02  0.68758385890E+02  0.11550953853E+03  0.00000000000E+00 0. -1.
         -5    1    5    5    0  502 -0.14057747516E+02  0.59847367042E+01 -0.88070562644E+02  0.89509504205E+02  0.47000000000E+01 0.  1.
         11    1    6    6    0    0 -0.15482151755E+02 -0.14728659056E+02 -0.35148564625E+02  0.41134559871E+02  0.00000000000E+00 0. -1.
        -12    1    6    6    0    0  0.80442941643E+02 -0.14048167550E+03 -0.94532876466E+02  0.18746368380E+03  0.00000000000E+00 0.  1.
</event>
<event>
12    1  0.1039610E+000  0.1186237E+04  0.7818608E-02  0.9125004E-01
         21   -1    0    0  501  502  0.00000000000E+00  0.00000000000E+00  0.10077443528E+04  0.10077443528E+04  0.00000000000E+00 0. -1.
         21   -1    0    0  502  503 -0.00000000000E+00 -0.00000000000E+00 -0.13963767311E+04  0.13963767311E+04  0.00000000000E+00 0. -1.
         -6    2    1    2    0  503 -0.74578363490E+03 -0.90631345017E+03 -0.18355536248E+03  0.12003543155E+04  0.17193199677E+03 0.  0.
        -24    2    3    3    0    0 -0.23474696419E+03 -0.29246045105E+03 -0.10903423567E+03  0.39813896303E+03  0.77375168557E+02 0.  0.
          6    2    1    2  501    0  0.74578363490E+03  0.90631345017E+03 -0.20507701582E+03  0.12037667684E+04  0.17146588679E+03 0.  0.
         24    2    5    5    0    0  0.72711266575E+03  0.82493551670E+03 -0.19100174637E+03  0.11189659645E+04  0.79948277684E+02 0.  0.
          5    1    5    5  501    0  0.18670969155E+02  0.81377933468E+02 -0.14075269458E+02  0.84800803977E+02  0.47000000000E+01 0. -1.
        -11    1    6    6    0    0  0.49053203310E+03  0.61003523380E+03 -0.14364863997E+03  0.79586405481E+03  0.00000000000E+00 0.  1.
         12    1    6    6    0    0  0.23658063265E+03  0.21490028290E+03 -0.47353106393E+02  0.32310190965E+03  0.00000000000E+00 0. -1.
         -5    1    3    3    0  503 -0.51103667071E+03 -0.61385299912E+03 -0.74521126810E+02  0.80221535244E+03  0.47000000000E+01 0.  1.
         13    1    4    4    0    0 -0.51726415501E+02 -0.77221687855E+02  0.58811990025E+01  0.93131088458E+02  0.00000000000E+00 0. -1.
        -14    1    4    4    0    0 -0.18302054869E+03 -0.21523876319E+03 -0.11491543468E+03  0.30500787457E+03  0.00000000000E+00 0.  1.
</event>
<event>
12    1  0.1039610E+000  0.2255282E+03  0.7818608E-02  0.1130229E+00
         21   -1    0    0  503  502  0.00000000000E+00  0.00000000000E+00  0.26747519984E+03  0.26747519984E+03  0.00000000000E+00 0.  1.
         21   -1    0    0  501  503 -0.00000000000E+00 -0.00000000000E+00 -0.20044209599E+03  0.20044209599E+03  0.00000000000E+00 0.  1.
          6    2    1    2  501    0 -0.13422123522E+03 -0.47404221191E+02 -0.24230445461E+02  0.22462321739E+03  0.17206386934E+03 0.  0.
         24    2    3    3    0    0 -0.12047132172E+02  0.20014294657E+02 -0.13296943560E+02  0.84575371280E+02  0.80190269578E+02 0.  0.
         -6    2    1    2    0  502  0.13422123522E+03  0.47404221191E+02  0.91263549309E+02  0.24329407845E+03  0.17492990883E+03 0.  0.
        -24    2    5    5    0    0  0.12384178644E+03 -0.21940439842E+01  0.10528811972E+02  0.14785871457E+03  0.80060862439E+02 0.  0.
          5    1    3    3  501    0 -0.12217410305E+03 -0.67418515848E+02 -0.10933501901E+02  0.14004784611E+03  0.47000000000E+01 0. -1.
        -13    1    4    4    0    0  0.18413018864E+02  0.14571323648E+02 -0.38211156313E+02  0.44849249752E+02  0.00000000000E+00 0.  1.
         14    1    4    4    0    0 -0.30460151036E+02  0.54429710089E+01  0.24914212754E+02  0.39726121528E+02  0.00000000000E+00 0. -1.
         -5    1    5    5    0  502  0.10379448781E+02  0.49598265175E+02  0.80734737336E+02  0.95435363876E+02  0.47000000000E+01 0.  1.
         13    1    6    6    0    0  0.11578583817E+03 -0.27985534133E+02  0.74690809282E+00  0.11912224105E+03  0.00000000000E+00 0. -1.
        -14    1    6    6    0    0  0.80559482699E+01  0.25791490149E+02  0.97819038796E+01  0.28736473516E+02  0.00000000000E+00 0.  1.
</event>
<event>
12    1  0.1039610E+000  0.4359637E+03  0.7818608E-02  0.1032029E+00
         21   -1    0    0  503  502  0.00000000000E+00  0.00000000000E+00  0.78571249795E+03  0.78571249795E+03  0.00000000000E+00 0.  1.
         21   -1    0    0  501  503 -0.00000000000E+00 -0.00000000000E+00 -0.24567864892E+03  0.24567864892E+03  0.00000000000E+00 0.  1.
          6    2    1    2  501    0 -0.24317397691E+03  0.31797255056E+03  0.20377270061E+03  0.48081339163E+03  0.17151699070E+03 0.  0.
         24    2    3    3    0    0 -0.50745155140E+02  0.12333044789E+03  0.11249200126E+03  0.19225030380E+03  0.80748119599E+02 0.  0.
         -6    2    1    2    0  502  0.24317397691E+03 -0.31797255056E+03  0.33626114842E+03  0.55057775525E+03  0.17269678250E+03 0.  0.
        -24    2    5    5    0    0  0.12163561215E+03 -0.24007147889E+03  0.16108581700E+03  0.32353450428E+03  0.79349844986E+02 0.  0.
          5    1    3    3  501    0 -0.19242882177E+03  0.19464210267E+03  0.91280699352E+02  0.28856308782E+03  0.47000000000E+01 0. -1.
        -13    1    4    4    0    0 -0.28227080547E+02  0.12819407238E+03  0.85001861046E+02  0.15638351784E+03  0.00000000000E+00 0.  1.
         14    1    4    4    0    0 -0.22518074593E+02 -0.48636244944E+01  0.27490140209E+02  0.35866785963E+02  0.00000000000E+00 0. -1.
         -5    1    5    5    0  502  0.12153836476E+03 -0.77901071667E+02  0.17517533141E+03  0.22704325097E+03  0.47000000000E+01 0.  1.
         13    1    6    6    0    0  0.36579223787E+02 -0.96616986853E+02  0.10570437127E+03  0.14780492504E+03  0.00000000000E+00 0. -1.
        -14    1    6    6    0    0  0.85056388366E+02 -0.14345449204E+03  0.55381445737E+02  0.17572957924E+03  0.00000000000E+00 0.  1.
</event>
<event>
12    1  0.1039610E+000  0.1866889E+03  0.7818608E-02  0.1162664E+00
         21   -1    0    0  503  502  0.00000000000E+00  0.00000000000E+00  0.22375111211E+03  0.22375111211E+03  0.00000000000E+00 0.  1.
         21   -1    0    0  501  503 -0.00000000000E+00 -0.00000000000E+00 -0.16832487973E+03  0.16832487973E+03  0.00000000000E+00 0.  1.
          6    2    1    2  501    0 -0.62935176634E+01  0.74377782871E+02 -0.34448592351E+02  0.18487985202E+03  0.16559647103E+03 0.  0.
         24    2    3    3    0    0 -0.53976526300E+02  0.14811737733E+00 -0.31563322738E+02  0.96482299267E+02  0.73478591436E+02 0.  0.
         -6    2    1    2    0  502  0.62935176634E+01 -0.74377782871E+02  0.89874824728E+02  0.20719613981E+03  0.17111719167E+03 0.  0.
        -24    2    5    5    0    0 -0.26489426649E+02 -0.78774680427E+02  0.11701635189E+03  0.16415189929E+03  0.79661028308E+02 0.  0.
          5    1    3    3  501    0  0.47683008636E+02  0.74229665493E+02 -0.28852696127E+01  0.88397552752E+02  0.47000000000E+01 0. -1.
        -11    1    4    4    0    0 -0.50789205042E+02  0.30449257701E+02 -0.12440417735E+02  0.60510037488E+02  0.00000000000E+00 0.  1.
         12    1    4    4    0    0 -0.31873212571E+01 -0.30301140324E+02 -0.19122905003E+02  0.35972261779E+02  0.00000000000E+00 0. -1.
         -5    1    5    5    0  502  0.32782944312E+02  0.43968975562E+01 -0.27141527158E+02  0.43044240525E+02  0.47000000000E+01 0.  1.
         11    1    6    6    0    0 -0.43803083340E+02 -0.33840857682E+02  0.25940709725E+02  0.61129650578E+02  0.00000000000E+00 0. -1.
        -12    1    6    6    0    0  0.17313656691E+02 -0.44933822745E+02  0.91075642162E+02  0.10302224871E+03  0.00000000000E+00 0.  1.
</event>
<event>
12    1  0.1039610E+000  0.2835067E+03  0.7818608E-02  0.1093897E+00
         21   -1    0    0  503  502  0.00000000000E+00  0.00000000000E+00  0.34626344330E+03  0.34626344330E+03  0.00000000000E+00 0.  1.
         21   -1    0    0  501  503 -0.00000000000E+00 -0.00000000000E+00 -0.30150325595E+03  0.30150325595E+03  0.00000000000E+00 0.  1.
          6    2    1    2  501    0 -0.44100161286E+01 -0.22457564861E+03 -0.13369282635E+03  0.31344831584E+03  0.17298093736E+03 0.  0.
         24    2    3    3    0    0  0.28440539361E+02 -0.22128051616E+03 -0.82077708311E+02  0.25199730035E+03  0.83617929140E+02 0.  0.
         -6    2    1    2    0  502  0.44100161286E+01  0.22457564861E+03  0.17845301370E+03  0.33431838342E+03  0.17166721644E+03 0.  0.
        -24    2    5    5    0    0 -0.38845111835E+02  0.20849245248E+03  0.17770763312E+03  0.28792527094E+03  0.79642409088E+02 0.  0.
          5    1    3    3  501    0 -0.32850555489E+02 -0.32951324573E+01 -0.51615118039E+02  0.61451015484E+02  0.47000000000E+01 0. -1.
        -11    1    4    4    0    0  0.47934229188E+02 -0.90128218005E+02 -0.14279643832E+02  0.10307615746E+03  0.00000000000E+00 0.  1.
         12    1    4    4    0    0 -0.19493689827E+02 -0.13115229815E+03 -0.67798064479E+02  0.14892114289E+03  0.00000000000E+00 0. -1.
         -5    1    5    5    0  502  0.43255127963E+02  0.16083196131E+02  0.74538058751E+00  0.46393112475E+02  0.47000000000E+01 0.  1.
         11    1    6    6    0    0  0.41206996788E+01  0.14159892418E+03  0.14264179318E+03  0.20103212842E+03  0.00000000000E+00 0. -1.
        -12    1    6    6    0    0 -0.42965811513E+02  0.66893528305E+02  0.35065839938E+02  0.86893142529E+02  0.00000000000E+00 0.  1.
</event>
<event>
12    1  0.1039610E+000  0.3117888E+03  0.7818608E-02  0.1080066E+00
         21   -1    0    0  503  502  0.00000000000E+00  0.00000000000E+00  0.40536306406E+03  0.40536306406E+03  0.00000000000E+00 0. -1.
         21   -1    0    0  501  503 -0.00000000000E+00 -0.00000000000E+00 -0.23726206735E+03  0.23726206735E+03  0.00000000000E+00 0. -1.
          6    2    1    2  501    0  0.24754630850E+03 -0.52607073121E+02  0.61371554747E+02  0.31307476017E+03  0.17378912144E+03 0.  0.
         24    2    3    3    0    0  0.19961587217E+03 -0.11872071009E+02 -0.83291676980E+01  0.21906971864E+03  0.89077068313E+02 0.  0.
         -6    2    1    2    0  502 -0.24754630850E+03  0.52607073121E+02  0.10672944196E+03  0.32955037123E+03  0.18211423448E+03 0.  0.
        -24    2    5    5    0    0 -0.10092719316E+03 -0.40985375677E+02  0.22126558811E+02  0.13606536071E+03  0.78473552510E+02 0.  0.
          5    1    3    3  501    0  0.47930436330E+02 -0.40735002113E+02  0.69700722445E+02  0.94005041531E+02  0.47000000000E+01 0. -1.
        -13    1    4    4    0    0  0.12964181593E+03 -0.49767494695E+02  0.16053446134E+01  0.13887541574E+03  0.00000000000E+00 0.  1.
         14    1    4    4    0    0  0.69974056241E+02  0.37895423686E+02 -0.99345123114E+01  0.80194302903E+02  0.00000000000E+00 0. -1.
         -5    1    5    5    0  502 -0.14661911535E+03  0.93592448798E+02  0.84602883153E+02  0.19348501052E+03  0.47000000000E+01 0.  1.
         11    1    6    6    0    0 -0.72939945372E+02 -0.16711141305E+02  0.49745203840E+02  0.89855902308E+02  0.00000000000E+00 0. -1.
        -12    1    6    6    0    0 -0.27987247784E+02 -0.24274234372E+02 -0.27618645029E+02  0.46209458405E+02  0.00000000000E+00 0.  1.
</event>
<event>
12    1  0.1039610E+000  0.2227184E+03  0.7818608E-02  0.1132263E+00
         21   -1    0    0  503  502  0.00000000000E+00  0.00000000000E+00  0.30124894243E+03  0.30124894243E+03  0.00000000000E+00 0.  1.
         21   -1    0    0  501  503 -0.00000000000E+00 -0.00000000000E+00 -0.18370851897E+03  0.18370851897E+03  0.00000000000E+00 0.  1.
          6    2    1    2  501    0  0.14147835436E+03  0.48648516423E+01  0.14023582103E+03  0.26319116166E+03  0.17194100891E+03 0.  0.
         24    2    3    3    0    0  0.20975957994E+02  0.11590104041E+02  0.11101549050E+03  0.13892542115E+03  0.80009450596E+02 0.  0.
         -6    2    1    2    0  502 -0.14147835436E+03 -0.48648516423E+01 -0.22695397564E+02  0.22176629974E+03  0.16919048169E+03 0.  0.
        -24    2    5    5    0    0 -0.11275196792E+03 -0.57819739243E+02 -0.46773116700E+02  0.15671822553E+03  0.79477979673E+02 0.  0.
          5    1    3    3  501    0  0.12050239636E+03 -0.67252523991E+01  0.29220330525E+02  0.12426574051E+03  0.47000000000E+01 0. -1.
        -11    1    4    4    0    0 -0.72022082387E+01  0.38483901019E+02  0.80240621626E+02  0.89282919980E+02  0.00000000000E+00 0.  1.
         12    1    4    4    0    0  0.28178166233E+02 -0.26893796977E+02  0.30774868878E+02  0.49642501171E+02  0.00000000000E+00 0. -1.
         -5    1    5    5    0  502 -0.28726386436E+02  0.52954887601E+02  0.24077719136E+02  0.65048074201E+02  0.47000000000E+01 0.  1.
         13    1    6    6    0    0 -0.23413507628E+02 -0.10358910790E+02 -0.49269629585E+02  0.55524731172E+02  0.00000000000E+00 0. -1.
        -14    1    6    6    0    0 -0.89338460292E+02 -0.47460828453E+02  0.24965128852E+01  0.10119349436E+03  0.00000000000E+00 0.  1.
</event>
<event>
12    1  0.1039610E+000  0.4111239E+03  0.7818608E-02  0.1040014E+00
         21   -1    0    0  503  502  0.00000000000E+00  0.00000000000E+00  0.15878975872E+04  0.15878975872E+04  0.00000000000E+00 0. -1.
         21   -1    0    0  501  503 -0.00000000000E+00 -0.00000000000E+00 -0.12671510022E+03  0.12671510022E+03  0.00000000000E+00 0.  1.
          6    2    1    2  501    0 -0.34220775314E+03 -0.14895769766E+03  0.10738094963E+04  0.11497404024E+04  0.17187674814E+03 0.  0.
         24    2    3    3    0    0 -0.29385204031E+03 -0.16142126507E+03  0.10177196151E+04  0.10744956003E+04  0.79885753460E+02 0.  0.
         -6    2    1    2    0  502  0.34220775314E+03  0.14895769766E+03  0.38737299071E+03  0.56487228505E+03  0.17241903169E+03 0.  0.
        -24    2    5    5    0    0  0.31668203527E+03  0.17801219124E+03  0.34693290804E+03  0.50871877976E+03  0.80352364703E+02 0.  0.
          5    1    3    3  501    0 -0.48355712830E+02  0.12463567410E+02  0.56089881219E+02  0.75244802153E+02  0.47000000000E+01 0. -1.
        -13    1    4    4    0    0 -0.10172551293E+03 -0.52493424937E+02  0.23795887134E+03  0.26406072047E+03  0.00000000000E+00 0.  1.
         14    1    4    4    0    0 -0.19212652738E+03 -0.10892784013E+03  0.77976074375E+03  0.81043487979E+03  0.00000000000E+00 0. -1.
         -5    1    5    5    0  502  0.25525717870E+02 -0.29054493576E+02  0.40440082671E+02  0.56153505288E+02  0.47000000000E+01 0.  1.
         11    1    6    6    0    0  0.16211663100E+02 -0.82276756982E+01  0.22247813671E+02  0.28731130868E+02  0.00000000000E+00 0. -1.
        -12    1    6    6    0    0  0.30047037217E+03  0.18623986693E+03  0.32468509436E+03  0.47998764889E+03  0.00000000000E+00 0.  1.
</event>
<event>
12    1  0.1039610E+000  0.2418204E+03  0.7818608E-02  0.1119049E+00
         21   -1    0    0  503  502  0.00000000000E+00  0.00000000000E+00  0.46822909851E+03  0.46822909851E+03  0.00000000000E+00 0.  1.
         21   -1    0    0  501  503 -0.00000000000E+00 -0.00000000000E+00 -0.13556041441E+03  0.13556041441E+03  0.00000000000E+00 0.  1.
          6    2    1    2  501    0  0.55354172074E+02 -0.15719899058E+03  0.25567359481E+03  0.35000737853E+03  0.17134926592E+03 0.  0.
         24    2    3    3    0    0  0.10117096090E+03 -0.91071664988E+02  0.15717766957E+03  0.22274568508E+03  0.79882469414E+02 0.  0.
         -6    2    1    2    0  502 -0.55354172074E+02  0.15719899058E+03  0.76995089293E+02  0.25378213439E+03  0.17521849490E+03 0.  0.
        -24    2    5    5    0    0  0.31759931921E+02  0.94917493877E+02  0.72345469823E+02  0.14649019198E+03  0.78787596876E+02 0.  0.
          5    1    3    3  501    0 -0.45816788822E+02 -0.66127325592E+02  0.98495925250E+02  0.12726169345E+03  0.47000000000E+01 0. -1.
        -11    1    4    4    0    0  0.14219313515E+02 -0.65635369628E+02  0.70384072828E+02  0.97283648836E+02  0.00000000000E+00 0.  1.
         12    1    4    4    0    0  0.86951647381E+02 -0.25436295359E+02  0.86793596737E+02  0.12546203624E+03  0.00000000000E+00 0. -1.
         -5    1    5    5    0  502 -0.87114103995E+02  0.62281496703E+02  0.46496194704E+01  0.10729194242E+03  0.47000000000E+01 0.  1.
         13    1    6    6    0    0 -0.16403383921E+02  0.53486361040E+02  0.87996338461E+01  0.56632988418E+02  0.00000000000E+00 0. -1.
        -14    1    6    6    0    0  0.48163315842E+02  0.41431132837E+02  0.63545835977E+02  0.89857203557E+02  0.00000000000E+00 0.  1.
</event>
<event>
12    1  0.1039610E+000  0.2939781E+03  0.7818608E-02  0.1088440E+00
         21   -1    0    0  503  502  0.00000000000E+00  0.00000000000E+00  0.21169109073E+04  0.21169109073E+04  0.00000000000E+00 0.  1.
         21   -1    0    0  501  503 -0.00000000000E+00 -0.00000000000E+00 -0.40755939159E+02  0.40755939159E+02  0.00000000000E+00 0.  1.
          6    2    1    2  501    0 -0.21427010824E+03  0.10268479346E+03  0.98451803289E+03  0.10271385091E+04  0.17111958869E+03 0.  0.
         24    2    3    3    0    0 -0.24848633263E+02  0.24694758120E+02  0.26355646361E+03  0.27762492336E+03  0.79914347285E+02 0.  0.
         -6    2    1    2    0  502  0.21427010824E+03 -0.10268479346E+03  0.10916369352E+04  0.11305283374E+04  0.17311059225E+03 0.  0.
        -24    2    5    5    0    0  0.13746347728E+03 -0.14281477052E+02  0.81155611688E+03  0.82691384542E+03  0.77865324397E+02 0.  0.
          5    1    3    3  501    0 -0.18942147497E+03  0.77990035342E+02  0.72096156928E+03  0.74951358572E+03  0.47000000000E+01 0. -1.
        -13    1    4    4    0    0  0.18483807697E+02  0.32611167900E+02  0.73218071110E+02  0.82255853019E+02  0.00000000000E+00 0.  1.
         14    1    4    4    0    0 -0.43332440960E+02 -0.79164097804E+01  0.19033839250E+03  0.19536907034E+03  0.00000000000E+00 0. -1.
         -5    1    5    5    0  502  0.76806630955E+02 -0.88403316409E+02  0.28008081837E+03  0.30361449196E+03  0.47000000000E+01 0.  1.
         11    1    6    6    0    0  0.45128746714E+01  0.67924560055E+01  0.58398258135E+01  0.10030307170E+02  0.00000000000E+00 0. -1.
        -12    1    6    6    0    0  0.13295060261E+03 -0.21073933057E+02  0.80571629106E+03  0.81688353825E+03  0.00000000000E+00 0.  1.
</event>
<event>
12    1  0.1039610E+000  0.1884277E+03  0.7818608E-02  0.1160216E+00
         21   -1    0    0  501  502  0.00000000000E+00  0.00000000000E+00  0.33899858683E+03  0.33899858683E+03  0.00000000000E+00 0. -1.
         21   -1    0    0  502  503 -0.00000000000E+00 -0.00000000000E+00 -0.19839078770E+03  0.19839078770E+03  0.00000000000E+00 0. -1.
         -6    2    1    2    0  503 -0.75848228648E+02  0.32281033279E+01  0.25584215841E+03  0.31774238181E+03  0.17245763753E+03 0.  0.
        -24    2    3    3    0    0 -0.43052605013E+02  0.54468340042E+02  0.82391651112E+02  0.13387209256E+03  0.79454553855E+02 0.  0.
          6    2    1    2  501    0  0.75848228648E+02 -0.32281033279E+01 -0.11523435928E+03  0.21964699271E+03  0.17088730032E+03 0.  0.
         24    2    5    5    0    0  0.87990515762E+02  0.33359498983E+02 -0.34557637167E+02  0.13010978665E+03  0.82940576675E+02 0.  0.
          5    1    5    5  501    0 -0.12142287114E+02 -0.36587602311E+02 -0.80676722109E+02  0.89537206062E+02  0.47000000000E+01 0. -1.
        -13    1    6    6    0    0  0.72120973327E+02 -0.33406610516E+01 -0.49376341379E+02  0.87467810639E+02  0.00000000000E+00 0.  1.
         14    1    6    6    0    0  0.15869542435E+02  0.36700160034E+02  0.14818704212E+02  0.42641976012E+02  0.00000000000E+00 0. -1.
         -5    1    3    3    0  503 -0.32795623635E+02 -0.51240236714E+02  0.17345050730E+03  0.18387028925E+03  0.47000000000E+01 0.  1.
         13    1    4    4    0    0 -0.50598638333E+02  0.67866751936E+01  0.19638813829E+02  0.54698849804E+02  0.00000000000E+00 0. -1.
        -14    1    4    4    0    0  0.75460333192E+01  0.47681664848E+02  0.62752837283E+02  0.79173242756E+02  0.00000000000E+00 0.  1.
</event>
<event>
12    1  0.1039610E+000  0.1773253E+03  0.7818608E-02  0.1170680E+00
         21   -1    0    0  501  502  0.00000000000E+00  0.00000000000E+00  0.13285642740E+03  0.13285642740E+03  0.00000000000E+00 0.  1.
         21   -1    0    0  502  503 -0.00000000000E+00 -0.00000000000E+00 -0.27811984266E+03  0.27811984266E+03  0.00000000000E+00 0.  1.
         -6    2    1    2    0  503  0.16361424706E+02 -0.30677560292E+02  0.78495514833E+01  0.17749898562E+03  0.17388348258E+03 0.  0.
        -24    2    3    3    0    0  0.49272611313E+02 -0.68544836342E+02  0.32980978910E+02  0.12118952421E+03  0.80454776078E+02 0.  0.
          6    2    1    2  501    0 -0.16361424706E+02  0.30677560292E+02 -0.15311296675E+03  0.23347728444E+03  0.17279830103E+03 0.  0.
         24    2    5    5    0    0  0.48924478366E+02  0.41029113852E+02 -0.70192880406E+02  0.12733005405E+03  0.84905296876E+02 0.  0.
          5    1    5    5  501    0 -0.65285903072E+02 -0.10351553560E+02 -0.82920086344E+02  0.10614723039E+03  0.47000000000E+01 0. -1.
        -13    1    6    6    0    0  0.50491384718E+02  0.12693889532E+02 -0.81559469852E+02  0.96759815444E+02  0.00000000000E+00 0.  1.
         14    1    6    6    0    0 -0.15669063515E+01  0.28335224320E+02  0.11366589446E+02  0.30570238606E+02  0.00000000000E+00 0. -1.
         -5    1    3    3    0  503 -0.32911186607E+02  0.37867276050E+02 -0.25131427427E+02  0.56309461406E+02  0.47000000000E+01 0.  1.
         11    1    4    4    0    0 -0.20017528323E+02 -0.24268722276E+01  0.10824484571E+02  0.22885816901E+02  0.00000000000E+00 0. -1.
        -12    1    4    4    0    0  0.69290139636E+02 -0.66117964114E+02  0.22156494339E+02  0.98303707310E+02  0.00000000000E+00 0.  1.
</event>
<event>
12    1  0.1039610E+000  0.1886737E+03  0.7818608E-02  0.1159950E+00
         21   -1    0    0  501  502  0.00000000000E+00  0.00000000000E+00  0.72986903073E+02  0.72986903073E+02  0.00000000000E+00 0. -1.
         21   -1    0    0  502  503 -0.00000000000E+00 -0.00000000000E+00 -0.49780289975E+03  0.49780289975E+03  0.00000000000E+00 0. -1.
         -6    2    1    2    0  503  0.67378700976E+02 -0.33131235420E+02 -0.16641588719E+03  0.25157903044E+03  0.17309012954E+03 0.  0.
        -24    2    3    3    0    0  0.11258799703E+02 -0.39024052835E+02 -0.16036047584E+02  0.90891897247E+02  0.79715399344E+02 0.  0.
          6    2    1    2  501    0 -0.67378700976E+02  0.33131235420E+02 -0.25840010949E+03  0.31921077238E+03  0.17171875993E+03 0.  0.
         24    2    5    5    0    0 -0.10077838096E+03  0.59261858153E+02 -0.17040156178E+03  0.22141413406E+03  0.79493877775E+02 0.  0.
          5    1    5    5  501    0  0.33399679984E+02 -0.26130622733E+02 -0.87998547706E+02  0.97796638315E+02  0.47000000000E+01 0. -1.
        -13    1    6    6    0    0 -0.19592098608E+02  0.56279297591E+02 -0.81793797320E+02  0.10119997503E+03  0.00000000000E+00 0.  1.
         14    1    6    6    0    0 -0.81186282353E+02  0.29825605618E+01 -0.88607764463E+02  0.12021415904E+03  0.00000000000E+00 0. -1.
         -5    1    3    3    0  503  0.56119901273E+02  0.58928174149E+01 -0.15037983960E+03  0.16068713320E+03  0.47000000000E+01 0.  1.
         13    1    4    4    0    0 -0.19723533968E+02 -0.10905048654E+02 -0.37588368009E+02  0.43827198039E+02  0.00000000000E+00 0. -1.
        -14    1    4    4    0    0  0.30982333672E+02 -0.28119004181E+02  0.21552320425E+02  0.47064699208E+02  0.00000000000E+00 0.  1.
</event>
<event>
12    1  0.1039610E+000  0.2107237E+03  0.7818608E-02  0.1141277E+00
         21   -1    0    0  503  502  0.00000000000E+00  0.00000000000E+00  0.92714000764E+02  0.92714000764E+02  0.00000000000E+00 0.  1.
         21   -1    0    0  501  503 -0.00000000000E+00 -0.00000000000E+00 -0.49144079838E+03  0.49144079838E+03  0.00000000000E+00 0.  1.
          6    2    1    2  501    0  0.27967252173E+02  0.11759120991E+03 -0.25230988905E+03  0.32873207370E+03  0.17261122886E+03 0.  0.
         24    2    3    3    0    0 -0.39860047217E+02  0.20889208102E+02 -0.84357535522E+02  0.12334974060E+03  0.77934474574E+02 0.  0.
         -6    2    1    2    0  502 -0.27967252173E+02 -0.11759120991E+03 -0.14641690857E+03  0.25542272545E+03  0.17085958479E+03 0.  0.
        -24    2    5    5    0    0 -0.22838120455E+02 -0.11227056363E+03 -0.17442170143E+03  0.22608033816E+03  0.86966258800E+02 0.  0.
          5    1    3    3  501    0  0.67827299390E+02  0.96702001809E+02 -0.16795235352E+03  0.20538233310E+03  0.47000000000E+01 0. -1.
        -13    1    4    4    0    0 -0.26425963296E+02  0.29163201442E+02 -0.95992030841E+02  0.10374629555E+03  0.00000000000E+00 0.  1.
         14    1    4    4    0    0 -0.13434083921E+02 -0.82739933403E+01  0.11634495320E+02  0.19603445053E+02  0.00000000000E+00 0. -1.
         -5    1    5    5    0  502 -0.51291317182E+01 -0.53206462760E+01  0.28004792852E+02  0.29342387286E+02  0.47000000000E+01 0.  1.
         13    1    6    6    0    0 -0.52118405335E+02 -0.55579109882E+02 -0.68675889876E+02  0.10257555011E+03  0.00000000000E+00 0. -1.
        -14    1    6    6    0    0  0.29280284880E+02 -0.56691453753E+02 -0.10574581155E+03  0.12350478805E+03  0.00000000000E+00 0.  1.
</event>
<event>
12    1  0.1039610E+000  0.4136135E+03  0.7818608E-02  0.1039195E+00
         21   -1    0    0  501  502  0.00000000000E+00  0.00000000000E+00  0.11622334467E+03  0.11622334467E+03  0.00000000000E+00 0.  1.
         21   -1    0    0  502  503 -0.00000000000E+00 -0.00000000000E+00 -0.14833356648E+04  0.14833356648E+04  0.00000000000E+00 0.  1.
         -6    2    1    2    0  503  0.31905903280E+03  0.19942201576E+03 -0.75769108622E+03  0.86323340061E+03  0.17177984464E+03 0.  0.
        -24    2    3    3    0    0  0.19399807878E+03  0.49284417663E+02 -0.43195726810E+03  0.48335690642E+03  0.83562007616E+02 0.  0.
          6    2    1    2  501    0 -0.31905903280E+03 -0.19942201576E+03 -0.60942123387E+03  0.73632560882E+03  0.17091914793E+03 0.  0.
         24    2    5    5    0    0 -0.13125233683E+03 -0.21069929658E+02 -0.23311902668E+03  0.27948180312E+03  0.78067149404E+02 0.  0.
          5    1    5    5  501    0 -0.18780669597E+03 -0.17835208610E+03 -0.37630220719E+03  0.45684380570E+03  0.47000000000E+01 0. -1.
        -13    1    6    6    0    0 -0.72608657257E+02 -0.38380098709E+02 -0.18240761677E+03  0.20004396452E+03  0.00000000000E+00 0.  1.
         14    1    6    6    0    0 -0.58643679569E+02  0.17310169051E+02 -0.50711409910E+02  0.79437838597E+02  0.00000000000E+00 0. -1.
         -5    1    3    3    0  503  0.12506095402E+03  0.15013759810E+03 -0.32573381811E+03  0.37987649420E+03  0.47000000000E+01 0.  1.
         13    1    4    4    0    0  0.19172667397E+03  0.59183312833E+02 -0.42753538520E+03  0.47227988273E+03  0.00000000000E+00 0. -1.
        -14    1    4    4    0    0  0.22714048103E+01 -0.98988951702E+01 -0.44218829042E+01  0.11077023690E+02  0.00000000000E+00 0.  1.
</event>
<event>
12    1  0.1039610E+000  0.2171379E+03  0.7818608E-02  0.1136132E+00
         21   -1    0    0  501  502  0.00000000000E+00  0.00000000000E+00  0.23549813310E+02  0.23549813310E+02  0.00000000000E+00 0.  1.
         21   -1    0    0  502  503 -0.00000000000E+00 -0.00000000000E+00 -0.30002282302E+04  0.30002282302E+04  0.00000000000E+00 0.  1.
         -6    2    1    2    0  503  0.10156276047E+03  0.85053305500E+02 -0.61307557267E+03  0.65022221317E+03  0.17140072813E+03 0.  0.
        -24    2    3    3    0    0  0.10906424432E+03  0.11889850920E+03 -0.53412636880E+03  0.56386923485E+03  0.81398226548E+02 0.  0.
          6    2    1    2  501    0 -0.10156276047E+03 -0.85053305500E+02 -0.23636028442E+04  0.23735558303E+04  0.17204596900E+03 0.  0.
         24    2    5    5    0    0 -0.43122818338E+02  0.15453803697E+02 -0.73670577656E+03  0.74250308301E+03  0.80479994672E+02 0.  0.
          5    1    5    5  501    0 -0.58439942132E+02 -0.10050710920E+03 -0.16268970676E+04  0.16310527473E+04  0.47000000000E+01 0. -1.
        -13    1    6    6    0    0  0.19917320271E+02 -0.12576366545E+02 -0.19909260996E+03  0.20048125095E+03  0.00000000000E+00 0.  1.
         14    1    6    6    0    0 -0.63040138608E+02  0.28030170242E+02 -0.53761316661E+03  0.54202183206E+03  0.00000000000E+00 0. -1.
         -5    1    3    3    0  503 -0.75014838460E+01 -0.33845203695E+02 -0.78949203867E+02  0.86352978317E+02  0.47000000000E+01 0.  1.
         13    1    4    4    0    0  0.45272835477E+02  0.10115729147E+03 -0.27683282962E+03  0.29819262701E+03  0.00000000000E+00 0. -1.
        -14    1    4    4    0    0  0.63791408839E+02  0.17741217729E+02 -0.25729353918E+03  0.26567660784E+03  0.00000000000E+00 0.  1.
</event>
<event>
12    1  0.1039610E+000  0.1788344E+03  0.7818608E-02  0.1170984E+00
         21   -1    0    0  503  502  0.00000000000E+00  0.00000000000E+00  0.57051240891E+02  0.57051240891E+02  0.00000000000E+00 0.  1.
         21   -1    0    0  501  503 -0.00000000000E+00 -0.00000000000E+00 -0.54110305018E+03  0.54110305018E+03  0.00000000000E+00 0.  1.
          6    2    1    2  501    0 -0.33946942478E+01 -0.38997680364E+02 -0.21644835233E+03  0.28076968347E+03  0.17449751548E+03 0.  0.
         24    2    3    3    0    0 -0.63679933283E+01 -0.64738292128E+02 -0.51745163653E+02  0.11397444984E+03  0.77980865909E+02 0.  0.
         -6    2    1    2    0  502  0.33946942478E+01  0.38997680364E+02 -0.26760345695E+03  0.31738460760E+03  0.16609947604E+03 0.  0.
        -24    2    5    5    0    0 -0.68764303308E+01 -0.39820203661E+02 -0.16771156812E+03  0.18964176319E+03  0.78764804009E+02 0.  0.
          5    1    3    3  501    0  0.29732990805E+01  0.25740611765E+02 -0.16470318868E+03  0.16679523364E+03  0.47000000000E+01 0. -1.
        -11    1    4    4    0    0  0.33738539004E+02 -0.40848869162E+02 -0.16529722880E+02  0.55499106879E+02  0.00000000000E+00 0.  1.
         12    1    4    4    0    0 -0.40106532332E+02 -0.23889422967E+02 -0.35215440773E+02  0.58475342960E+02  0.00000000000E+00 0. -1.
         -5    1    5    5    0  502  0.10271124579E+02  0.78817884025E+02 -0.99891888834E+02  0.12774284441E+03  0.47000000000E+01 0.  1.
         11    1    6    6    0    0 -0.21290718346E+02  0.13557164417E+02 -0.95005540475E+02  0.98301292543E+02  0.00000000000E+00 0. -1.
        -12    1    6    6    0    0  0.14414288015E+02 -0.53377368079E+02 -0.72706027646E+02  0.91340470647E+02  0.00000000000E+00 0.  1.
</event>
<event>
12    1  0.1039610E+000  0.3709517E+03  0.7818608E-02  0.1054486E+00
         21   -1    0    0  503  502  0.00000000000E+00  0.00000000000E+00  0.30744923218E+03  0.30744923218E+03  0.00000000000E+00 0.  1.
         21   -1    0    0  501  503 -0.00000000000E+00 -0.00000000000E+00 -0.47490512631E+03  0.47490512631E+03  0.00000000000E+00 0.  1.
          6    2    1    2  501    0 -0.10657892673E+03 -0.30886484950E+03 -0.18106935437E+03  0.41278478036E+03  0.17563769790E+03 0.  0.
         24    2    3    3    0    0 -0.12943162228E+03 -0.28505212445E+03 -0.12244991992E+03  0.34534873908E+03  0.79148658828E+02 0.  0.
         -6    2    1    2    0  502  0.10657892673E+03  0.30886484950E+03  0.13613460238E+02  0.36956957814E+03  0.17216208615E+03 0.  0.
        -24    2    5    5    0    0  0.23519215120E+02  0.54307667610E+02  0.19556203689E+02  0.10169706976E+03  0.80357779053E+02 0.  0.
          5    1    3    3  501    0  0.22852695551E+02 -0.23812725047E+02 -0.58619434452E+02  0.67436041281E+02  0.47000000000E+01 0. -1.
        -13    1    4    4    0    0 -0.22185566728E+02 -0.71763464044E+02  0.39490430942E+01  0.75218276263E+02  0.00000000000E+00 0.  1.
         14    1    4    4    0    0 -0.10724605555E+03 -0.21328866041E+03 -0.12639896301E+03  0.27013046281E+03  0.00000000000E+00 0. -1.
         -5    1    5    5    0  502  0.83059711612E+02  0.25455718189E+03 -0.59427434507E+01  0.26787250837E+03  0.47000000000E+01 0.  1.
         13    1    6    6    0    0  0.18904958728E+02 -0.17492939798E+02 -0.38371654119E+01  0.26040818837E+02  0.00000000000E+00 0. -1.
        -14    1    6    6    0    0  0.46142563922E+01  0.71800607408E+02  0.23393369101E+02  0.75656250926E+02  0.00000000000E+00 0.  1.
</event>
<event>
12    1  0.1039610E+000  0.2375563E+03  0.7818608E-02  0.1122299E+00
         21   -1    0    0  503  502  0.00000000000E+00  0.00000000000E+00  0.18097734337E+03  0.18097734337E+03  0.00000000000E+00 0.  1.
         21   -1    0    0  501  503 -0.00000000000E+00 -0.00000000000E+00 -0.37428556628E+03  0.37428556628E+03  0.00000000000E+00 0.  1.
          6    2    1    2  501    0 -0.17432706845E+02  0.15586278519E+03 -0.21508122650E+03  0.31671089743E+03  0.17160638533E+03 0.  0.
         24    2    3    3    0    0 -0.72656603927E+02  0.11650194879E+03 -0.16960501924E+03  0.23492379773E+03  0.87015182709E+02 0.  0.
         -6    2    1    2    0  502  0.17432706845E+02 -0.15586278519E+03  0.21773003589E+02  0.23855201222E+03  0.17842615216E+03 0.  0.
        -24    2    5    5    0    0  0.10990657731E+02 -0.18556355163E+03  0.28107315477E+01  0.20242316938E+03  0.80078792686E+02 0.  0.
          5    1    3    3  501    0  0.55223897083E+02  0.39360836403E+02 -0.45476207259E+02  0.81787099704E+02  0.47000000000E+01 0. -1.
        -13    1    4    4    0    0 -0.90435998013E+02  0.11200776118E+03 -0.15440296149E+03  0.21110348841E+03  0.00000000000E+00 0.  1.
         14    1    4    4    0    0  0.17779394086E+02  0.44941876103E+01 -0.15202057750E+02  0.23820309321E+02  0.00000000000E+00 0. -1.
         -5    1    5    5    0  502  0.64420491133E+01  0.29700766443E+02  0.18962272041E+02  0.36128842841E+02  0.47000000000E+01 0.  1.
         11    1    6    6    0    0 -0.23016212833E+02 -0.12664279638E+03 -0.20851401053E+02  0.13039526392E+03  0.00000000000E+00 0. -1.
        -12    1    6    6    0    0  0.34006870564E+02 -0.58920755255E+02  0.23662132600E+02  0.72027905457E+02  0.00000000000E+00 0.  1.
</event>
<event>
12    1  0.1039610E+000  0.2213873E+03  0.7818608E-02  0.1133123E+00
         21   -1    0    0  501  502  0.00000000000E+00  0.00000000000E+00  0.42228703048E+03  0.42228703048E+03  0.00000000000E+00 0.  1.
         21   -1    0    0  502  503 -0.00000000000E+00 -0.00000000000E+00 -0.17818862540E+03  0.17818862540E+03  0.00000000000E+00 0.  1.
         -6    2    1    2    0  503  0.13185761895E+03  0.37026406096E+02 -0.56575401025E+02  0.22708970435E+03  0.17208013074E+03 0.  0.
        -24    2    3    3    0    0  0.55209817273E+02  0.42467730400E+01  0.34934495822E+02  0.10321258351E+03  0.79788842530E+02 0.  0.
          6    2    1    2  501    0 -0.13185761895E+03 -0.37026406096E+02  0.30067380610E+03  0.37338595154E+03  0.17393948576E+03 0.  0.
         24    2    5    5    0    0 -0.89218403787E+02  0.44695396518E+02  0.15223259590E+03  0.19859053232E+03  0.79409283014E+02 0.  0.
          5    1    5    5  501    0 -0.42639215166E+02 -0.81721802615E+02  0.14844121020E+03  0.17479541921E+03  0.47000000000E+01 0. -1.
        -13    1    6    6    0    0  0.26742495726E+01  0.24968593223E+02  0.67605637478E+02  0.72118683274E+02  0.00000000000E+00 0.  1.
         14    1    6    6    0    0 -0.91892653360E+02  0.19726803296E+02  0.84626958421E+02  0.12647184905E+03  0.00000000000E+00 0. -1.
         -5    1    3    3    0  503  0.76647801680E+02  0.32779633056E+02 -0.91509896847E+02  0.12387712084E+03  0.47000000000E+01 0.  1.
         13    1    4    4    0    0  0.72473665293E+02  0.14911253811E+02  0.16526267492E+02  0.75814874322E+02  0.00000000000E+00 0. -1.
        -14    1    4    4    0    0 -0.17263848021E+02 -0.10664480771E+02  0.18408228329E+02  0.27397709189E+02  0.00000000000E+00 0.  1.
</event>
<event>
12    1  0.1039610E+000  0.1961288E+03  0.7818608E-02  0.1153620E+00
         21   -1    0    0  501  502  0.00000000000E+00  0.00000000000E+00  0.10850474829E+03  0.10850474829E+03  0.00000000000E+00 0.  1.
         21   -1    0    0  502  503 -0.00000000000E+00 -0.00000000000E+00 -0.35750225302E+03  0.35750225302E+03  0.00000000000E+00 0.  1.
         -6    2    1    2    0  503  0.26818657557E+02  0.91835738752E+02 -0.89432839981E+02  0.21316832258E+03  0.16819470140E+03 0.  0.
        -24    2    3    3    0    0  0.35591516968E+02  0.76265808258E+02  0.54240549320E+01  0.11652823612E+03  0.80412560295E+02 0.  0.
          6    2    1    2  501    0 -0.26818657557E+02 -0.91835738752E+02 -0.15956466475E+03  0.25283867873E+03  0.17121177506E+03 0.  0.
         24    2    5    5    0    0 -0.43993285471E+01 -0.10311871980E+01 -0.16793651200E+02  0.82094000318E+02  0.80230796636E+02 0.  0.
          5    1    5    5  501    0 -0.22419329010E+02 -0.90804551554E+02 -0.14277101354E+03  0.17074467841E+03  0.47000000000E+01 0. -1.
        -13    1    6    6    0    0 -0.34658696322E+02 -0.14213662088E+02  0.10894624278E+02  0.39012129637E+02  0.00000000000E+00 0.  1.
         14    1    6    6    0    0  0.30259367775E+02  0.13182474890E+02 -0.27688275479E+02  0.43081870681E+02  0.00000000000E+00 0. -1.
         -5    1    3    3    0  503 -0.87728594107E+01  0.15569930495E+02 -0.94856894913E+02  0.96640086457E+02  0.47000000000E+01 0.  1.
         13    1    4    4    0    0 -0.22111564575E+02  0.30264514102E+02  0.18148051297E+02  0.41643893522E+02  0.00000000000E+00 0. -1.
        -14    1    4    4    0    0  0.57703081543E+02  0.46001294155E+02 -0.12723996365E+02  0.74884342602E+02  0.00000000000E+00 0.  1.
</event>
<event>
12    1  0.1039610E+000  0.1910847E+03  0.7818608E-02  0.1157882E+00
         21   -1    0    0  503  502  0.00000000000E+00  0.00000000000E+00  0.34332055444E+03  0.34332055444E+03  0.00000000000E+00 0.  1.
         21   -1    0    0  501  503 -0.00000000000E+00 -0.00000000000E+00 -0.10541137810E+03  0.10541137810E+03  0.00000000000E+00 0.  1.
          6    2    1    2  501    0 -0.52211471156E+01 -0.80006441492E+02  0.11542625708E+03  0.22324106855E+03  0.17345046210E+03 0.  0.
         24    2    3    3    0    0  0.49108172956E+02 -0.87026416105E+02  0.49145942049E+02  0.13712414092E+03  0.80015602548E+02 0.  0.
         -6    2    1    2    0  502  0.52211471156E+01  0.80006441492E+02  0.12248291925E+03  0.22549086399E+03  0.17151027134E+03 0.  0.
        -24    2    5    5    0    0 -0.13850973575E+02  0.42480289958E+02 -0.40980335811E+01  0.92011332010E+02  0.80329738174E+02 0.  0.
          5    1    3    3  501    0 -0.54329320072E+02  0.70199746134E+01  0.66280315034E+02  0.86116927628E+02  0.47000000000E+01 0. -1.
        -11    1    4    4    0    0  0.67587650543E+02 -0.59651815694E+02  0.51834453843E+02  0.10398673101E+03  0.00000000000E+00 0.  1.
         12    1    4    4    0    0 -0.18479477586E+02 -0.27374600411E+02 -0.26885117935E+01  0.33137409905E+02  0.00000000000E+00 0. -1.
         -5    1    5    5    0  502  0.19072120691E+02  0.37526151534E+02  0.12658095284E+03  0.13347953198E+03  0.47000000000E+01 0.  1.
         13    1    6    6    0    0  0.45525215016E+01  0.42931006168E+02  0.30473847493E+02  0.52843657364E+02  0.00000000000E+00 0. -1.
        -14    1    6    6    0    0 -0.18403495077E+02 -0.45071621001E+00 -0.34571881074E+02  0.39167674646E+02  0.00000000000E+00 0.  1.
</event>
<event>
12    1  0.1039610E+000  0.2279359E+03  0.7818608E-02  0.1128513E+00
         21   -1    0    0  501  502  0.00000000000E+00  0.00000000000E+00  0.11249549271E+04  0.11249549271E+04  0.00000000000E+00 0. -1.
         21   -1    0    0  502  503 -0.00000000000E+00 -0.00000000000E+00 -0.66572707850E+02  0.66572707850E+02  0.00000000000E+00 0. -1.
         -6    2    1    2    0  503  0.10659819253E+03 -0.98476223067E+02  0.19391029767E+03  0.29751060003E+03  0.17277329779E+03 0.  0.
        -24    2    3    3    0    0  0.13946951085E+03 -0.10483805730E+03  0.16411575238E+03  0.25244618578E+03  0.79701529607E+02 0.  0.
          6    2    1    2  501    0 -0.10659819253E+03  0.98476223067E+02  0.86447192157E+03  0.89401703490E+03  0.17576693192E+03 0.  0.
         24    2    5    5    0    0 -0.82034820811E+01  0.18528426957E+01  0.44555168186E+03  0.45295711390E+03  0.81136401691E+02 0.  0.
          5    1    5    5  501    0 -0.98394710448E+02  0.96623380371E+02  0.41892023971E+03  0.44105992101E+03  0.47000000000E+01 0. -1.
        -13    1    6    6    0    0 -0.25834506451E+02  0.34821871802E+02  0.20687592853E+03  0.21137084540E+03  0.00000000000E+00 0.  1.
         14    1    6    6    0    0  0.17631024370E+02 -0.32969029106E+02  0.23867575332E+03  0.24158626849E+03  0.00000000000E+00 0. -1.
         -5    1    3    3    0  503 -0.32871318322E+02  0.63618342286E+01  0.29794545283E+02  0.45064414249E+02  0.47000000000E+01 0.  1.
         11    1    4    4    0    0  0.23054755084E+02 -0.42205337089E+02  0.86989500684E+02  0.99398115878E+02  0.00000000000E+00 0. -1.
        -12    1    4    4    0    0  0.11641475577E+03 -0.62632720206E+02  0.77126251699E+02  0.15304806990E+03  0.00000000000E+00 0.  1.
</event>
<event>
12    1  0.1039610E+000  0.3532018E+03  0.7818608E-02  0.1061353E+00
         21   -1    0    0  501  502  0.00000000000E+00  0.00000000000E+00  0.14035309316E+03  0.14035309316E+03  0.00000000000E+00 0. -1.
         21   -1    0    0  502  503 -0.00000000000E+00 -0.00000000000E+00 -0.95658925945E+03  0.95658925945E+03  0.00000000000E+00 0. -1.
         -6    2    1    2    0  503  0.12839340895E+03 -0.27975054515E+03 -0.55548372897E+03  0.65826567454E+03  0.17322323789E+03 0.  0.
        -24    2    3    3    0    0  0.95328396598E+02 -0.17932169890E+03 -0.23317804660E+03  0.31902786548E+03  0.78504793772E+02 0.  0.
          6    2    1    2  501    0 -0.12839340895E+03  0.27975054515E+03 -0.26075243731E+03  0.43867667807E+03  0.17233734169E+03 0.  0.
         24    2    5    5    0    0 -0.87595373431E+02  0.28456812870E+03 -0.20905514424E+03  0.37247706383E+03  0.79894558191E+02 0.  0.
          5    1    5    5  501    0 -0.40798035523E+02 -0.48175835485E+01 -0.51697293073E+02  0.66199614235E+02  0.47000000000E+01 0. -1.
        -13    1    6    6    0    0 -0.56602570587E+02  0.12602462783E+03 -0.14032626266E+03  0.19692007975E+03  0.00000000000E+00 0.  1.
         14    1    6    6    0    0 -0.30992802844E+02  0.15854350088E+03 -0.68728881584E+02  0.17555698409E+03  0.00000000000E+00 0. -1.
         -5    1    3    3    0  503  0.33065012356E+02 -0.10042884626E+03 -0.32230568238E+03  0.33923780906E+03  0.47000000000E+01 0.  1.
         11    1    4    4    0    0  0.98244507508E+02 -0.10977564824E+03 -0.17085297696E+03  0.22559569131E+03  0.00000000000E+00 0. -1.
        -12    1    4    4    0    0 -0.29161109101E+01 -0.69546050658E+02 -0.62325069640E+02  0.93432174172E+02  0.00000000000E+00 0.  1.
</event>
<event>
12    1  0.1039610E+000  0.4357706E+03  0.7818608E-02  0.1032238E+00
         21   -1    0    0  501  502  0.00000000000E+00  0.00000000000E+00  0.68033806443E+03  0.68033806443E+03  0.00000000000E+00 0.  1.
         21   -1    0    0  502  503 -0.00000000000E+00 -0.00000000000E+00 -0.45991894120E+03  0.45991894120E+03  0.00000000000E+00 0.  1.
         -6    2    1    2    0  503  0.37921397855E+03 -0.12057911716E+03  0.46898942775E+03  0.63857658277E+03  0.17171605546E+03 0.  0.
        -24    2    3    3    0    0  0.36775120975E+03 -0.77186482379E+02  0.38977794298E+03  0.54741263627E+03  0.80839620157E+02 0.  0.
          6    2    1    2  501    0 -0.37921397855E+03  0.12057911716E+03 -0.24857030453E+03  0.50168042286E+03  0.17763300753E+03 0.  0.
         24    2    5    5    0    0 -0.15415084592E+03 -0.53093510487E+01 -0.65900349693E+02  0.18562390498E+03  0.79515441915E+02 0.  0.
          5    1    5    5  501    0 -0.22506313263E+03  0.12588846820E+03 -0.18266995484E+03  0.31605651788E+03  0.47000000000E+01 0. -1.
        -13    1    6    6    0    0 -0.15147241435E+03 -0.59340323983E+01 -0.36271471661E+02  0.15586765125E+03  0.00000000000E+00 0.  1.
         14    1    6    6    0    0 -0.26784315700E+01  0.62468134961E+00 -0.29628878032E+02  0.29756253728E+02  0.00000000000E+00 0. -1.
         -5    1    3    3    0  503  0.11462768803E+02 -0.43392634777E+02  0.79211484778E+02  0.91163946504E+02  0.47000000000E+01 0.  1.
         11    1    4    4    0    0  0.79793138007E+02 -0.51899981969E+02  0.90999456169E+02  0.13168695465E+03  0.00000000000E+00 0. -1.
        -12    1    4    4    0    0  0.28795807174E+03 -0.25286500410E+02  0.29877848681E+03  0.41572568162E+03  0.00000000000E+00 0.  1.
</event>
<event>
12    1  0.1039610E+000  0.2722414E+03  0.7818608E-02  0.1100837E+00
         21   -1    0    0  501  502  0.00000000000E+00  0.00000000000E+00  0.20068235078E+03  0.20068235078E+03  0.00000000000E+00 0. -1.
         21   -1    0    0  502  503 -0.00000000000E+00 -0.00000000000E+00 -0.36292228151E+03  0.36292228151E+03  0.00000000000E+00 0. -1.
         -6    2    1    2    0  503 -0.14138153383E+03  0.14565463984E+03 -0.64111869706E+02  0.27968861734E+03  0.18141493494E+03 0.  0.
        -24    2    3    3    0    0 -0.97330099310E+02  0.40291252317E+02 -0.92853718833E+02  0.16183211050E+03  0.80444301495E+02 0.  0.
          6    2    1    2  501    0  0.14138153383E+03 -0.14565463984E+03 -0.98128061027E+02  0.28391601495E+03  0.17255484626E+03 0.  0.
         24    2    5    5    0    0  0.16130707717E+03 -0.85056002122E+02 -0.50087439242E+02  0.20392093065E+03  0.76292186662E+02 0.  0.
          5    1    5    5  501    0 -0.19925543337E+02 -0.60598637716E+02 -0.48040621785E+02  0.79995084298E+02  0.47000000000E+01 0. -1.
        -11    1    6    6    0    0  0.15742163724E+03 -0.84742304590E+02 -0.63677262531E+02  0.18978309678E+03  0.00000000000E+00 0.  1.
         12    1    6    6    0    0  0.38854399262E+01 -0.31369753147E+00  0.13589823289E+02  0.14137833872E+02  0.00000000000E+00 0. -1.
         -5    1    3    3    0  503 -0.44051434519E+02  0.10536338752E+03  0.28741849127E+02  0.11785650684E+03  0.47000000000E+01 0.  1.
         13    1    4    4    0    0 -0.80453452703E+02  0.49689033301E+02 -0.34986053503E+02  0.10082550284E+03  0.00000000000E+00 0. -1.
        -14    1    4    4    0    0 -0.16876646607E+02 -0.93977809840E+01 -0.57867665329E+02  0.61006607665E+02  0.00000000000E+00 0.  1.
</event>
<event>
12    1  0.1039610E+000  0.2130230E+03  0.7818608E-02  0.1139328E+00
         21   -1    0    0  503  502  0.00000000000E+00  0.00000000000E+00  0.21119140566E+03  0.21119140566E+03  0.00000000000E+00 0.  1.
         21   -1    0    0  501  503 -0.00000000000E+00 -0.00000000000E+00 -0.21939465893E+03  0.21939465893E+03  0.00000000000E+00 0.  1.
          6    2    1    2  501    0 -0.11597737572E+03  0.43399609193E+02  0.29087305431E+02  0.21499970723E+03  0.17333356575E+03 0.  0.
         24    2    3    3    0    0 -0.15013422828E+03  0.45559570133E+02  0.14363294602E+02  0.17744651158E+03  0.81639447009E+02 0.  0.
         -6    2    1    2    0  502  0.11597737572E+03 -0.43399609193E+02 -0.37290558703E+02  0.21558635736E+03  0.17248946042E+03 0.  0.
        -24    2    5    5    0    0  0.40666927026E+02 -0.19421959179E+02 -0.82869854459E+02  0.12422907203E+03  0.80835871410E+02 0.  0.
          5    1    3    3  501    0  0.34156852567E+02 -0.21599609402E+01  0.14724010829E+02  0.37553195648E+02  0.47000000000E+01 0. -1.
        -11    1    4    4    0    0 -0.46243340348E+02 -0.22527686992E+02 -0.52006954007E+01  0.51700971368E+02  0.00000000000E+00 0.  1.
         12    1    4    4    0    0 -0.10389088794E+03  0.68087257126E+02  0.19563990003E+02  0.12574554021E+03  0.00000000000E+00 0. -1.
         -5    1    5    5    0  502  0.75310448691E+02 -0.23977650014E+02  0.45579295756E+02  0.91357285335E+02  0.47000000000E+01 0.  1.
         11    1    6    6    0    0 -0.76479368927E+01  0.21177021099E+02 -0.34335892513E+01  0.22776011427E+02  0.00000000000E+00 0. -1.
        -12    1    6    6    0    0  0.48314863918E+02 -0.40598980279E+02 -0.79436265208E+02  0.10145306060E+03  0.00000000000E+00 0.  1.
</event>
<event>
12    1  0.1039610E+000  0.1860645E+03  0.7818608E-02  0.1163378E+00
         21   -1    0    0  503  502  0.00000000000E+00  0.00000000000E+00  0.24925364912E+03  0.24925364912E+03  0.00000000000E+00 0.  1.
         21   -1    0    0  501  503 -0.00000000000E+00 -0.00000000000E+00 -0.13616192316E+03  0.13616192316E+03  0.00000000000E+00 0.  1.
          6    2    1    2  501    0  0.31395803183E+02 -0.65290463317E+02  0.37757141033E+02  0.18985674810E+03  0.17138098506E+03 0.  0.
         24    2    3    3    0    0 -0.36564318987E+02 -0.73790089946E+02  0.33532767324E+02  0.12107624802E+03  0.82177153467E+02 0.  0.
         -6    2    1    2    0  502 -0.31395803183E+02  0.65290463317E+02  0.75334584920E+02  0.19555882418E+03  0.16528585231E+03 0.  0.
        -24    2    5    5    0    0 -0.73699992322E+02  0.98514105631E+01  0.60531025992E+02  0.12411396190E+03  0.78813268385E+02 0.  0.
          5    1    3    3  501    0  0.67960122170E+02  0.84996266288E+01  0.42243737084E+01  0.68780500081E+02  0.47000000000E+01 0. -1.
        -13    1    4    4    0    0 -0.16498955344E+02  0.10686944740E+02  0.27815788673E+02  0.34060892748E+02  0.00000000000E+00 0.  1.
         14    1    4    4    0    0 -0.20065363643E+02 -0.84477034686E+02  0.57169786519E+01  0.87015355268E+02  0.00000000000E+00 0. -1.
         -5    1    5    5    0  502  0.42304189139E+02  0.55439052754E+02  0.14803558928E+02  0.71444862278E+02  0.47000000000E+01 0.  1.
         13    1    6    6    0    0 -0.20131158703E+02  0.88359633447E+01 -0.18432192245E+02  0.28689432025E+02  0.00000000000E+00 0. -1.
        -14    1    6    6    0    0 -0.53568833619E+02  0.10154472184E+01  0.78963218237E+02  0.95424529879E+02  0.00000000000E+00 0.  1.
</event>
<event>
12    1  0.1039610E+000  0.2244818E+03  0.7818608E-02  0.1133251E+00
         21   -1    0    0  501  502  0.00000000000E+00  0.00000000000E+00  0.78771768650E+03  0.78771768650E+03  0.00000000000E+00 0. -1.
         21   -1    0    0  502  503 -0.00000000000E+00 -0.00000000000E+00 -0.65364207373E+02  0.65364207373E+02  0.00000000000E+00 0. -1.
         -6    2    1    2    0  503  0.13447386552E+03  0.53213014419E+02  0.49417732061E+03  0.54277370116E+03  0.17168931549E+03 0.  0.
        -24    2    3    3    0    0  0.11412884585E+03  0.24401915534E+02  0.48518615841E+03  0.50607315291E+03  0.84164011589E+02 0.  0.
          6    2    1    2  501    0 -0.13447386552E+03 -0.53213014419E+02  0.22817615852E+03  0.31030819271E+03  0.15268257837E+03 0.  0.
         24    2    5    5    0    0 -0.90631649269E+02 -0.90026240116E+02  0.18446196108E+03  0.23812526835E+03  0.79740884018E+02 0.  0.
          5    1    5    5  501    0 -0.43842216251E+02  0.36813225697E+02  0.43714197440E+02  0.72182924364E+02  0.47000000000E+01 0. -1.
        -11    1    6    6    0    0 -0.29970147535E+02  0.10809584359E+02  0.51595772829E+02  0.60639761140E+02  0.00000000000E+00 0.  1.
         12    1    6    6    0    0 -0.60661501734E+02 -0.10083582447E+03  0.13286618825E+03  0.17748550721E+03  0.00000000000E+00 0. -1.
         -5    1    3    3    0  503  0.20345019672E+02  0.28811098886E+02  0.89911622064E+01  0.36700548256E+02  0.47000000000E+01 0.  1.
         11    1    4    4    0    0  0.74175052410E+02  0.55991569107E+02  0.31757937233E+03  0.33089825013E+03  0.00000000000E+00 0. -1.
        -12    1    4    4    0    0  0.39953793438E+02 -0.31589653573E+02  0.16760678608E+03  0.17517490277E+03  0.00000000000E+00 0.  1.
</event>
<event>
12    1  0.1039610E+000  0.3079724E+03  0.7818608E-02  0.1081332E+00
         21   -1    0    0  503  502  0.00000000000E+00  0.00000000000E+00  0.26637211032E+03  0.26637211032E+03  0.00000000000E+00 0. -1.
         21   -1    0    0  501  503 -0.00000000000E+00 -0.00000000000E+00 -0.41082675357E+03  0.41082675357E+03  0.00000000000E+00 0.  1.
          6    2    1    2  501    0 -0.22341381286E+03 -0.12539008437E+03  0.51486722349E+02  0.31224648246E+03  0.17091102419E+03 0.  0.
         24    2    3    3    0    0 -0.11429797221E+03 -0.91845178368E+02 -0.33673156246E+02  0.16974798309E+03  0.78618910381E+02 0.  0.
         -6    2    1    2    0  502  0.22341381286E+03  0.12539008437E+03 -0.19594136560E+03  0.36495238144E+03  0.17076538563E+03 0.  0.
        -24    2    5    5    0    0  0.17512701152E+03  0.69529769751E+02 -0.65610523797E+02  0.21508507927E+03  0.80330513796E+02 0.  0.
          5    1    3    3  501    0 -0.10911584065E+03 -0.33544906004E+02  0.85159878595E+02  0.14249849937E+03  0.47000000000E+01 0. -1.
        -11    1    4    4    0    0 -0.13123899959E+02 -0.41243051688E+02 -0.36459573567E+02  0.56590870001E+02  0.00000000000E+00 0.  1.
         12    1    4    4    0    0 -0.10117407225E+03 -0.50602126680E+02  0.27864173218E+01  0.11315711309E+03  0.00000000000E+00 0. -1.
         -5    1    5    5    0  502  0.48286801341E+02  0.55860314621E+02 -0.13033084180E+03  0.14986730217E+03  0.47000000000E+01 0.  1.
         11    1    6    6    0    0  0.18055160107E+03  0.62778862519E+02 -0.72061297330E+02  0.20428631085E+03  0.00000000000E+00 0. -1.
        -12    1    6    6    0    0 -0.54245895494E+01  0.67509072314E+01  0.64507735332E+01  0.10798768421E+02  0.00000000000E+00 0.  1.
</event>
<event>
12    1  0.1039610E+000  0.1805543E+03  0.7818608E-02  0.1167328E+00
         21   -1    0    0  501  502  0.00000000000E+00  0.00000000000E+00  0.29851008057E+03  0.29851008057E+03  0.00000000000E+00 0. -1.
         21   -1    0    0  502  503 -0.00000000000E+00 -0.00000000000E+00 -0.17932243695E+03  0.17932243695E+03  0.00000000000E+00 0. -1.
         -6    2    1    2    0  503  0.54404450684E+02  0.10494919549E+02 -0.89934065931E+02  0.20171260691E+03  0.17184252087E+03 0.  0.
        -24    2    3    3    0    0  0.63770842313E+02 -0.30987603064E+02 -0.48518114976E+01  0.10647811214E+03  0.79291212732E+02 0.  0.
          6    2    1    2  501    0 -0.54404450684E+02 -0.10494919549E+02  0.20912170955E+03  0.27611991061E+03  0.17158184064E+03 0.  0.
         24    2    5    5    0    0 -0.23683582830E+02  0.59470216757E+02  0.13051328226E+03  0.16639176080E+03  0.80962228461E+02 0.  0.
          5    1    5    5  501    0 -0.30720867854E+02 -0.69965136306E+02  0.78608427288E+02  0.10972814981E+03  0.47000000000E+01 0. -1.
        -13    1    6    6    0    0 -0.35905212673E+02 -0.52239352025E+01  0.35216872041E+02  0.50563839574E+02  0.00000000000E+00 0.  1.
         14    1    6    6    0    0  0.12221629843E+02  0.64694151960E+02  0.95296410220E+02  0.11582792122E+03  0.00000000000E+00 0. -1.
         -5    1    3    3    0  503 -0.93663916283E+01  0.41482522613E+02 -0.85082254433E+02  0.95234494769E+02  0.47000000000E+01 0.  1.
         13    1    4    4    0    0  0.37673233259E+02 -0.32550206446E+01 -0.39722831799E+02  0.54843149342E+02  0.00000000000E+00 0. -1.
        -14    1    4    4    0    0  0.26097609053E+02 -0.27732582419E+02  0.34871020302E+02  0.51634962795E+02  0.00000000000E+00 0.  1.
</event>
<event>
12    1  0.1039610E+000  0.2026989E+03  0.7818608E-02  0.1147565E+00
         21   -1    0    0  503  502  0.00000000000E+00  0.00000000000E+00  0.41239691803E+03  0.41239691803E+03  0.00000000000E+00 0.  1.
         21   -1    0    0  501  503 -0.00000000000E+00 -0.00000000000E+00 -0.11414182854E+03  0.11414182854E+03  0.00000000000E+00 0.  1.
          6    2    1    2  501    0 -0.69724060654E+02  0.81347780075E+02  0.24350784361E+03  0.31657662431E+03  0.17159773658E+03 0.  0.
         24    2    3    3    0    0  0.48448655506E+01 -0.59806155195E+01  0.93772256518E+02  0.12781855302E+03  0.86516506630E+02 0.  0.
         -6    2    1    2    0  502  0.69724060654E+02 -0.81347780075E+02  0.54747245869E+02  0.20996212226E+03  0.17206953797E+03 0.  0.
        -24    2    5    5    0    0  0.40258283765E+02 -0.12244033683E+03  0.41183342955E+02  0.15739883003E+03  0.80411183704E+02 0.  0.
          5    1    3    3  501    0 -0.74568926204E+02  0.87328395594E+02  0.14973558710E+03  0.18875807129E+03  0.47000000000E+01 0. -1.
        -11    1    4    4    0    0  0.27158722543E+02  0.24287672349E+02  0.79761312249E+02  0.87688962646E+02  0.00000000000E+00 0.  1.
         12    1    4    4    0    0 -0.22313856992E+02 -0.30268287868E+02  0.14010944270E+02  0.40129590375E+02  0.00000000000E+00 0. -1.
         -5    1    5    5    0  502  0.29465776889E+02  0.41092556752E+02  0.13563902914E+02  0.52563292233E+02  0.47000000000E+01 0.  1.
         13    1    6    6    0    0  0.50807138096E+02 -0.38657674714E+02  0.92360144151E+00  0.63848524928E+02  0.00000000000E+00 0. -1.
        -14    1    6    6    0    0 -0.10548854332E+02 -0.83782662113E+02  0.40259741514E+02  0.93550305104E+02  0.00000000000E+00 0.  1.
</event>
<event>
12    1  0.1039610E+000  0.2040740E+03  0.7818608E-02  0.1147076E+00
         21   -1    0    0  501  502  0.00000000000E+00  0.00000000000E+00  0.33926220183E+03  0.33926220183E+03  0.00000000000E+00 0. -1.
         21   -1    0    0  502  503 -0.00000000000E+00 -0.00000000000E+00 -0.12115270232E+03  0.12115270232E+03  0.00000000000E+00 0. -1.
         -6    2    1    2    0  503 -0.25698811698E+02 -0.10579499629E+03  0.12295119144E+03  0.23524537886E+03  0.16843509919E+03 0.  0.
        -24    2    3    3    0    0 -0.65139002832E+02 -0.10618423645E+03  0.56116525385E+02  0.15749807813E+03  0.78347931905E+02 0.  0.
          6    2    1    2  501    0  0.25698811698E+02  0.10579499629E+03  0.95158308070E+02  0.22516952528E+03  0.17260707216E+03 0.  0.
         24    2    5    5    0    0  0.13675579450E+01 -0.55178269772E+01  0.53765352047E+01  0.80030242965E+02  0.79646820582E+02 0.  0.
          5    1    5    5  501    0  0.24331253753E+02  0.11131282327E+03  0.89781772865E+02  0.14513928232E+03  0.47000000000E+01 0. -1.
        -11    1    6    6    0    0 -0.36223770103E+02 -0.17423293010E+02 -0.26569611097E+00  0.40197055293E+02  0.00000000000E+00 0.  1.
         12    1    6    6    0    0  0.37591328048E+02  0.11905466033E+02  0.56422313157E+01  0.39833187672E+02  0.00000000000E+00 0. -1.
         -5    1    3    3    0  503  0.39440191134E+02  0.38924015904E+00  0.66834666051E+02  0.77747300730E+02  0.47000000000E+01 0.  1.
         11    1    4    4    0    0 -0.69367662914E+02 -0.48756735186E+02  0.13491306175E+02  0.85855152591E+02  0.00000000000E+00 0. -1.
        -12    1    4    4    0    0  0.42286600816E+01 -0.57427501263E+02  0.42625219210E+02  0.71642925541E+02  0.00000000000E+00 0.  1.
</event>
<event>
12    1  0.1039610E+000  0.2146546E+03  0.7818608E-02  0.1137977E+00
         21   -1    0    0  503  502  0.00000000000E+00  0.00000000000E+00  0.20360281397E+03  0.20360281397E+03  0.00000000000E+00 0.  1.
         21   -1    0    0  501  503 -0.00000000000E+00 -0.00000000000E+00 -0.22908048779E+03  0.22908048779E+03  0.00000000000E+00 0.  1.
          6    2    1    2  501    0  0.58631415895E+01  0.12699312837E+03  0.12115742615E+02  0.21476156778E+03  0.17266762492E+03 0.  0.
         24    2    3    3    0    0 -0.19655132784E+02  0.28261887804E+02  0.53376192768E+02  0.10465455194E+03  0.83177513429E+02 0.  0.
         -6    2    1    2    0  502 -0.58631415895E+01 -0.12699312837E+03 -0.37593416437E+02  0.21792173398E+03  0.17295949265E+03 0.  0.
        -24    2    5    5    0    0 -0.18509489540E+02 -0.86333191952E+02 -0.90872105193E+02  0.14955603189E+03  0.79455937082E+02 0.  0.
          5    1    3    3  501    0  0.25518274373E+02  0.98731240567E+02 -0.41260450153E+02  0.11010701584E+03  0.47000000000E+01 0. -1.
        -13    1    4    4    0    0  0.13678899283E+02 -0.11214005846E+02 -0.11964435352E+02  0.21354482574E+02  0.00000000000E+00 0.  1.
         14    1    4    4    0    0 -0.33334032066E+02  0.39475893650E+02  0.65340628120E+02  0.83300069366E+02  0.00000000000E+00 0. -1.
         -5    1    5    5    0  502  0.12646347950E+02 -0.40659936419E+02  0.53278688756E+02  0.68365702085E+02  0.47000000000E+01 0.  1.
         13    1    6    6    0    0 -0.16812312730E+02 -0.91473919673E+02 -0.44919243698E+02  0.10328538277E+03  0.00000000000E+00 0. -1.
        -14    1    6    6    0    0 -0.16971768096E+01  0.51407277204E+01 -0.45952861495E+02  0.46270649122E+02  0.00000000000E+00 0.  1.
</event>
<event>
12    1  0.1039610E+000  0.2177050E+03  0.7818608E-02  0.1136530E+00
         21   -1    0    0  503  502  0.00000000000E+00  0.00000000000E+00  0.49174844865E+03  0.49174844865E+03  0.00000000000E+00 0.  1.
         21   -1    0    0  501  503 -0.00000000000E+00 -0.00000000000E+00 -0.10924278856E+03  0.10924278856E+03  0.00000000000E+00 0.  1.
          6    2    1    2  501    0 -0.99214057924E+02  0.84586934989E+02  0.30070493255E+03  0.36842551315E+03  0.16827217065E+03 0.  0.
         24    2    3    3    0    0 -0.98863027462E+02  0.77762664580E+01  0.23511343129E+03  0.26731004915E+03  0.79636475830E+02 0.  0.
         -6    2    1    2    0  502  0.99214057924E+02 -0.84586934989E+02  0.81800727531E+02  0.23256572406E+03  0.17434757848E+03 0.  0.
        -24    2    5    5    0    0  0.69369261316E+02  0.90527696468E+01  0.83871142335E+02  0.13415087362E+03  0.77897633617E+02 0.  0.
          5    1    3    3  501    0 -0.35103046238E+00  0.76810668531E+02  0.65591501264E+02  0.10111546400E+03  0.47000000000E+01 0. -1.
        -11    1    4    4    0    0  0.46073572053E+01  0.12240659857E+02  0.78289206382E+02  0.79374185539E+02  0.00000000000E+00 0.  1.
         12    1    4    4    0    0 -0.10347038467E+03 -0.44643933993E+01  0.15682422491E+03  0.18793586361E+03  0.00000000000E+00 0. -1.
         -5    1    5    5    0  502  0.29844796608E+02 -0.93639704635E+02 -0.20704148035E+01  0.98414850436E+02  0.47000000000E+01 0.  1.
         11    1    6    6    0    0 -0.80214874931E+01 -0.31720196798E+00  0.47418480138E+02  0.48093213007E+02  0.00000000000E+00 0. -1.
        -12    1    6    6    0    0  0.77390748809E+02  0.93699716148E+01  0.36452662196E+02  0.86057660615E+02  0.00000000000E+00 0.  1.
</event>
<event>
12    1  0.1039610E+000  0.2918960E+03  0.7818608E-02  0.1089395E+00
         21   -1    0    0  503  502  0.00000000000E+00  0.00000000000E+00  0.14923400941E+04  0.14923400941E+04  0.00000000000E+00 0. -1.
         21   -1    0    0  501  503 -0.00000000000E+00 -0.00000000000E+00 -0.58001454358E+02  0.58001454358E+02  0.00000000000E+00 0.  1.
          6    2    1    2  501    0  0.36406388328E+02  0.23293717960E+03  0.81695988308E+03  0.86754061225E+03  0.17209912432E+03 0.  0.
         24    2    3    3    0    0  0.61682913820E+02  0.65506861909E+02  0.37281094059E+03  0.39218581093E+03  0.82010865481E+02 0.  0.
         -6    2    1    2    0  502 -0.36406388328E+02 -0.23293717960E+03  0.61737875665E+03  0.68280093620E+03  0.17168411271E+03 0.  0.
        -24    2    5    5    0    0 -0.77432453013E+02 -0.13261999667E+03  0.28883661809E+03  0.33681148263E+03  0.80196848946E+02 0.  0.
          5    1    3    3  501    0 -0.25276525492E+02  0.16743031769E+03  0.44414894250E+03  0.47535480133E+03  0.47000000000E+01 0. -1.
        -11    1    4    4    0    0  0.66875583972E+02  0.80788636359E+02  0.30680299555E+03  0.32423328882E+03  0.00000000000E+00 0.  1.
         12    1    4    4    0    0 -0.51926701517E+01 -0.15281774450E+02  0.66007945034E+02  0.67952522111E+02  0.00000000000E+00 0. -1.
         -5    1    5    5    0  502  0.41026064685E+02 -0.10031718293E+03  0.32854213856E+03  0.34598945357E+03  0.47000000000E+01 0.  1.
         11    1    6    6    0    0 -0.65183766505E+02 -0.33519460990E+02  0.11670578850E+03  0.13781407312E+03  0.00000000000E+00 0. -1.
        -12    1    6    6    0    0 -0.12248686508E+02 -0.99100535681E+02  0.17213082959E+03  0.19899740950E+03  0.00000000000E+00 0.  1.
</event>
<event>
12    1  0.1039610E+000  0.1825121E+03  0.7818608E-02  0.1165586E+00
         21   -1    0    0  503  502  0.00000000000E+00  0.00000000000E+00  0.33250825674E+03  0.33250825674E+03  0.00000000000E+00 0.  1.
         21   -1    0    0  501  503 -0.00000000000E+00 -0.00000000000E+00 -0.12417495685E+03  0.12417495685E+03  0.00000000000E+00 0.  1.
          6    2    1    2  501    0 -0.58370934909E+02 -0.15556623718E+02  0.26842670690E+01  0.18172468333E+03  0.17136942743E+03 0.  0.
         24    2    3    3    0    0 -0.54924846384E+01  0.39467489213E+02 -0.35009002351E+02  0.96479999819E+02  0.80591004630E+02 0.  0.
         -6    2    1    2    0  502  0.58370934909E+02  0.15556623718E+02  0.20564903282E+03  0.27495853026E+03  0.17222512616E+03 0.  0.
        -24    2    5    5    0    0  0.99718091468E+02  0.25225120509E+02  0.18841672142E+03  0.22889216790E+03  0.79440286640E+02 0.  0.
          5    1    3    3  501    0 -0.52878450271E+02 -0.55024112930E+02  0.37693269420E+02  0.85244683508E+02  0.47000000000E+01 0. -1.
        -13    1    4    4    0    0 -0.27165474171E+02 -0.19245023660E+00  0.13367090691E+02  0.30276709490E+02  0.00000000000E+00 0.  1.
         14    1    4    4    0    0  0.21672989532E+02  0.39659939449E+02 -0.48376093042E+02  0.66203290329E+02  0.00000000000E+00 0. -1.
         -5    1    5    5    0  502 -0.41347156559E+02 -0.96684967912E+01  0.17232311393E+02  0.46066362366E+02  0.47000000000E+01 0.  1.
         11    1    6    6    0    0  0.56239522316E+02  0.42370539726E+02  0.60956923414E+02  0.93133737277E+02  0.00000000000E+00 0. -1.
        -12    1    6    6    0    0  0.43478569152E+02 -0.17145419217E+02  0.12745979801E+03  0.13575843062E+03  0.00000000000E+00 0.  1.
</event>
<event>
12    1  0.1039610E+000  0.2276177E+03  0.7818608E-02  0.1128732E+00
         21   -1    0    0  501  502  0.00000000000E+00  0.00000000000E+00  0.45893287918E+03  0.45893287918E+03  0.00000000000E+00 0. -1.
         21   -1    0    0  502  503 -0.00000000000E+00 -0.00000000000E+00 -0.16029726450E+03  0.16029726450E+03  0.00000000000E+00 0. -1.
         -6    2    1    2    0  503  0.35576430650E+02  0.14397151882E+03  0.32017645865E+03  0.39283940869E+03  0.17267413151E+03 0.  0.
        -24    2    3    3    0    0  0.25164488873E+02  0.14973824515E+03  0.33370690719E+03  0.37421612482E+03  0.74984095692E+02 0.  0.
          6    2    1    2  501    0 -0.35576430650E+02 -0.14397151882E+03 -0.21540843979E+02  0.22639073499E+03  0.16969170953E+03 0.  0.
         24    2    5    5    0    0  0.34237044169E+02 -0.11425540502E+03 -0.11658223971E+02  0.14973093546E+03  0.89760604273E+02 0.  0.
          5    1    5    5  501    0 -0.69813474819E+02 -0.29716113809E+02 -0.98826200080E+01  0.76659799533E+02  0.47000000000E+01 0. -1.
        -11    1    6    6    0    0  0.97368690075E+01 -0.84002939684E+02  0.32740877502E+02  0.90682222917E+02  0.00000000000E+00 0.  1.
         12    1    6    6    0    0  0.24500175161E+02 -0.30252465331E+02 -0.44399101473E+02  0.59048712544E+02  0.00000000000E+00 0. -1.
         -5    1    3    3    0  503  0.10411941777E+02 -0.57667263278E+01 -0.13530448542E+02  0.18623283863E+02  0.47000000000E+01 0.  1.
         13    1    4    4    0    0  0.39573010668E+02  0.32998885145E+02  0.93585665459E+02  0.10683270273E+03  0.00000000000E+00 0. -1.
        -14    1    4    4    0    0 -0.14408521795E+02  0.11673936001E+03  0.24012124174E+03  0.26738342209E+03  0.00000000000E+00 0.  1.
</event>
<event>
12    1  0.1039610E+000  0.1795845E+03  0.7818608E-02  0.1168487E+00
         21   -1    0    0  501  502  0.00000000000E+00  0.00000000000E+00  0.10069867129E+04  0.10069867129E+04  0.00000000000E+00 0.  1.
         21   -1    0    0  502  503 -0.00000000000E+00 -0.00000000000E+00 -0.33083218135E+02  0.33083218135E+02  0.00000000000E+00 0.  1.
         -6    2    1    2    0  503  0.46051840948E+02  0.15803045582E+02  0.59003075780E+03  0.61675512895E+03  0.17285857122E+03 0.  0.
        -24    2    3    3    0    0 -0.27750976613E+02  0.25111752395E+02  0.44946622749E+03  0.45765143609E+03  0.77615916487E+02 0.  0.
          6    2    1    2  501    0 -0.46051840948E+02 -0.15803045582E+02  0.38387273696E+03  0.42331480207E+03  0.17165848411E+03 0.  0.
         24    2    5    5    0    0 -0.56131579029E+02  0.46792706370E+02  0.28809301424E+03  0.30835535458E+03  0.82128730131E+02 0.  0.
          5    1    5    5  501    0  0.10079738081E+02 -0.62595751952E+02  0.95779722721E+02  0.11495944749E+03  0.47000000000E+01 0. -1.
        -13    1    6    6    0    0 -0.17713651916E+02 -0.11172693000E+02  0.17017704693E+03  0.17146086969E+03  0.00000000000E+00 0.  1.
         14    1    6    6    0    0 -0.38417927113E+02  0.57965399370E+02  0.11791596731E+03  0.13689448489E+03  0.00000000000E+00 0. -1.
         -5    1    3    3    0  503  0.73802817560E+02 -0.93087068128E+01  0.14056453031E+03  0.15910369286E+03  0.47000000000E+01 0.  1.
         13    1    4    4    0    0 -0.48893163995E+01  0.47703867948E+02  0.34601820707E+03  0.34932529834E+03  0.00000000000E+00 0. -1.
        -14    1    4    4    0    0 -0.22861660213E+02 -0.22592115553E+02  0.10344802042E+03  0.10832613776E+03  0.00000000000E+00 0.  1.
</event>
<event>
12    1  0.1039610E+000  0.2042443E+03  0.7818608E-02  0.1148345E+00
         21   -1    0    0  503  502  0.00000000000E+00  0.00000000000E+00  0.22971169031E+03  0.22971169031E+03  0.00000000000E+00 0.  1.
         21   -1    0    0  501  503 -0.00000000000E+00 -0.00000000000E+00 -0.17464164482E+03  0.17464164482E+03  0.00000000000E+00 0.  1.
          6    2    1    2  501    0  0.40694902540E+02 -0.75832140733E+02  0.49547151944E+02  0.21016812567E+03  0.18522724455E+03 0.  0.
         24    2    3    3    0    0 -0.34748720576E+02 -0.53231595440E+02  0.74299103296E+02  0.12748031513E+03  0.81791183269E+02 0.  0.
         -6    2    1    2    0  502 -0.40694902540E+02  0.75832140733E+02  0.55228935400E+01  0.19418520946E+03  0.17398506993E+03 0.  0.
        -24    2    5    5    0    0 -0.64867373182E+02 -0.14733242840E+02  0.36984651881E+01  0.10031393815E+03  0.74995753172E+02 0.  0.
          5    1    3    3  501    0  0.75443623116E+02 -0.22600545293E+02 -0.24751951352E+02  0.82687810541E+02  0.47000000000E+01 0. -1.
        -11    1    4    4    0    0 -0.63541167904E+01 -0.54507745824E+02  0.81412191733E+02  0.98180518015E+02  0.00000000000E+00 0.  1.
         12    1    4    4    0    0 -0.28394603786E+02  0.12761503843E+01 -0.71130884362E+01  0.29299797116E+02  0.00000000000E+00 0. -1.
         -5    1    5    5    0  502  0.24172470643E+02  0.90565383573E+02  0.18244283519E+01  0.93871271311E+02  0.47000000000E+01 0.  1.
         11    1    6    6    0    0  0.16969708549E+02 -0.48999796718E+01  0.27984663488E+01  0.17883294521E+02  0.00000000000E+00 0. -1.
        -12    1    6    6    0    0 -0.81837081731E+02 -0.98332631680E+01  0.89999883928E+00  0.82430643627E+02  0.00000000000E+00 0.  1.
</event>
<event>
12    1  0.1039610E+000  0.2000173E+03  0.7818608E-02  0.1149800E+00
         21   -1    0    0  501  502  0.00000000000E+00  0.00000000000E+00  0.99371010182E+02  0.99371010182E+02  0.00000000000E+00 0.  1.
         21   -1    0    0  502  503 -0.00000000000E+00 -0.00000000000E+00 -0.43899341673E+03  0.43899341673E+03  0.00000000000E+00 0.  1.
         -6    2    1    2    0  503  0.36522827688E+02 -0.95990925285E+02 -0.91680922207E+02  0.22002796921E+03  0.17163548892E+03 0.  0.
        -24    2    3    3    0    0  0.54863500982E+02 -0.41157559059E+02 -0.11626023552E+03  0.15702550107E+03  0.80228531191E+02 0.  0.
          6    2    1    2  501    0 -0.36522827688E+02  0.95990925285E+02 -0.24794148434E+03  0.31833645771E+03  0.17121607976E+03 0.  0.
         24    2    5    5    0    0  0.37603902129E+02  0.76636331996E+02 -0.18876381459E+03  0.22141659931E+03  0.78143150131E+02 0.  0.
          5    1    5    5  501    0 -0.74126729818E+02  0.19354593289E+02 -0.59177669752E+02  0.96919858399E+02  0.47000000000E+01 0. -1.
        -13    1    6    6    0    0 -0.17596738350E+01  0.14794479569E+02 -0.11995037873E+03  0.12087210777E+03  0.00000000000E+00 0.  1.
         14    1    6    6    0    0  0.39363575964E+02  0.61841852427E+02 -0.68813435856E+02  0.10054449154E+03  0.00000000000E+00 0. -1.
         -5    1    3    3    0  503 -0.18340673294E+02 -0.54833366226E+02  0.24579313309E+02  0.63002468136E+02  0.47000000000E+01 0.  1.
         13    1    4    4    0    0  0.52404684454E+02 -0.27956048100E+02 -0.24437488284E+02  0.64226025968E+02  0.00000000000E+00 0. -1.
        -14    1    4    4    0    0  0.24588165285E+01 -0.13201510959E+02 -0.91822747232E+02  0.92799475104E+02  0.00000000000E+00 0.  1.
</event>
<event>
12    1  0.1039610E+000  0.1928367E+03  0.7818608E-02  0.1155939E+00
         21   -1    0    0  501  502  0.00000000000E+00  0.00000000000E+00  0.48084108683E+02  0.48084108683E+02  0.00000000000E+00 0. -1.
         21   -1    0    0  502  503 -0.00000000000E+00 -0.00000000000E+00 -0.92512472649E+03  0.92512472649E+03  0.00000000000E+00 0. -1.
         -6    2    1    2    0  503  0.34857187178E+01 -0.85958911552E+02 -0.24123818094E+03  0.30880629372E+03  0.17252357052E+03 0.  0.
        -24    2    3    3    0    0  0.71057792597E+02 -0.23841819430E+02 -0.14898986851E+03  0.17858970703E+03  0.63864389888E+02 0.  0.
          6    2    1    2  501    0 -0.34857187178E+01  0.85958911552E+02 -0.63580243686E+03  0.66440254145E+03  0.17258306307E+03 0.  0.
         24    2    5    5    0    0 -0.18033402371E+02  0.90790501727E+02 -0.26202609316E+03  0.29028247453E+03  0.83893520112E+02 0.  0.
          5    1    5    5  501    0  0.14547683653E+02 -0.48315901750E+01 -0.37377634370E+03  0.37412006692E+03  0.47000000000E+01 0. -1.
        -13    1    6    6    0    0  0.85116606918E+00 -0.92396873428E+01 -0.11002355125E+00  0.92794617868E+01  0.00000000000E+00 0.  1.
         14    1    6    6    0    0 -0.18884568440E+02  0.10003018907E+03 -0.26191606961E+03  0.28100301274E+03  0.00000000000E+00 0. -1.
         -5    1    3    3    0  503 -0.67572073879E+02 -0.62117092123E+02 -0.92248312430E+02  0.13021658669E+03  0.47000000000E+01 0.  1.
         11    1    4    4    0    0  0.47841202360E+02 -0.45062119748E+02 -0.86549732304E+02  0.10867488873E+03  0.00000000000E+00 0. -1.
        -12    1    4    4    0    0  0.23216590237E+02  0.21220300319E+02 -0.62440136208E+02  0.69914818297E+02  0.00000000000E+00 0.  1.
</event>
<event>
12    1  0.1039610E+000  0.2219329E+03  0.7818608E-02  0.1132743E+00
         21   -1    0    0  501  502  0.00000000000E+00  0.00000000000E+00  0.55257428808E+03  0.55257428808E+03  0.00000000000E+00 0.  1.
         21   -1    0    0  502  503 -0.00000000000E+00 -0.00000000000E+00 -0.20899662064E+03  0.20899662064E+03  0.00000000000E+00 0.  1.
         -6    2    1    2    0  503  0.56659778038E+02 -0.12912223753E+03  0.46065966677E+03  0.51064778568E+03  0.16932498267E+03 0.  0.
        -24    2    3    3    0    0  0.10038503360E+03 -0.69434942862E+02  0.27606004326E+03  0.31171668676E+03  0.77844582693E+02 0.  0.
          6    2    1    2  501    0 -0.56659778038E+02  0.12912223753E+03 -0.11708199933E+03  0.25092312303E+03  0.17138067696E+03 0.  0.
         24    2    5    5    0    0 -0.10070486533E+03  0.64300059781E+02 -0.71638180113E+02  0.16020865259E+03  0.79112678665E+02 0.  0.
          5    1    5    5  501    0  0.44045087294E+02  0.64822177751E+02 -0.45443819217E+02  0.90714470445E+02  0.47000000000E+01 0. -1.
        -13    1    6    6    0    0 -0.25115911438E+02  0.24270627244E+02 -0.65776326179E+02  0.74474139403E+02  0.00000000000E+00 0.  1.
         14    1    6    6    0    0 -0.75588953894E+02  0.40029432537E+02 -0.58618539340E+01  0.85734513187E+02  0.00000000000E+00 0. -1.
         -5    1    3    3    0  503 -0.43725255565E+02 -0.59687294669E+02  0.18459962351E+03  0.19893109892E+03  0.47000000000E+01 0.  1.
         13    1    4    4    0    0  0.83824235520E+02 -0.21635012991E+02  0.12223098309E+03  0.14978314149E+03  0.00000000000E+00 0. -1.
        -14    1    4    4    0    0  0.16560798083E+02 -0.47799929871E+02  0.15382906017E+03  0.16193354527E+03  0.00000000000E+00 0.  1.
</event>
<event>
12    1  0.1039610E+000  0.3813160E+03  0.7818608E-02  0.1050471E+00
         21   -1    0    0  503  502  0.00000000000E+00  0.00000000000E+00  0.33653842565E+03  0.33653842565E+03  0.00000000000E+00 0.  1.
         21   -1    0    0  501  503 -0.00000000000E+00 -0.00000000000E+00 -0.46790195111E+03  0.46790195111E+03  0.00000000000E+00 0.  1.
          6    2    1    2  501    0  0.16257512771E+03  0.29873096518E+03 -0.17742846026E+03  0.42035198521E+03  0.17188388888E+03 0.  0.
         24    2    3    3    0    0  0.99523091187E+02  0.82303912087E+02 -0.45518058687E+02  0.15912665592E+03  0.81059356858E+02 0.  0.
         -6    2    1    2    0  502 -0.16257512771E+03 -0.29873096518E+03  0.46064934802E+02  0.38408839154E+03  0.17242694858E+03 0.  0.
        -24    2    5    5    0    0 -0.16839326292E+03 -0.31207557890E+03  0.32416558056E+02  0.36358723058E+03  0.73466884102E+02 0.  0.
          5    1    3    3  501    0  0.63052036518E+02  0.21642705309E+03 -0.13191040158E+03  0.26122532929E+03  0.47000000000E+01 0. -1.
        -13    1    4    4    0    0  0.27045446235E+02 -0.14095961444E+02 -0.83781334389E+00  0.30509903675E+02  0.00000000000E+00 0.  1.
         14    1    4    4    0    0  0.72477644952E+02  0.96399873532E+02 -0.44680245343E+02  0.12861675225E+03  0.00000000000E+00 0. -1.
         -5    1    5    5    0  502  0.58181352182E+01  0.13344613727E+02  0.13648376745E+02  0.20501160960E+02  0.47000000000E+01 0.  1.
         11    1    6    6    0    0 -0.13924046950E+02 -0.83631792056E+02 -0.67578368623E+01  0.85051890544E+02  0.00000000000E+00 0. -1.
        -12    1    6    6    0    0 -0.15446921597E+03 -0.22844378685E+03  0.39174394919E+02  0.27853534004E+03  0.00000000000E+00 0.  1.
</event>
<event>
12    1  0.1039610E+000  0.2004275E+03  0.7818608E-02  0.1150691E+00
         21   -1    0    0  501  502  0.00000000000E+00  0.00000000000E+00  0.30359263580E+03  0.30359263580E+03  0.00000000000E+00 0.  1.
         21   -1    0    0  502  503 -0.00000000000E+00 -0.00000000000E+00 -0.14239638198E+03  0.14239638198E+03  0.00000000000E+00 0.  1.
         -6    2    1    2    0  503  0.60219064318E+02  0.81962282595E+02  0.14962616359E+03  0.24522785956E+03  0.16554323543E+03 0.  0.
        -24    2    3    3    0    0  0.21563464668E+02  0.70410903905E+02  0.16859848489E+03  0.20039786168E+03  0.79442906944E+02 0.  0.
          6    2    1    2  501    0 -0.60219064318E+02 -0.81962282595E+02  0.11570090231E+02  0.20076115822E+03  0.17270502074E+03 0.  0.
         24    2    5    5    0    0 -0.59366935709E+01 -0.88469037022E+02  0.54613517514E+02  0.13102063729E+03  0.79509472766E+02 0.  0.
          5    1    5    5  501    0 -0.54282370747E+02  0.65067544276E+01 -0.43043427283E+02  0.69740520929E+02  0.47000000000E+01 0. -1.
        -13    1    6    6    0    0  0.27079460672E+02 -0.70949166323E+01  0.75555322194E+00  0.28003676419E+02  0.00000000000E+00 0.  1.
         14    1    6    6    0    0 -0.33016154243E+02 -0.81374120390E+02  0.53857964292E+02  0.10301696087E+03  0.00000000000E+00 0. -1.
         -5    1    3    3    0  503  0.38655599651E+02  0.11551378689E+02 -0.18972321298E+02  0.44829997875E+02  0.47000000000E+01 0.  1.
         11    1    4    4    0    0  0.34997367423E+02  0.65058856746E+02  0.73513357473E+02  0.10421940460E+03  0.00000000000E+00 0. -1.
        -12    1    4    4    0    0 -0.13433902755E+02  0.53520471588E+01  0.95085127416E+02  0.96178457087E+02  0.00000000000E+00 0.  1.
</event>
<event>
12    1  0.1039610E+000  0.3424239E+03  0.7818608E-02  0.1065819E+00
         21   -1    0    0  501  502  0.00000000000E+00  0.00000000000E+00  0.72948400880E+03  0.72948400880E+03  0.00000000000E+00 0.  1.
         21   -1    0    0  502  503 -0.00000000000E+00 -0.00000000000E+00 -0.16602917122E+03  0.16602917122E+03  0.00000000000E+00 0.  1.
         -6    2    1    2    0  503 -0.29539227959E+03  0.17451568323E+02  0.19989699803E+03  0.39608505720E+03  0.17135754037E+03 0.  0.
        -24    2    3    3    0    0 -0.11577786916E+03  0.57063598926E+02  0.10535043175E+03  0.18922376890E+03  0.89700345252E+02 0.  0.
          6    2    1    2  501    0  0.29539227959E+03 -0.17451568323E+02  0.36355783956E+03  0.49942812282E+03  0.17231654327E+03 0.  0.
         24    2    5    5    0    0  0.17516231559E+03 -0.30606788405E+02  0.31108571211E+03  0.36750497012E+03  0.81651518588E+02 0.  0.
          5    1    5    5  501    0  0.12022996400E+03  0.13155220082E+02  0.52472127448E+02  0.13192315270E+03  0.47000000000E+01 0. -1.
        -13    1    6    6    0    0  0.12707762808E+03 -0.55426710437E+02  0.19323480311E+03  0.23782458435E+03  0.00000000000E+00 0.  1.
         14    1    6    6    0    0  0.48084687511E+02  0.24819922032E+02  0.11785090900E+03  0.12968038577E+03  0.00000000000E+00 0. -1.
         -5    1    3    3    0  503 -0.17961441043E+03 -0.39612030603E+02  0.94546566280E+02  0.20686128830E+03  0.47000000000E+01 0.  1.
         13    1    4    4    0    0 -0.95186977264E+02  0.80850901548E+02  0.75994716953E+02  0.14619379579E+03  0.00000000000E+00 0. -1.
        -14    1    4    4    0    0 -0.20590891894E+02 -0.23787302622E+02  0.29355714797E+02  0.43029973115E+02  0.00000000000E+00 0.  1.
</event>
<event>
12    1  0.1039610E+000  0.2594415E+03  0.7818608E-02  0.1107638E+00
         21   -1    0    0  501  502  0.00000000000E+00  0.00000000000E+00  0.35231890532E+03  0.35231890532E+03  0.00000000000E+00 0.  1.
         21   -1    0    0  502  503 -0.00000000000E+00 -0.00000000000E+00 -0.24627804859E+03  0.24627804859E+03  0.00000000000E+00 0. -1.
         -6    2    1    2    0  503 -0.19748522176E+02 -0.19090367956E+03 -0.89787177591E+02  0.27354544088E+03  0.17300621945E+03 0.  0.
        -24    2    3    3    0    0  0.44488995771E+02 -0.60956110212E+02 -0.16027532879E+02  0.11083279638E+03  0.79574548863E+02 0.  0.
          6    2    1    2  501    0  0.19748522176E+02  0.19090367956E+03  0.19582803432E+03  0.32505151302E+03  0.17457275874E+03 0.  0.
         24    2    5    5    0    0  0.73423708920E+02  0.81617558537E+02  0.95742378719E+02  0.16736920464E+03  0.82421967252E+02 0.  0.
          5    1    5    5  501    0 -0.53675186744E+02  0.10928612102E+03  0.10008565560E+03  0.15768230839E+03  0.47000000000E+01 0. -1.
        -11    1    6    6    0    0  0.72704729035E+02  0.93648258650E+02  0.99464718157E+02  0.15475530405E+03  0.00000000000E+00 0.  1.
         12    1    6    6    0    0  0.71897988521E+00 -0.12030700113E+02 -0.37223394385E+01  0.12613900594E+02  0.00000000000E+00 0. -1.
         -5    1    3    3    0  503 -0.64237517947E+02 -0.12994756935E+03 -0.73759644713E+02  0.16271264450E+03  0.47000000000E+01 0.  1.
         13    1    4    4    0    0 -0.13166021002E+02  0.79147001399E+01  0.87246082527E+01  0.17666504365E+02  0.00000000000E+00 0. -1.
        -14    1    4    4    0    0  0.57655016772E+02 -0.68870810352E+02 -0.24752141132E+02  0.93166292017E+02  0.00000000000E+00 0.  1.
</event>
<event>
12    1  0.1039610E+000  0.2802807E+03  0.7818608E-02  0.1095596E+00
         21   -1    0    0  503  502  0.00000000000E+00  0.00000000000E+00  0.23998300496E+03  0.23998300496E+03  0.00000000000E+00 0. -1.
         21   -1    0    0  501  503 -0.00000000000E+00 -0.00000000000E+00 -0.45771610557E+03  0.45771610557E+03  0.00000000000E+00 0. -1.
          6    2    1    2  501    0 -0.18223825632E+03  0.12391661775E+03  0.77738852455E+02  0.29043879041E+03  0.17246811755E+03 0.  0.
         24    2    3    3    0    0 -0.19357515601E+03  0.14105638311E+03  0.88506913151E+02  0.26676733117E+03  0.77221053237E+02 0.  0.
         -6    2    1    2    0  502  0.18223825632E+03 -0.12391661775E+03 -0.29547195307E+03  0.40726032012E+03  0.17317962660E+03 0.  0.
        -24    2    5    5    0    0  0.50255389879E+02 -0.90712134259E+02 -0.20817334934E+03  0.24550386438E+03  0.78623842058E+02 0.  0.
          5    1    3    3  501    0  0.11336899691E+02 -0.17139765363E+02 -0.10768060696E+02  0.23671459238E+02  0.47000000000E+01 0. -1.
        -11    1    4    4    0    0 -0.77570227765E+02  0.28574589054E+02  0.61288117765E+02  0.10290714627E+03  0.00000000000E+00 0.  1.
         12    1    4    4    0    0 -0.11600492824E+03  0.11248179406E+03  0.27218795386E+02  0.16386018490E+03  0.00000000000E+00 0. -1.
         -5    1    5    5    0  502  0.13198286644E+03 -0.33204483492E+02 -0.87298603731E+02  0.16175645573E+03  0.47000000000E+01 0.  1.
         13    1    6    6    0    0 -0.19551734113E+02 -0.25915034700E+02 -0.75490254587E+02  0.82174435611E+02  0.00000000000E+00 0. -1.
        -14    1    6    6    0    0  0.69807123991E+02 -0.64797099559E+02 -0.13268309475E+03  0.16332942877E+03  0.00000000000E+00 0.  1.
</event>
<event>
12    1  0.1039610E+000  0.1735541E+03  0.7818608E-02  0.1174707E+00
         21   -1    0    0  503  502  0.00000000000E+00  0.00000000000E+00  0.11545624292E+04  0.11545624292E+04  0.00000000000E+00 0. -1.
         21   -1    0    0  501  503 -0.00000000000E+00 -0.00000000000E+00 -0.29457194839E+02  0.29457194839E+02  0.00000000000E+00 0. -1.
          6    2    1    2  501    0  0.14870574059E+02  0.72542108605E+01  0.35067467922E+03  0.39038009226E+03  0.17073408634E+03 0.  0.
         24    2    3    3    0    0  0.38350770009E+02  0.13729636009E+02  0.84150385825E+02  0.12270390785E+03  0.79471234427E+02 0.  0.
         -6    2    1    2    0  502 -0.14870574059E+02 -0.72542108605E+01  0.77443055512E+03  0.79363953176E+03  0.17276360761E+03 0.  0.
        -24    2    5    5    0    0 -0.20169474900E+02  0.63896511336E+02  0.46474939657E+03  0.47581094025E+03  0.76905639383E+02 0.  0.
          5    1    3    3  501    0 -0.23480195950E+02 -0.64754251481E+01  0.26652429340E+03  0.26767618442E+03  0.47000000000E+01 0. -1.
        -13    1    4    4    0    0 -0.56071798353E+01 -0.11102846399E+02  0.68827951128E+02  0.69942837520E+02  0.00000000000E+00 0.  1.
         14    1    4    4    0    0  0.43957949844E+02  0.24832482408E+02  0.15322434697E+02  0.52761070328E+02  0.00000000000E+00 0. -1.
         -5    1    5    5    0  502  0.52989008403E+01 -0.71150722196E+02  0.30968115855E+03  0.31782859151E+03  0.47000000000E+01 0.  1.
         13    1    6    6    0    0 -0.33838041626E+02  0.12969902402E+02  0.31443493892E+03  0.31651629064E+03  0.00000000000E+00 0. -1.
        -14    1    6    6    0    0  0.13668566727E+02  0.50926608934E+02  0.15031445765E+03  0.15929464961E+03  0.00000000000E+00 0.  1.
</event>
<event>
12    1  0.1039610E+000  0.2413186E+03  0.7818608E-02  0.1119906E+00
         21   -1    0    0  503  502  0.00000000000E+00  0.00000000000E+00  0.24414758460E+04  0.24414758460E+04  0.00000000000E+00 0.  1.
         21   -1    0    0  501  503 -0.00000000000E+00 -0.00000000000E+00 -0.24789006915E+02  0.24789006915E+02  0.00000000000E+00 0.  1.
          6    2    1    2  501    0 -0.16064706701E+03 -0.89266617568E+01  0.14992584415E+04  0.15176292496E+04  0.17185895254E+03 0.  0.
         24    2    3    3    0    0 -0.41883841757E+02  0.42348903243E+02  0.82263801901E+03  0.82873798584E+03  0.80781514189E+02 0.  0.
         -6    2    1    2    0  502  0.16064706701E+03  0.89266617568E+01  0.91742839758E+03  0.94863560325E+03  0.17985404540E+03 0.  0.
        -24    2    5    5    0    0  0.13495636466E+03 -0.30813301597E+02  0.42945327792E+03  0.45834886646E+03  0.80566032219E+02 0.  0.
          5    1    3    3  501    0 -0.11876322526E+03 -0.51275565000E+02  0.67662042247E+03  0.68889126380E+03  0.47000000000E+01 0. -1.
        -11    1    4    4    0    0  0.10421079356E+02  0.24614941142E+02  0.86615614612E+02  0.90646339788E+02  0.00000000000E+00 0.  1.
         12    1    4    4    0    0 -0.52304921113E+02  0.17733962101E+02  0.73602240440E+03  0.73809164605E+03  0.00000000000E+00 0. -1.
         -5    1    5    5    0  502  0.25690702353E+02  0.39739963354E+02  0.48797511965E+03  0.49028673679E+03  0.47000000000E+01 0.  1.
         11    1    6    6    0    0  0.10563448957E+03 -0.57497112043E+02  0.31152336192E+03  0.33393317940E+03  0.00000000000E+00 0. -1.
        -12    1    6    6    0    0  0.29321875094E+02  0.26683810446E+02  0.11792991600E+03  0.12441568706E+03  0.00000000000E+00 0.  1.
</event>
<event>
12    1  0.1039610E+000  0.2605383E+03  0.7818608E-02  0.1106974E+00
         21   -1    0    0  501  502  0.00000000000E+00  0.00000000000E+00  0.13649683064E+04  0.13649683064E+04  0.00000000000E+00 0. -1.
         21   -1    0    0  502  503 -0.00000000000E+00 -0.00000000000E+00 -0.60342739615E+02  0.60342739615E+02  0.00000000000E+00 0. -1.
         -6    2    1    2    0  503  0.17121503704E+03  0.92814279429E+02  0.95496633616E+03  0.98986913278E+03  0.17306391146E+03 0.  0.
        -24    2    3    3    0    0  0.70670752216E+02 -0.15851957701E+02  0.30011765942E+03  0.31847775383E+03  0.78178196473E+02 0.  0.
          6    2    1    2  501    0 -0.17121503704E+03 -0.92814279429E+02  0.34965923057E+03  0.43544191319E+03  0.17151968651E+03 0.  0.
         24    2    5    5    0    0 -0.12135242204E+03 -0.29257105289E+02  0.10544856957E+03  0.17817409222E+03  0.71022656727E+02 0.  0.
          5    1    5    5  501    0 -0.49862615007E+02 -0.63557174140E+02  0.24421066100E+03  0.25726782097E+03  0.47000000000E+01 0. -1.
        -13    1    6    6    0    0 -0.10955778823E+03 -0.22708943138E+02  0.11591078787E+03  0.16110219057E+03  0.00000000000E+00 0.  1.
         14    1    6    6    0    0 -0.11794633806E+02 -0.65481621515E+01 -0.10462218300E+02  0.17071901650E+02  0.00000000000E+00 0. -1.
         -5    1    3    3    0  503  0.10054428483E+03  0.10866623713E+03  0.65484867674E+03  0.67139137895E+03  0.47000000000E+01 0.  1.
         11    1    4    4    0    0  0.13307360634E+02  0.25066047842E+02  0.40399620430E+02  0.49371266262E+02  0.00000000000E+00 0. -1.
        -12    1    4    4    0    0  0.57363391582E+02 -0.40918005542E+02  0.25971803899E+03  0.26910648757E+03  0.00000000000E+00 0.  1.
</event>
<event>
12    1  0.1039610E+000  0.2011548E+03  0.7818608E-02  0.1149289E+00
         21   -1    0    0  503  502  0.00000000000E+00  0.00000000000E+00  0.68360623906E+03  0.68360623906E+03  0.00000000000E+00 0. -1.
         21   -1    0    0  501  503 -0.00000000000E+00 -0.00000000000E+00 -0.58635511352E+02  0.58635511352E+02  0.00000000000E+00 0. -1.
          6    2    1    2  501    0  0.79476251813E+01 -0.85964932913E+02  0.33047132660E+03  0.38560025346E+03  0.17895005820E+03 0.  0.
         24    2    3    3    0    0  0.15005902662E+02 -0.89035816257E+02  0.10843069582E+03  0.16337653438E+03  0.82353642899E+02 0.  0.
         -6    2    1    2    0  502 -0.79476251813E+01  0.85964932913E+02  0.29449940111E+03  0.35664149695E+03  0.18168688906E+03 0.  0.
        -24    2    5    5    0    0  0.28330195707E+02  0.82345661935E+02  0.93479809053E+02  0.15228850382E+03  0.82884894083E+02 0.  0.
          5    1    3    3  501    0 -0.70582774811E+01  0.30708833436E+01  0.22204063078E+03  0.22222371908E+03  0.47000000000E+01 0. -1.
        -13    1    4    4    0    0 -0.26831356425E+02 -0.72279554588E+02  0.66392025802E+02  0.10174554924E+03  0.00000000000E+00 0.  1.
         14    1    4    4    0    0  0.41837259087E+02 -0.16756261669E+02  0.42038670016E+02  0.61630985143E+02  0.00000000000E+00 0. -1.
         -5    1    5    5    0  502 -0.36277820888E+02  0.36192709779E+01  0.20101959205E+03  0.20435299313E+03  0.47000000000E+01 0.  1.
         13    1    6    6    0    0 -0.80625759870E+00 -0.16830590720E+02  0.12650509989E+02  0.21070221600E+02  0.00000000000E+00 0. -1.
        -14    1    6    6    0    0  0.29136453305E+02  0.99176252655E+02  0.80829299064E+02  0.13121828222E+03  0.00000000000E+00 0.  1.
</event>
<event>
12    1  0.1039610E+000  0.2039272E+03  0.7818608E-02  0.1148569E+00
         21   -1    0    0  503  502  0.00000000000E+00  0.00000000000E+00  0.29781361509E+03  0.29781361509E+03  0.00000000000E+00 0.  1.
         21   -1    0    0  501  503 -0.00000000000E+00 -0.00000000000E+00 -0.17642411548E+03  0.17642411548E+03  0.00000000000E+00 0.  1.
          6    2    1    2  501    0 -0.85242815259E+02 -0.30230675598E+02  0.17957283946E+03  0.27172171147E+03  0.18277322701E+03 0.  0.
         24    2    3    3    0    0  0.27039281174E+02 -0.14769878844E+01  0.49229760076E+02  0.97235459632E+02  0.79359064466E+02 0.  0.
         -6    2    1    2    0  502  0.85242815259E+02  0.30230675598E+02 -0.58183339852E+02  0.20251601909E+03  0.17160188126E+03 0.  0.
        -24    2    5    5    0    0  0.99415764212E+02 -0.29208906624E+02 -0.52331015086E+02  0.14095080065E+03  0.79949600777E+02 0.  0.
          5    1    3    3  501    0 -0.11228209643E+03 -0.28753687714E+02  0.13034307939E+03  0.17448625184E+03  0.47000000000E+01 0. -1.
        -11    1    4    4    0    0  0.20896048703E+02 -0.40925947050E+01 -0.19085560118E+02  0.28594628653E+02  0.00000000000E+00 0.  1.
         12    1    4    4    0    0  0.61432324717E+01  0.26156068206E+01  0.68315320194E+02  0.68640830978E+02  0.00000000000E+00 0. -1.
         -5    1    5    5    0  502 -0.14172948953E+02  0.59439582222E+02 -0.58523247656E+01  0.61565218443E+02  0.47000000000E+01 0.  1.
         13    1    6    6    0    0  0.41772178901E+02  0.20994978186E+02 -0.43750592427E+02  0.64029824121E+02  0.00000000000E+00 0. -1.
        -14    1    6    6    0    0  0.57643585311E+02 -0.50203884810E+02 -0.85804226588E+01  0.76920976531E+02  0.00000000000E+00 0.  1.
</event>
<event>
12    1  0.1039610E+000  0.2700498E+03  0.7818608E-02  0.1101287E+00
         21   -1    0    0  503  502  0.00000000000E+00  0.00000000000E+00  0.58058077046E+03  0.58058077046E+03  0.00000000000E+00 0. -1.
         21   -1    0    0  501  503 -0.00000000000E+00 -0.00000000000E+00 -0.12726105710E+03  0.12726105710E+03  0.00000000000E+00 0.  1.
          6    2    1    2  501    0 -0.10692205922E+03 -0.17757132873E+03  0.26848481504E+03  0.38080305379E+03  0.17309814076E+03 0.  0.
         24    2    3    3    0    0 -0.29040765532E+02 -0.16016787688E+03  0.14335296913E+03  0.23231586612E+03  0.83207409798E+02 0.  0.
         -6    2    1    2    0  502  0.10692205922E+03  0.17757132873E+03  0.18483489833E+03  0.32703877377E+03  0.17270355055E+03 0.  0.
        -24    2    5    5    0    0  0.98074837895E+02  0.61796816610E+02  0.15003712826E+03  0.20573343265E+03  0.79859783878E+02 0.  0.
          5    1    3    3  501    0 -0.77881293688E+02 -0.17403451857E+02  0.12513184590E+03  0.14848718767E+03  0.47000000000E+01 0. -1.
        -11    1    4    4    0    0 -0.58056058658E+02 -0.11605952445E+03  0.96345105485E+02  0.16162517908E+03  0.00000000000E+00 0.  1.
         12    1    4    4    0    0  0.29015293126E+02 -0.44108352430E+02  0.47007863648E+02  0.70690687039E+02  0.00000000000E+00 0. -1.
         -5    1    5    5    0  502  0.88472213250E+01  0.11577451212E+03  0.34797770068E+02  0.12130534112E+03  0.47000000000E+01 0.  1.
         13    1    6    6    0    0  0.24769060643E+02  0.58062744241E+02  0.94697828666E+02  0.11380890733E+03  0.00000000000E+00 0. -1.
        -14    1    6    6    0    0  0.73305777251E+02  0.37340723686E+01  0.55339299592E+02  0.91924525314E+02  0.00000000000E+00 0.  1.
</event>
<event>
12    1  0.1039610E+000  0.1812003E+03  0.7818608E-02  0.1166763E+00
         21   -1    0    0  503  502  0.00000000000E+00  0.00000000000E+00  0.15820416909E+04  0.15820416909E+04  0.00000000000E+00 0. -1.
         21   -1    0    0  501  503 -0.00000000000E+00 -0.00000000000E+00 -0.49659213379E+02  0.49659213379E+02  0.00000000000E+00 0. -1.
          6    2    1    2  501    0  0.20105589667E+02 -0.50702006409E+02  0.14272088532E+03  0.23027559354E+03  0.17228659172E+03 0.  0.
         24    2    3    3    0    0  0.13951816873E+02  0.36475248478E+02  0.76207741850E+02  0.12034911383E+03  0.84564722758E+02 0.  0.
         -6    2    1    2    0  502 -0.20105589667E+02  0.50702006409E+02  0.13896615922E+04  0.14014253107E+04  0.17279650613E+03 0.  0.
        -24    2    5    5    0    0 -0.74072905943E+02  0.60615470646E+02  0.10623902890E+04  0.10695528294E+04  0.78160718609E+02 0.  0.
          5    1    3    3  501    0  0.61537727935E+01 -0.87177254888E+02  0.66513143468E+02  0.10992647972E+03  0.47000000000E+01 0. -1.
        -13    1    4    4    0    0 -0.17153587190E+02 -0.15176049687E+02 -0.34159314049E+00  0.22905779259E+02  0.00000000000E+00 0.  1.
         14    1    4    4    0    0  0.31105404064E+02  0.51651298165E+02  0.76549334990E+02  0.97443334567E+02  0.00000000000E+00 0. -1.
         -5    1    5    5    0  502  0.53967316276E+02 -0.99134642372E+01  0.32727130315E+03  0.33187248133E+03  0.47000000000E+01 0.  1.
         13    1    6    6    0    0 -0.42325189061E+02  0.46951475343E+02  0.31053617907E+03  0.31690468785E+03  0.00000000000E+00 0. -1.
        -14    1    6    6    0    0 -0.31747716883E+02  0.13663995304E+02  0.75185410995E+03  0.75264814152E+03  0.00000000000E+00 0.  1.
</event>
<event>
12    1  0.1039610E+000  0.2136140E+03  0.7818608E-02  0.1139020E+00
         21   -1    0    0  501  502  0.00000000000E+00  0.00000000000E+00  0.10794419560E+03  0.10794419560E+03  0.00000000000E+00 0.  1.
         21   -1    0    0  502  503 -0.00000000000E+00 -0.00000000000E+00 -0.41987630161E+03  0.41987630161E+03  0.00000000000E+00 0. -1.
         -6    2    1    2    0  503 -0.10946439554E+03 -0.60208877172E+02 -0.15904741633E+03  0.26632125138E+03  0.17327251806E+03 0.  0.
        -24    2    3    3    0    0 -0.13156577686E+03 -0.85218342271E+02 -0.10931816935E+03  0.20624602848E+03  0.77557995169E+02 0.  0.
          6    2    1    2  501    0  0.10946439554E+03  0.60208877172E+02 -0.15288468968E+03  0.26149924583E+03  0.17146592795E+03 0.  0.
         24    2    5    5    0    0  0.12363068007E+02 -0.20322635438E+02 -0.70019681304E+02  0.11049364346E+03  0.82098931263E+02 0.  0.
          5    1    5    5  501    0  0.97101327530E+02  0.80531512610E+02 -0.82865008380E+02  0.15100560236E+03  0.47000000000E+01 0. -1.
        -13    1    6    6    0    0  0.39655281700E+02  0.86347226254E+01 -0.16519249878E+02  0.43817638207E+02  0.00000000000E+00 0.  1.
         14    1    6    6    0    0 -0.27292213693E+02 -0.28957358064E+02 -0.53500431426E+02  0.66676005257E+02  0.00000000000E+00 0. -1.
         -5    1    3    3    0  503  0.22101381323E+02  0.25009465099E+02 -0.49729246980E+02  0.60075222898E+02  0.47000000000E+01 0.  1.
         11    1    4    4    0    0 -0.11403571308E+03 -0.34747172527E+02 -0.90232700721E+02  0.14951070241E+03  0.00000000000E+00 0. -1.
        -12    1    4    4    0    0 -0.17530063777E+02 -0.50471169745E+02 -0.19085468633E+02  0.56735326071E+02  0.00000000000E+00 0.  1.
</event>
<event>
12    1  0.1039610E+000  0.3956529E+03  0.7818608E-02  0.1045302E+00
         21   -1    0    0  501  502  0.00000000000E+00  0.00000000000E+00  0.65700510397E+03  0.65700510397E+03  0.00000000000E+00 0. -1.
         21   -1    0    0  502  503 -0.00000000000E+00 -0.00000000000E+00 -0.24398924378E+03  0.24398924378E+03  0.00000000000E+00 0. -1.
         -6    2    1    2    0  503  0.10278345281E+03 -0.34155904074E+03  0.13725879148E+03  0.41878534754E+03  0.17121382828E+03 0.  0.
        -24    2    3    3    0    0  0.11058913629E+03 -0.30515209941E+03  0.69723961084E+02  0.34152321330E+03  0.80180506571E+02 0.  0.
          6    2    1    2  501    0 -0.10278345281E+03  0.34155904074E+03  0.27575706871E+03  0.48220900021E+03  0.17104543975E+03 0.  0.
         24    2    5    5    0    0 -0.74888282556E+02  0.20876742851E+03  0.25463016292E+03  0.34480380034E+03  0.69721207605E+02 0.  0.
          5    1    5    5  501    0 -0.27895170255E+02  0.13279161223E+03  0.21126905784E+02  0.13740519987E+03  0.47000000000E+01 0. -1.
        -13    1    6    6    0    0 -0.76451952431E+02  0.13048411799E+03  0.14069405559E+03  0.20655707046E+03  0.00000000000E+00 0.  1.
         14    1    6    6    0    0  0.15636698746E+01  0.78283310515E+02  0.11393610733E+03  0.13824672988E+03  0.00000000000E+00 0. -1.
         -5    1    3    3    0  503 -0.78056834773E+01 -0.36406941332E+02  0.67534830392E+02  0.77262134243E+02  0.47000000000E+01 0.  1.
         11    1    4    4    0    0  0.30636834708E+02 -0.19319882959E+03  0.54804575626E+02  0.20314513261E+03  0.00000000000E+00 0. -1.
        -12    1    4    4    0    0  0.79952301580E+02 -0.11195326982E+03  0.14919385457E+02  0.13837808068E+03  0.00000000000E+00 0.  1.
</event>
<event>
12    1  0.1039610E+000  0.2984131E+03  0.7818608E-02  0.1086179E+00
         21   -1    0    0  501  502  0.00000000000E+00  0.00000000000E+00  0.73333971353E+02  0.73333971353E+02  0.00000000000E+00 0. -1.
         21   -1    0    0  502  503 -0.00000000000E+00 -0.00000000000E+00 -0.12097551156E+04  0.12097551156E+04  0.00000000000E+00 0. -1.
         -6    2    1    2    0  503 -0.37006690756E+01 -0.24284880242E+03 -0.56586605191E+03  0.63973022735E+03  0.17338148487E+03 0.  0.
        -24    2    3    3    0    0  0.38724561972E+02 -0.76954299480E+02 -0.31494023287E+03  0.33590997951E+03  0.78908859766E+02 0.  0.
          6    2    1    2  501    0  0.37006690756E+01  0.24284880242E+03 -0.57055509229E+03  0.64335885956E+03  0.17143008209E+03 0.  0.
         24    2    5    5    0    0 -0.33354158359E+02  0.62196285391E+02 -0.14044819321E+03  0.17536054035E+03  0.77747966787E+02 0.  0.
          5    1    5    5  501    0  0.37054827434E+02  0.18065251703E+03 -0.43010689908E+03  0.46799831921E+03  0.47000000000E+01 0. -1.
        -11    1    6    6    0    0 -0.15838829630E+02  0.54355435524E+02 -0.31608380324E+02  0.64841896963E+02  0.00000000000E+00 0.  1.
         12    1    6    6    0    0 -0.17515328729E+02  0.78408498674E+01 -0.10883981289E+03  0.11051864339E+03  0.00000000000E+00 0. -1.
         -5    1    3    3    0  503 -0.42425231047E+02 -0.16589450294E+03 -0.25092581904E+03  0.30382024784E+03  0.47000000000E+01 0.  1.
         13    1    4    4    0    0  0.21890898032E+02 -0.90506189609E+02 -0.27718329242E+03  0.29240581282E+03  0.00000000000E+00 0. -1.
        -14    1    4    4    0    0  0.16833663940E+02  0.13551890129E+02 -0.37756940447E+02  0.43504166693E+02  0.00000000000E+00 0.  1.
</event>
<event>
12    1  0.1039610E+000  0.1847802E+03  0.7818608E-02  0.1163467E+00
         21   -1    0    0  501  502  0.00000000000E+00  0.00000000000E+00  0.14914323758E+04  0.14914323758E+04  0.00000000000E+00 0.  1.
         21   -1    0    0  502  503 -0.00000000000E+00 -0.00000000000E+00 -0.46977414461E+02  0.46977414461E+02  0.00000000000E+00 0.  1.
         -6    2    1    2    0  503  0.55021305038E+02 -0.38118918912E+02  0.17104970698E+03  0.25179698405E+03  0.17223043555E+03 0.  0.
        -24    2    3    3    0    0  0.18102358756E+02 -0.86792602169E+02  0.82010665112E+02  0.14371286397E+03  0.77890865279E+02 0.  0.
          6    2    1    2  501    0 -0.55021305038E+02  0.38118918912E+02  0.12734052544E+04  0.12866128062E+04  0.17126346751E+03 0.  0.
         24    2    5    5    0    0 -0.54536675015E+02 -0.39192942673E+02  0.82874953897E+03  0.83526133116E+03  0.79532114954E+02 0.  0.
          5    1    5    5  501    0 -0.48463002294E+00  0.77311861585E+02  0.44465571538E+03  0.45135147505E+03  0.47000000000E+01 0. -1.
        -13    1    6    6    0    0 -0.52963036177E+02 -0.24352089348E+02  0.80567514212E+03  0.80778124644E+03  0.00000000000E+00 0.  1.
         14    1    6    6    0    0 -0.15736388382E+01 -0.14840853324E+02  0.23074396848E+02  0.27480084725E+02  0.00000000000E+00 0. -1.
         -5    1    3    3    0  503  0.36918946282E+02  0.48673683257E+02  0.89039041872E+02  0.10808412008E+03  0.47000000000E+01 0.  1.
         11    1    4    4    0    0  0.45069159063E+02 -0.50941375752E+02  0.28137254726E+02  0.73606779346E+02  0.00000000000E+00 0. -1.
        -12    1    4    4    0    0 -0.26966800308E+02 -0.35851226417E+02  0.53873410385E+02  0.70106084622E+02  0.00000000000E+00 0.  1.
</event>
<event>
12    1  0.1039610E+000  0.3379604E+03  0.7818608E-02  0.1067697E+00
         21   -1    0    0  501  502  0.00000000000E+00  0.00000000000E+00  0.14977887028E+03  0.14977887028E+03  0.00000000000E+00 0.  1.
         21   -1    0    0  502  503 -0.00000000000E+00 -0.00000000000E+00 -0.10068554799E+04  0.10068554799E+04  0.00000000000E+00 0.  1.
         -6    2    1    2    0  503  0.65499997506E+02 -0.28313223635E+03 -0.71362640151E+03  0.78948971527E+03  0.17198039614E+03 0.  0.
        -24    2    3    3    0    0  0.67103024194E+02 -0.11521226653E+03 -0.45922419377E+03  0.48462538600E+03  0.78728790170E+02 0.  0.
          6    2    1    2  501    0 -0.65499997506E+02  0.28313223635E+03 -0.14345020812E+03  0.36714463492E+03  0.17251987656E+03 0.  0.
         24    2    5    5    0    0 -0.35538294821E+02  0.16194401824E+03 -0.15851482644E+03  0.24131411175E+03  0.74944745544E+02 0.  0.
          5    1    5    5  501    0 -0.29961702685E+02  0.12118821811E+03  0.15064618328E+02  0.12583052317E+03  0.47000000000E+01 0. -1.
        -13    1    6    6    0    0 -0.13125116821E+01  0.30021165057E+02 -0.76643048792E+02  0.82323447246E+02  0.00000000000E+00 0.  1.
         14    1    6    6    0    0 -0.34225783139E+02  0.13192285319E+03 -0.81871777651E+02  0.15899066451E+03  0.00000000000E+00 0. -1.
         -5    1    3    3    0  503 -0.16030266875E+01 -0.16791996982E+03 -0.25440220774E+03  0.30486432927E+03  0.47000000000E+01 0.  1.
         11    1    4    4    0    0  0.32829138039E+02 -0.10373257080E+03 -0.25523011788E+03  0.27745380088E+03  0.00000000000E+00 0. -1.
        -12    1    4    4    0    0  0.34273886154E+02 -0.11479695737E+02 -0.20399407589E+03  0.20717158512E+03  0.00000000000E+00 0.  1.
</event>
<event>
12    1  0.1039610E+000  0.4925485E+03  0.7818608E-02  0.1015792E+00
         21   -1    0    0  503  502  0.00000000000E+00  0.00000000000E+00  0.23018741851E+03  0.23018741851E+03  0.00000000000E+00 0.  1.
         21   -1    0    0  501  503 -0.00000000000E+00 -0.00000000000E+00 -0.18677452537E+04  0.18677452537E+04  0.00000000000E+00 0.  1.
          6    2    1    2  501    0 -0.45955230897E+03  0.30575072661E+02 -0.15122192592E+04  0.15904122468E+04  0.17458770680E+03 0.  0.
         24    2    3    3    0    0 -0.22420300030E+03  0.39764391906E+02 -0.56937162840E+03  0.61858022148E+03  0.81297275303E+02 0.  0.
         -6    2    1    2    0  502  0.45955230897E+03 -0.30575072661E+02 -0.12533857606E+03  0.50752042541E+03  0.17246467410E+03 0.  0.
        -24    2    5    5    0    0  0.46480086834E+03 -0.44687278385E+02 -0.12957422858E+03  0.49118847886E+03  0.80248619882E+02 0.  0.
          5    1    3    3  501    0 -0.23534930866E+03 -0.91893192446E+01 -0.94284763077E+03  0.97183202536E+03  0.47000000000E+01 0. -1.
        -13    1    4    4    0    0  0.11592798628E+01 -0.45560710069E+00  0.23887957449E+01  0.26940402264E+01  0.00000000000E+00 0.  1.
         14    1    4    4    0    0 -0.22536228016E+03  0.40219999006E+02 -0.57176042415E+03  0.61588618126E+03  0.00000000000E+00 0. -1.
         -5    1    5    5    0  502 -0.52485593714E+01  0.14112205723E+02  0.42356525213E+01  0.16331946551E+02  0.47000000000E+01 0.  1.
         11    1    6    6    0    0  0.36824285877E+03 -0.47426094671E+02 -0.70376322279E+02  0.37789530856E+03  0.00000000000E+00 0. -1.
        -12    1    6    6    0    0  0.96558009565E+02  0.27388162867E+01 -0.59197906303E+02  0.11329317030E+03  0.00000000000E+00 0.  1.
</event>
<event>
12    1  0.1039610E+000  0.3159732E+03  0.7818608E-02  0.1077524E+00
         21   -1    0    0  503  502  0.00000000000E+00  0.00000000000E+00  0.11345078090E+03  0.11345078090E+03  0.00000000000E+00 0.  1.
         21   -1    0    0  501  503 -0.00000000000E+00 -0.00000000000E+00 -0.92279059890E+03  0.92279059890E+03  0.00000000000E+00 0.  1.
          6    2    1    2  501    0 -0.15980416875E+03  0.21156395220E+03 -0.51645294469E+03  0.60544419922E+03  0.17187889944E+03 0.  0.
         24    2    3    3    0    0 -0.24604281934E+02  0.49058115611E+02 -0.17016673575E+03  0.19970612506E+03  0.88959254916E+02 0.  0.
         -6    2    1    2    0  502  0.15980416875E+03 -0.21156395220E+03 -0.29288687332E+03  0.43079718058E+03  0.17177546976E+03 0.  0.
        -24    2    5    5    0    0  0.18563359829E+03 -0.20482944096E+03 -0.26019283102E+03  0.38832950494E+03  0.81759173161E+02 0.  0.
          5    1    3    3  501    0 -0.13519988681E+03  0.16250583659E+03 -0.34628620894E+03  0.40573807416E+03  0.47000000000E+01 0. -1.
        -13    1    4    4    0    0 -0.42856987518E+02 -0.86592235544E+01 -0.78498488120E+02  0.89853860066E+02  0.00000000000E+00 0.  1.
         14    1    4    4    0    0  0.18252705584E+02  0.57717339165E+02 -0.91668247627E+02  0.10985226499E+03  0.00000000000E+00 0. -1.
         -5    1    5    5    0  502 -0.25829429541E+02 -0.67345112417E+01 -0.32694042301E+02  0.42467675638E+02  0.47000000000E+01 0.  1.
         11    1    6    6    0    0  0.18671184051E+02 -0.19928126408E+02 -0.69262592867E+02  0.74451662887E+02  0.00000000000E+00 0. -1.
        -12    1    6    6    0    0  0.16696241424E+03 -0.18490131455E+03 -0.19093023815E+03  0.31387784205E+03  0.00000000000E+00 0.  1.
</event>
<event>
12    1  0.1039610E+000  0.3733752E+03  0.7818608E-02  0.1053460E+00
         21   -1    0    0  501  502  0.00000000000E+00  0.00000000000E+00  0.60817591724E+03  0.60817591724E+03  0.00000000000E+00 0. -1.
         21   -1    0    0  502  503 -0.00000000000E+00 -0.00000000000E+00 -0.47078087791E+03  0.47078087791E+03  0.00000000000E+00 0. -1.
         -6    2    1    2    0  503  0.20392676947E+02  0.33045250110E+03 -0.31797078310E+03  0.49042276082E+03  0.17261039561E+03 0.  0.
        -24    2    3    3    0    0 -0.55780193986E+01  0.17837939389E+03 -0.89747905945E+02  0.21490782718E+03  0.79248754542E+02 0.  0.
          6    2    1    2  501    0 -0.20392676947E+02 -0.33045250110E+03  0.45536582243E+03  0.58853403432E+03  0.17146300057E+03 0.  0.
         24    2    5    5    0    0 -0.21202437515E+02 -0.22826810911E+03  0.41050127601E+03  0.47683254282E+03  0.79385787742E+02 0.  0.
          5    1    5    5  501    0  0.80976056834E+00 -0.10218439198E+03  0.44864546417E+02  0.11170149150E+03  0.47000000000E+01 0. -1.
        -13    1    6    6    0    0  0.28966842620E+02 -0.65298013941E+02  0.10567553938E+03  0.12755480477E+03  0.00000000000E+00 0.  1.
         14    1    6    6    0    0 -0.50169280136E+02 -0.16297009517E+03  0.30482573663E+03  0.34927773806E+03  0.00000000000E+00 0. -1.
         -5    1    3    3    0  503  0.25970696346E+02  0.15207310721E+03 -0.22822287715E+03  0.27551493364E+03  0.47000000000E+01 0.  1.
         13    1    4    4    0    0 -0.17279081296E+02  0.43533838944E+02  0.85706852192E+01  0.47615317166E+02  0.00000000000E+00 0. -1.
        -14    1    4    4    0    0  0.11701061897E+02  0.13484555494E+03 -0.98318591165E+02  0.16729251001E+03  0.00000000000E+00 0.  1.
</event>
<event>
12    1  0.1039610E+000  0.1970826E+03  0.7818608E-02  0.1152415E+00
         21   -1    0    0  503  502  0.00000000000E+00  0.00000000000E+00  0.97988116324E+02  0.97988116324E+02  0.00000000000E+00 0. -1.
         21   -1    0    0  501  503 -0.00000000000E+00 -0.00000000000E+00 -0.45568554908E+03  0.45568554908E+03  0.00000000000E+00 0. -1.
          6    2    1    2  501    0  0.23391222497E+01  0.95350519425E+02 -0.77847561380E+02  0.21190040321E+03  0.17246548936E+03 0.  0.
         24    2    3    3    0    0  0.15079240313E+02  0.78241304291E+02  0.15843792102E+02  0.11569647622E+03  0.82374532931E+02 0.  0.
         -6    2    1    2    0  502 -0.23391222497E+01 -0.95350519425E+02 -0.27984987138E+03  0.34177326220E+03  0.17145209009E+03 0.  0.
        -24    2    5    5    0    0  0.18723311239E+02 -0.58786246439E+02 -0.28211459378E+03  0.29925513511E+03  0.78476790935E+02 0.  0.
          5    1    3    3  501    0 -0.12740118064E+02  0.17109215134E+02 -0.93691353482E+02  0.96203926989E+02  0.47000000000E+01 0. -1.
        -11    1    4    4    0    0 -0.42664677458E+01  0.30755100199E+02 -0.32695840782E+02  0.45089876244E+02  0.00000000000E+00 0.  1.
         12    1    4    4    0    0  0.19345708059E+02  0.47486204093E+02  0.48539632884E+02  0.70606599974E+02  0.00000000000E+00 0. -1.
         -5    1    5    5    0  502 -0.21062433489E+02 -0.36564272987E+02  0.22647223984E+01  0.42518127088E+02  0.47000000000E+01 0.  1.
         11    1    6    6    0    0 -0.25169168041E+02  0.15084704817E+01 -0.74599079476E+02  0.78745064364E+02  0.00000000000E+00 0. -1.
        -12    1    6    6    0    0  0.43892479280E+02 -0.60294716920E+02 -0.20751551430E+03  0.22051007075E+03  0.00000000000E+00 0.  1.
</event>
<event>
12    1  0.1039610E+000  0.3558726E+03  0.7818608E-02  0.1060294E+00
         21   -1    0    0  503  502  0.00000000000E+00  0.00000000000E+00  0.29017020136E+03  0.29017020136E+03  0.00000000000E+00 0.  1.
         21   -1    0    0  501  503 -0.00000000000E+00 -0.00000000000E+00 -0.49620055987E+03  0.49620055987E+03  0.00000000000E+00 0.  1.
          6    2    1    2  501    0  0.15488353800E+03 -0.26997543660E+03  0.34222460408E+02  0.35751430487E+03  0.17253884978E+03 0.  0.
         24    2    3    3    0    0  0.16325334990E+02 -0.10774046232E+03  0.50467159732E+02  0.14349434609E+03  0.78544060024E+02 0.  0.
         -6    2    1    2    0  502 -0.15488353800E+03  0.26997543660E+03 -0.24025281892E+03  0.42885645636E+03  0.17123316400E+03 0.  0.
        -24    2    5    5    0    0 -0.22675777152E+02  0.78561199546E+02 -0.37559345635E+02  0.12027091508E+03  0.79801852271E+02 0.  0.
          5    1    3    3  501    0  0.13855820301E+03 -0.16223497428E+03 -0.16244699324E+02  0.21401995878E+03  0.47000000000E+01 0. -1.
        -13    1    4    4    0    0  0.45813519330E+02 -0.55885237651E+02  0.14090416591E+02  0.73624575927E+02  0.00000000000E+00 0.  1.
         14    1    4    4    0    0 -0.29488184340E+02 -0.51855224668E+02  0.36376743141E+02  0.69869770162E+02  0.00000000000E+00 0. -1.
         -5    1    5    5    0  502 -0.13220776085E+03  0.19141423705E+03 -0.20269347328E+03  0.30858554128E+03  0.47000000000E+01 0.  1.
         13    1    6    6    0    0 -0.32886385789E+02  0.85940257479E+02 -0.48112725278E+02  0.10383677845E+03  0.00000000000E+00 0. -1.
        -14    1    6    6    0    0  0.10210608638E+02 -0.73790579333E+01  0.10553379643E+02  0.16434136626E+02  0.00000000000E+00 0.  1.
</event>
<event>
12    1  0.1039610E+000  0.1798957E+03  0.7818608E-02  0.1167917E+00
         21   -1    0    0  501  502  0.00000000000E+00  0.00000000000E+00  0.80434810153E+03  0.80434810153E+03  0.00000000000E+00 0.  1.
         21   -1    0    0  502  503 -0.00000000000E+00 -0.00000000000E+00 -0.41248167400E+02  0.41248167400E+02  0.00000000000E+00 0.  1.
         -6    2    1    2    0  503 -0.17445481345E+02 -0.50637294397E+02  0.44826246559E+03  0.48301314680E+03  0.17173811901E+03 0.  0.
        -24    2    3    3    0    0 -0.36881139301E+02 -0.49457368031E+02  0.45151051875E+03  0.46272086068E+03  0.80265787727E+02 0.  0.
          6    2    1    2  501    0  0.17445481345E+02  0.50637294397E+02  0.31483746855E+03  0.36258312214E+03  0.17168403669E+03 0.  0.
         24    2    5    5    0    0 -0.50897846720E+02  0.18993649475E+02  0.22342054918E+03  0.24404505272E+03  0.81791787113E+02 0.  0.
          5    1    5    5  501    0  0.68343328066E+02  0.31643644922E+02  0.91416919368E+02  0.11853806942E+03  0.47000000000E+01 0. -1.
        -13    1    6    6    0    0 -0.24701441235E+02  0.49252086259E+02  0.15823114469E+03  0.16755006520E+03  0.00000000000E+00 0.  1.
         14    1    6    6    0    0 -0.26196405486E+02 -0.30258436785E+02  0.65189404489E+02  0.76494987513E+02  0.00000000000E+00 0. -1.
         -5    1    3    3    0  503  0.19435657956E+02 -0.11799263655E+01 -0.32480531636E+01  0.20292286115E+02  0.47000000000E+01 0.  1.
         13    1    4    4    0    0 -0.55294946170E+02 -0.12978005876E+02  0.32021983168E+03  0.32521792741E+03  0.00000000000E+00 0. -1.
        -14    1    4    4    0    0  0.18413806869E+02 -0.36479362156E+02  0.13129068707E+03  0.13750293327E+03  0.00000000000E+00 0.  1.
</event>
<event>
12    1  0.1039610E+000  0.2770384E+03  0.7818608E-02  0.1097549E+00
         21   -1    0    0  503  502  0.00000000000E+00  0.00000000000E+00  0.31547995472E+03  0.31547995472E+03  0.00000000000E+00 0. -1.
         21   -1    0    0  501  503 -0.00000000000E+00 -0.00000000000E+00 -0.24763657381E+03  0.24763657381E+03  0.00000000000E+00 0. -1.
          6    2    1    2  501    0 -0.47172855224E+02 -0.21150690076E+03  0.76963387607E+02  0.28592806219E+03  0.16991482094E+03 0.  0.
         24    2    3    3    0    0 -0.54398670398E+01 -0.12978109622E+03  0.10995758460E+03  0.18829888383E+03  0.80579613748E+02 0.  0.
         -6    2    1    2    0  502  0.47172855224E+02  0.21150690076E+03 -0.91200066896E+01  0.27718846634E+03  0.17259728854E+03 0.  0.
        -24    2    5    5    0    0  0.11707246300E+02  0.95709808633E+02 -0.65074217585E+02  0.14369786863E+03  0.84362293524E+02 0.  0.
          5    1    3    3  501    0 -0.41732988184E+02 -0.81725804539E+02 -0.32994196995E+02  0.97629178352E+02  0.47000000000E+01 0. -1.
        -13    1    4    4    0    0 -0.33012571773E+02 -0.18525953809E+02  0.33192006901E+02  0.50346302562E+02  0.00000000000E+00 0.  1.
         14    1    4    4    0    0  0.27572704734E+02 -0.11125514241E+03  0.76765577701E+02  0.13795258127E+03  0.00000000000E+00 0. -1.
         -5    1    5    5    0  502  0.35465608924E+02  0.11579709213E+03  0.55954210896E+02  0.13349059772E+03  0.47000000000E+01 0.  1.
         13    1    6    6    0    0  0.14259436703E+02  0.99030587885E+01  0.17453414931E+02  0.24617550674E+02  0.00000000000E+00 0. -1.
        -14    1    6    6    0    0 -0.25521904031E+01  0.85806749844E+02 -0.82527632516E+02  0.11908031795E+03  0.00000000000E+00 0.  1.
</event>
<event>
12    1  0.1039610E+000  0.2205303E+03  0.7818608E-02  0.1133579E+00
         21   -1    0    0  503  502  0.00000000000E+00  0.00000000000E+00  0.64932532028E+02  0.64932532028E+02  0.00000000000E+00 0. -1.
         21   -1    0    0  501  503 -0.00000000000E+00 -0.00000000000E+00 -0.96596155977E+03  0.96596155977E+03  0.00000000000E+00 0. -1.
          6    2    1    2  501    0 -0.12933039729E+03 -0.51102754427E+02 -0.20567750380E+03  0.30155736948E+03  0.17116006644E+03 0.  0.
         24    2    3    3    0    0 -0.29418209989E+02 -0.42307392043E+02 -0.29978148437E+02  0.99190976406E+02  0.79276818279E+02 0.  0.
         -6    2    1    2    0  502  0.12933039729E+03  0.51102754427E+02 -0.69535152395E+03  0.72933672232E+03  0.17052996656E+03 0.  0.
        -24    2    5    5    0    0  0.88962130128E+02  0.55265826082E+02 -0.27207738431E+03  0.30409559608E+03  0.86483850359E+02 0.  0.
          5    1    3    3  501    0 -0.99912187306E+02 -0.87953623837E+01 -0.17569935536E+03  0.20236639307E+03  0.47000000000E+01 0. -1.
        -13    1    4    4    0    0 -0.34665683874E+02  0.26314386348E+00  0.14339828659E+02  0.37515457735E+02  0.00000000000E+00 0.  1.
         14    1    4    4    0    0  0.52474738848E+01 -0.42570535906E+02 -0.44317977096E+02  0.61675518671E+02  0.00000000000E+00 0. -1.
         -5    1    5    5    0  502  0.40368267167E+02 -0.41630716550E+01 -0.42327413964E+03  0.42524112624E+03  0.47000000000E+01 0.  1.
         11    1    6    6    0    0  0.86754158532E+01  0.41086292952E+02 -0.39532500061E+02  0.57672912792E+02  0.00000000000E+00 0. -1.
        -12    1    6    6    0    0  0.80286714275E+02  0.14179533129E+02 -0.23254488425E+03  0.24642268329E+03  0.00000000000E+00 0.  1.
</event>
<event>
12    1  0.1039610E+000  0.3651096E+03  0.7818608E-02  0.1056744E+00
         21   -1    0    0  503  502  0.00000000000E+00  0.00000000000E+00  0.96848287821E+03  0.96848287821E+03  0.00000000000E+00 0. -1.
         21   -1    0    0  501  503 -0.00000000000E+00 -0.00000000000E+00 -0.18469649806E+03  0.18469649806E+03  0.00000000000E+00 0. -1.
          6    2    1    2  501    0 -0.10945431969E+03  0.30264867933E+03  0.68557027623E+03  0.77673136183E+03  0.17241964392E+03 0.  0.
         24    2    3    3    0    0 -0.86926431545E+02  0.31427248222E+03  0.65933082583E+03  0.73994525990E+03  0.80488832597E+02 0.  0.
         -6    2    1    2    0  502  0.10945431969E+03 -0.30264867933E+03  0.98216103928E+02  0.37644801444E+03  0.16879050122E+03 0.  0.
        -24    2    5    5    0    0 -0.47063062780E+01 -0.83862384462E+02  0.37479702010E+02  0.12226089466E+03  0.80547808494E+02 0.  0.
          5    1    3    3  501    0 -0.22527888149E+02 -0.11623802897E+02  0.26239450392E+02  0.36786101929E+02  0.47000000000E+01 0. -1.
        -11    1    4    4    0    0 -0.83671649771E+02  0.15316932178E+03  0.35526630889E+03  0.39582311244E+03  0.00000000000E+00 0.  1.
         12    1    4    4    0    0 -0.32547817736E+01  0.16110316044E+03  0.30406451695E+03  0.34412214746E+03  0.00000000000E+00 0. -1.
         -5    1    5    5    0  502  0.11416062597E+03 -0.21878629487E+03  0.60736401918E+02  0.25418711978E+03  0.47000000000E+01 0.  1.
         11    1    6    6    0    0 -0.19917980872E+02 -0.82583187110E+02  0.35155980062E+01  0.85023927130E+02  0.00000000000E+00 0. -1.
        -12    1    6    6    0    0  0.15211674594E+02 -0.12791973518E+01  0.33964104004E+02  0.37236967527E+02  0.00000000000E+00 0.  1.
</event>
<event>
12    1  0.1039610E+000  0.1816980E+03  0.7818608E-02  0.1167217E+00
         21   -1    0    0  503  502  0.00000000000E+00  0.00000000000E+00  0.40573742478E+02  0.40573742478E+02  0.00000000000E+00 0. -1.
         21   -1    0    0  501  503 -0.00000000000E+00 -0.00000000000E+00 -0.82281472183E+03  0.82281472183E+03  0.00000000000E+00 0. -1.
          6    2    1    2  501    0  0.48520364561E+02 -0.17006215849E+02 -0.47585620400E+03  0.50936557050E+03  0.17427197242E+03 0.  0.
         24    2    3    3    0    0  0.36200946287E+02 -0.40975725768E+02 -0.47355083070E+03  0.48191178718E+03  0.70704050456E+02 0.  0.
         -6    2    1    2    0  502 -0.48520364561E+02  0.17006215849E+02 -0.30638477535E+03  0.35402289381E+03  0.16975612395E+03 0.  0.
        -24    2    5    5    0    0  0.11449236391E+02  0.59778205505E+02 -0.20924810780E+03  0.23202527776E+03  0.79664546920E+02 0.  0.
          5    1    3    3  501    0  0.12319418275E+02  0.23969509919E+02 -0.23053732966E+01  0.27453783317E+02  0.47000000000E+01 0. -1.
        -11    1    4    4    0    0 -0.21240061438E+02 -0.65790772766E+01 -0.10493712245E+03  0.10726706920E+03  0.00000000000E+00 0.  1.
         12    1    4    4    0    0  0.57441007725E+02 -0.34396648491E+02 -0.36861370825E+03  0.37464471798E+03  0.00000000000E+00 0. -1.
         -5    1    5    5    0  502 -0.59969600953E+02 -0.42771989656E+02 -0.97136667555E+02  0.12199761605E+03  0.47000000000E+01 0.  1.
         13    1    6    6    0    0 -0.81098041456E+01  0.67343364645E+02 -0.10033499739E+03  0.12111155761E+03  0.00000000000E+00 0. -1.
        -14    1    6    6    0    0  0.19559040537E+02 -0.75651591396E+01 -0.10891311041E+03  0.11091372016E+03  0.00000000000E+00 0.  1.
</event>
<event>
12    1  0.1039610E+000  0.2654534E+03  0.7818608E-02  0.1103977E+00
         21   -1    0    0  501  502  0.00000000000E+00  0.00000000000E+00  0.12438995901E+04  0.12438995901E+04  0.00000000000E+00 0.  1.
         21   -1    0    0  502  503 -0.00000000000E+00 -0.00000000000E+00 -0.11237697222E+03  0.11237697222E+03  0.00000000000E+00 0.  1.
         -6    2    1    2    0  503  0.10979313188E+02 -0.20125347572E+03  0.10439650415E+04  0.10771854626E+04  0.17274838920E+03 0.  0.
        -24    2    3    3    0    0  0.32617390194E+02 -0.58041601205E+02  0.63074124928E+03  0.63928839718E+03  0.80139937632E+02 0.  0.
          6    2    1    2  501    0 -0.10979313188E+02  0.20125347572E+03  0.87557576289E+02  0.27909109971E+03  0.17205233495E+03 0.  0.
         24    2    5    5    0    0  0.18553218305E+02  0.73086486856E+02  0.98755351681E+02  0.14700617390E+03  0.78564236200E+02 0.  0.
          5    1    5    5  501    0 -0.29532531493E+02  0.12816698887E+03 -0.11197775391E+02  0.13208492581E+03  0.47000000000E+01 0. -1.
        -13    1    6    6    0    0  0.14003504850E+02  0.20445909990E+02  0.90123884347E+02  0.93468967648E+02  0.00000000000E+00 0.  1.
         14    1    6    6    0    0  0.45497134548E+01  0.52640576866E+02  0.86314673336E+01  0.53537206255E+02  0.00000000000E+00 0. -1.
         -5    1    3    3    0  503 -0.21638077006E+02 -0.14321187452E+03  0.41322379226E+03  0.43789706538E+03  0.47000000000E+01 0.  1.
         13    1    4    4    0    0  0.42234062337E+02 -0.72876109630E+02  0.46124664651E+03  0.46887430330E+03  0.00000000000E+00 0. -1.
        -14    1    4    4    0    0 -0.96166721429E+01  0.14834508424E+02  0.16949460277E+03  0.17041409388E+03  0.00000000000E+00 0.  1.
</event>
<event>
12    1  0.1039610E+000  0.1902962E+03  0.7818608E-02  0.1158235E+00
         21   -1    0    0  501  502  0.00000000000E+00  0.00000000000E+00  0.14444607853E+03  0.14444607853E+03  0.00000000000E+00 0. -1.
         21   -1    0    0  502  503 -0.00000000000E+00 -0.00000000000E+00 -0.25162970995E+03  0.25162970995E+03  0.00000000000E+00 0. -1.
         -6    2    1    2    0  503  0.79328084188E+02  0.26125435083E+02 -0.67094750002E+02  0.20177798578E+03  0.17098879136E+03 0.  0.
        -24    2    3    3    0    0  0.59589433942E+02 -0.10681831553E+02 -0.10531296665E+03  0.14497031663E+03  0.79123761251E+02 0.  0.
          6    2    1    2  501    0 -0.79328084188E+02 -0.26125435083E+02 -0.40088881422E+02  0.19429780270E+03  0.17078944470E+03 0.  0.
         24    2    5    5    0    0 -0.13115256914E+02  0.26653958632E+02  0.21237392727E+02  0.89642154033E+02  0.81867242870E+02 0.  0.
          5    1    5    5  501    0 -0.66212827274E+02 -0.52779393714E+02 -0.61326274149E+02  0.10465564866E+03  0.47000000000E+01 0. -1.
        -11    1    6    6    0    0  0.11811932090E+02  0.17528780708E+02  0.47691763911E+02  0.52165929856E+02  0.00000000000E+00 0.  1.
         12    1    6    6    0    0 -0.24927189005E+02  0.91251779236E+01 -0.26454371184E+02  0.37476224177E+02  0.00000000000E+00 0. -1.
         -5    1    3    3    0  503  0.19738650246E+02  0.36807266635E+02  0.38218216652E+02  0.56807669155E+02  0.47000000000E+01 0.  1.
         13    1    4    4    0    0 -0.15001412949E+02  0.80396972375E+01 -0.34992651383E+01  0.17375959790E+02  0.00000000000E+00 0. -1.
        -14    1    4    4    0    0  0.74590846891E+02 -0.18721528790E+02 -0.10181370152E+03  0.12759435684E+03  0.00000000000E+00 0.  1.
</event>
<event>
12    1  0.1435356E+000  0.2029719E+03  0.7818608E-02  0.1148863E+00
         21   -1    0    0  501  502  0.00000000000E+00  0.00000000000E+00  0.53161828789E+03  0.53161828789E+03  0.00000000000E+00 0.  1.
         21   -1    0    0  502  503 -0.00000000000E+00 -0.00000000000E+00 -0.32413549281E+03  0.32413549281E+03  0.00000000000E+00 0. -1.
         -6    2    1    2    0  503  0.42287805981E+02 -0.84128242600E+02  0.47959284342E+03  0.52077526855E+03  0.17981035881E+03 0.  0.
        -24    2    3    3    0    0 -0.46111065335E+02 -0.52733411398E+02  0.29601282188E+03  0.31456248964E+03  0.80118201105E+02 0.  0.
          6    2    1    2  501    0 -0.42287805981E+02  0.84128242600E+02 -0.27211004834E+03  0.33497851216E+03  0.17117507256E+03 0.  0.
         24    2    5    5    0    0 -0.24594193930E+02  0.10237420173E+03 -0.27834759706E+03  0.30838949289E+03  0.80878569337E+02 0.  0.
          5    1    5    5  501    0 -0.17693612051E+02 -0.18245959129E+02  0.62375487253E+01  0.26589019276E+02  0.47000000000E+01 0. -1.
        -13    1    6    6    0    0  0.16166129793E+02 -0.30865550814E+01 -0.63617819493E+02  0.65712232741E+02  0.00000000000E+00 0.  1.
         14    1    6    6    0    0 -0.40760323723E+02  0.10546075681E+03 -0.21472977757E+03  0.24267726015E+03  0.00000000000E+00 0. -1.
         -5    1    3    3    0  503  0.88398871316E+02 -0.31394831202E+02  0.18358002154E+03  0.20621277890E+03  0.47000000000E+01 0.  1.
         13    1    4    4    0    0 -0.19640581006E+02 -0.44795498856E+02  0.62227710197E+02  0.79149712927E+02  0.00000000000E+00 0. -1.
        -14    1    4    4    0    0 -0.26470484329E+02 -0.79379125418E+01  0.23378511168E+03  0.23541277671E+03  0.00000000000E+00 0.  1.
</event>
<event>
12    1  0.1039610E+000  0.1922917E+03  0.7818608E-02  0.1156757E+00
         21   -1    0    0  501  502  0.00000000000E+00  0.00000000000E+00  0.67235644450E+02  0.67235644450E+02  0.00000000000E+00 0.  1.
         21   -1    0    0  502  503 -0.00000000000E+00 -0.00000000000E+00 -0.61484410853E+03  0.61484410853E+03  0.00000000000E+00 0.  1.
         -6    2    1    2    0  503  0.82678393950E+02  0.20017126661E+02 -0.15829662688E+03  0.24786804678E+03  0.17071714720E+03 0.  0.
        -24    2    3    3    0    0  0.62241818081E+02 -0.51256072186E+02 -0.78856219693E+02  0.13910044682E+03  0.81421140173E+02 0.  0.
          6    2    1    2  501    0 -0.82678393950E+02 -0.20017126661E+02 -0.38931183719E+03  0.43421170620E+03  0.17245201371E+03 0.  0.
         24    2    5    5    0    0  0.37104425737E+01 -0.56871738044E+02 -0.19202033477E+03  0.21565434442E+03  0.79917615902E+02 0.  0.
          5    1    5    5  501    0 -0.86388836524E+02  0.36854611383E+02 -0.19729150243E+03  0.21855736177E+03  0.47000000000E+01 0. -1.
        -11    1    6    6    0    0 -0.32239512453E+02 -0.58272216984E+01 -0.42802413627E+02  0.53901663131E+02  0.00000000000E+00 0.  1.
         12    1    6    6    0    0  0.35949955027E+02 -0.51044516345E+02 -0.14921792114E+03  0.16175268129E+03  0.00000000000E+00 0. -1.
         -5    1    3    3    0  503  0.20436575869E+02  0.71273198847E+02 -0.79440407190E+02  0.10876759996E+03  0.47000000000E+01 0.  1.
         13    1    4    4    0    0  0.54496675291E+02 -0.49946344919E+02 -0.15845020520E+02  0.75601518925E+02  0.00000000000E+00 0. -1.
        -14    1    4    4    0    0  0.77451427903E+01 -0.13097272663E+01 -0.63011199174E+02  0.63498927894E+02  0.00000000000E+00 0.  1.
</event>
<event>
12    1  0.1039610E+000  0.2105962E+03  0.7818608E-02  0.1142179E+00
         21   -1    0    0  501  502  0.00000000000E+00  0.00000000000E+00  0.11143757264E+03  0.11143757264E+03  0.00000000000E+00 0.  1.
         21   -1    0    0  502  503 -0.00000000000E+00 -0.00000000000E+00 -0.39309613593E+03  0.39309613593E+03  0.00000000000E+00 0.  1.
         -6    2    1    2    0  503  0.11111593580E+03 -0.86784545745E+01 -0.10977050626E+03  0.23269502389E+03  0.17226532830E+03 0.  0.
        -24    2    3    3    0    0  0.59694853037E+02  0.58910010113E+02 -0.49042219041E+02  0.12818500915E+03  0.83620527098E+02 0.  0.
          6    2    1    2  501    0 -0.11111593580E+03  0.86784545745E+01 -0.17188805703E+03  0.27183868468E+03  0.17868603631E+03 0.  0.
         24    2    5    5    0    0 -0.15191466143E+02  0.23088101151E+02 -0.15108664894E+03  0.17252136306E+03  0.78565922422E+02 0.  0.
          5    1    5    5  501    0 -0.95924469659E+02 -0.14409646577E+02 -0.20801408091E+02  0.99317321614E+02  0.47000000000E+01 0. -1.
        -11    1    6    6    0    0 -0.25533817460E+02  0.44105461584E+02 -0.61242263963E+02  0.79673599585E+02  0.00000000000E+00 0.  1.
         12    1    6    6    0    0  0.10342351316E+02 -0.21017360433E+02 -0.89844384980E+02  0.92847763477E+02  0.00000000000E+00 0. -1.
         -5    1    3    3    0  503  0.51421082766E+02 -0.67588464687E+02 -0.60728287216E+02  0.10451001473E+03  0.47000000000E+01 0.  1.
         13    1    4    4    0    0  0.66016450040E+02  0.73445078189E+02 -0.52674507829E+02  0.11192388021E+03  0.00000000000E+00 0. -1.
        -14    1    4    4    0    0 -0.63215970028E+01 -0.14535068076E+02  0.36322887886E+01  0.16261128942E+02  0.00000000000E+00 0.  1.
</event>
<event>
12    1  0.1039610E+000  0.1941221E+03  0.7818608E-02  0.1154886E+00
         21   -1    0    0  503  502  0.00000000000E+00  0.00000000000E+00  0.10801307594E+04  0.10801307594E+04  0.00000000000E+00 0.  1.
         21   -1    0    0  501  503 -0.00000000000E+00 -0.00000000000E+00 -0.37602040491E+02  0.37602040491E+02  0.00000000000E+00 0.  1.
          6    2    1    2  501    0 -0.18508994694E+02 -0.87053183285E+02  0.67293516045E+03  0.70026088205E+03  0.17205444822E+03 0.  0.
         24    2    3    3    0    0  0.27614658068E+02  0.37349340600E+01  0.36606195134E+03  0.37689865472E+03  0.85291996320E+02 0.  0.
         -6    2    1    2    0  502  0.18508994694E+02  0.87053183285E+02  0.36959355849E+03  0.41747191787E+03  0.17251830086E+03 0.  0.
        -24    2    5    5    0    0 -0.33595838475E+02  0.21872913487E+02  0.96396589980E+02  0.13177617969E+03  0.80408670352E+02 0.  0.
          5    1    3    3  501    0 -0.46123652762E+02 -0.90788117345E+02  0.30687320911E+03  0.32336222733E+03  0.47000000000E+01 0. -1.
        -11    1    4    4    0    0  0.57574628284E+02 -0.34302839716E+01  0.26695609122E+03  0.27311565190E+03  0.00000000000E+00 0.  1.
         12    1    4    4    0    0 -0.29959970217E+02  0.71652180315E+01  0.99105860120E+02  0.10378300282E+03  0.00000000000E+00 0. -1.
         -5    1    5    5    0  502  0.52104833170E+02  0.65180269798E+02  0.27319696851E+03  0.28569573818E+03  0.47000000000E+01 0.  1.
         13    1    6    6    0    0 -0.19512872388E+02  0.42799890483E+02  0.19626772920E+02  0.50968549415E+02  0.00000000000E+00 0. -1.
        -14    1    6    6    0    0 -0.14082966087E+02 -0.20926976996E+02  0.76769817060E+02  0.80807630279E+02  0.00000000000E+00 0.  1.
</event>
<event>
12    1  0.1039610E+000  0.2310390E+03  0.7818608E-02  0.1126716E+00
         21   -1    0    0  501  502  0.00000000000E+00  0.00000000000E+00  0.18830788165E+03  0.18830788165E+03  0.00000000000E+00 0.  1.
         21   -1    0    0  502  503 -0.00000000000E+00 -0.00000000000E+00 -0.39391758501E+03  0.39391758501E+03  0.00000000000E+00 0.  1.
         -6    2    1    2    0  503  0.13565388978E+03 -0.57695049675E+02  0.55895811691E+02  0.23327824945E+03  0.17194098794E+03 0.  0.
        -24    2    3    3    0    0  0.16735722580E+03 -0.43108450559E+02  0.57072813233E+02  0.19804551294E+03  0.78089305601E+02 0.  0.
          6    2    1    2  501    0 -0.13565388978E+03  0.57695049675E+02 -0.26150551506E+03  0.34894721721E+03  0.17789977354E+03 0.  0.
         24    2    5    5    0    0  0.76652188440E+01  0.20494651592E+02 -0.73391762973E+02  0.10950388313E+03  0.78268532783E+02 0.  0.
          5    1    5    5  501    0 -0.14331910862E+03  0.37200398083E+02 -0.18811375208E+03  0.23944333408E+03  0.47000000000E+01 0. -1.
        -13    1    6    6    0    0 -0.31416427185E+02 -0.31740976270E+01 -0.13922746772E+02  0.34509559117E+02  0.00000000000E+00 0.  1.
         14    1    6    6    0    0  0.39081646029E+02  0.23668749219E+02 -0.59469016201E+02  0.74994324010E+02  0.00000000000E+00 0. -1.
         -5    1    3    3    0  503 -0.31703336026E+02 -0.14586599115E+02 -0.11770015413E+01  0.35232736504E+02  0.47000000000E+01 0.  1.
         11    1    4    4    0    0  0.10647940250E+02 -0.26306815131E+02  0.23628439051E+02  0.36928718986E+02  0.00000000000E+00 0. -1.
        -12    1    4    4    0    0  0.15670928555E+03 -0.16801635428E+02  0.33444374182E+02  0.16111679396E+03  0.00000000000E+00 0.  1.
</event>
<event>
12    1  0.1039610E+000  0.2830007E+03  0.7818608E-02  0.1094074E+00
         21   -1    0    0  501  502  0.00000000000E+00  0.00000000000E+00  0.17512515611E+03  0.17512515611E+03  0.00000000000E+00 0. -1.
         21   -1    0    0  502  503 -0.00000000000E+00 -0.00000000000E+00 -0.61728251193E+03  0.61728251193E+03  0.00000000000E+00 0.  1.
         -6    2    1    2    0  503  0.22601440805E+03 -0.18186216738E+02 -0.19271329361E+02  0.28356391252E+03  0.16918586591E+03 0.  0.
        -24    2    3    3    0    0  0.20011468606E+03  0.15012542625E+02 -0.66952764779E+02  0.21977862813E+03  0.59571038731E+02 0.  0.
          6    2    1    2  501    0 -0.22601440805E+03  0.18186216738E+02 -0.42288602646E+03  0.50884375552E+03  0.16934026406E+03 0.  0.
         24    2    5    5    0    0 -0.14152566343E+03  0.58854562292E+02 -0.35118284895E+03  0.39070951847E+03  0.76362042366E+02 0.  0.
          5    1    5    5  501    0 -0.84488744624E+02 -0.40668345554E+02 -0.71703177505E+02  0.11813423705E+03  0.47000000000E+01 0. -1.
        -11    1    6    6    0    0 -0.54367582511E+02  0.29812710080E+02 -0.23249007848E+03  0.24061643398E+03  0.00000000000E+00 0.  1.
         12    1    6    6    0    0 -0.87158080916E+02  0.29041852213E+02 -0.11869277047E+03  0.15009308449E+03  0.00000000000E+00 0. -1.
         -5    1    3    3    0  503  0.25899721989E+02 -0.33198759363E+02  0.47681435418E+02  0.63785284399E+02  0.47000000000E+01 0.  1.
         13    1    4    4    0    0  0.15478035765E+03 -0.76525336800E+01 -0.32076889007E+02  0.15825437497E+03  0.00000000000E+00 0. -1.
        -14    1    4    4    0    0  0.45334328408E+02  0.22665076305E+02 -0.34875875772E+02  0.61524253160E+02  0.00000000000E+00 0.  1.
</event>
<event>
12    1  0.1039610E+000  0.2297568E+03  0.7818608E-02  0.1127212E+00
         21   -1    0    0  501  502  0.00000000000E+00  0.00000000000E+00  0.24707356094E+03  0.24707356094E+03  0.00000000000E+00 0.  1.
         21   -1    0    0  502  503 -0.00000000000E+00 -0.00000000000E+00 -0.35512810317E+03  0.35512810317E+03  0.00000000000E+00 0.  1.
         -6    2    1    2    0  503  0.14729345619E+03  0.10172289912E+02  0.13758144954E+03  0.26586075295E+03  0.17307353056E+03 0.  0.
        -24    2    3    3    0    0  0.11462048720E+03 -0.34920795550E+02  0.15041113020E+03  0.20852315652E+03  0.80629279223E+02 0.  0.
          6    2    1    2  501    0 -0.14729345619E+03 -0.10172289912E+02 -0.24563599178E+03  0.33634091117E+03  0.17603786625E+03 0.  0.
         24    2    5    5    0    0 -0.48697656265E+02  0.46310377499E+02 -0.70790660155E+02  0.12776381878E+03  0.82438844205E+02 0.  0.
          5    1    5    5  501    0 -0.98595799920E+02 -0.56482667411E+02 -0.17484533162E+03  0.20857709239E+03  0.47000000000E+01 0. -1.
        -13    1    6    6    0    0 -0.26467132299E+02  0.18608679560E+02 -0.83885056976E+02  0.89908257858E+02  0.00000000000E+00 0.  1.
         14    1    6    6    0    0 -0.22230523966E+02  0.27701697939E+02  0.13094396821E+02  0.37855560921E+02  0.00000000000E+00 0. -1.
         -5    1    3    3    0  503  0.32672968981E+02  0.45093085461E+02 -0.12829680654E+02  0.57337596428E+02  0.47000000000E+01 0.  1.
         13    1    4    4    0    0  0.37366683743E+02  0.20326636989E+01  0.10525605005E+03  0.11171050464E+03  0.00000000000E+00 0. -1.
        -14    1    4    4    0    0  0.77253803461E+02 -0.36953459249E+02  0.45155080148E+02  0.96812651874E+02  0.00000000000E+00 0.  1.
</event>
<event>
12    1  0.1039610E+000  0.1973494E+03  0.7818608E-02  0.1152302E+00
         21   -1    0    0  501  502  0.00000000000E+00  0.00000000000E+00  0.75625854050E+02  0.75625854050E+02  0.00000000000E+00 0. -1.
         21   -1    0    0  502  503 -0.00000000000E+00 -0.00000000000E+00 -0.51208539472E+03  0.51208539472E+03  0.00000000000E+00 0. -1.
         -6    2    1    2    0  503 -0.79679348149E+02 -0.54010800501E+02 -0.20733442183E+03  0.28624173220E+03  0.17228117044E+03 0.  0.
        -24    2    3    3    0    0 -0.11339743760E+03 -0.47330772415E+02 -0.10912413664E+03  0.18208376348E+03  0.78404329312E+02 0.  0.
          6    2    1    2  501    0  0.79679348149E+02  0.54010800501E+02 -0.22912511884E+03  0.30146951656E+03  0.17064461387E+03 0.  0.
         24    2    5    5    0    0  0.95995968090E+02 -0.13733511444E+02 -0.13599335710E+03  0.18506015726E+03  0.79682077071E+02 0.  0.
          5    1    5    5  501    0 -0.16316619941E+02  0.67744311945E+02 -0.93131761742E+02  0.11640935930E+03  0.47000000000E+01 0. -1.
        -13    1    6    6    0    0  0.10100498165E+02  0.25669724533E+02 -0.14573457655E+02  0.31198405229E+02  0.00000000000E+00 0.  1.
         14    1    6    6    0    0  0.85895469925E+02 -0.39403235977E+02 -0.12141989944E+03  0.15386175204E+03  0.00000000000E+00 0. -1.
         -5    1    3    3    0  503  0.33718089450E+02 -0.66800280863E+01 -0.98210285190E+02  0.10415796872E+03  0.47000000000E+01 0.  1.
         11    1    4    4    0    0  0.10420984868E+02  0.36687786259E+01 -0.13961150091E+02  0.17803667434E+02  0.00000000000E+00 0. -1.
        -12    1    4    4    0    0 -0.12381842247E+03 -0.50999551040E+02 -0.95162986548E+02  0.16428009605E+03  0.00000000000E+00 0.  1.
</event>
<event>
12    1  0.1039610E+000  0.5447807E+03  0.7818608E-02  0.1002713E+00
         21   -1    0    0  501  502  0.00000000000E+00  0.00000000000E+00  0.49564525160E+03  0.49564525160E+03  0.00000000000E+00 0. -1.
         21   -1    0    0  502  503 -0.00000000000E+00 -0.00000000000E+00 -0.66501824019E+03  0.66501824019E+03  0.00000000000E+00 0.  1.
         -6    2    1    2    0  503 -0.33263671515E+03 -0.39577548502E+03 -0.26794314026E+03  0.60710755890E+03  0.17175751179E+03 0.  0.
        -24    2    3    3    0    0 -0.16022938989E+03 -0.14203180445E+03 -0.16209294106E+03  0.28255171486E+03  0.87834271040E+02 0.  0.
          6    2    1    2  501    0  0.33263671515E+03  0.39577548502E+03  0.98570151669E+02  0.55355593289E+03  0.17153039739E+03 0.  0.
         24    2    5    5    0    0  0.33333505970E+03  0.40723263063E+03  0.95248398213E+02  0.54071545327E+03  0.79688559835E+02 0.  0.
          5    1    5    5  501    0 -0.69834454892E+00 -0.11457145615E+02  0.33217534560E+01  0.12840479616E+02  0.47000000000E+01 0. -1.
        -13    1    6    6    0    0  0.17781020420E+03  0.15618597100E+03  0.51052161614E+02  0.24210916847E+03  0.00000000000E+00 0.  1.
         14    1    6    6    0    0  0.15552485551E+03  0.25104665963E+03  0.44196236600E+02  0.29860628480E+03  0.00000000000E+00 0. -1.
         -5    1    3    3    0  503 -0.17240732526E+03 -0.25374368056E+03 -0.10585019920E+03  0.32455584404E+03  0.47000000000E+01 0.  1.
         11    1    4    4    0    0 -0.30066056251E+02  0.96211781278E+01 -0.23127987481E+02  0.39133599528E+02  0.00000000000E+00 0. -1.
        -12    1    4    4    0    0 -0.13016333364E+03 -0.15165298258E+03 -0.13896495358E+03  0.24341811533E+03  0.00000000000E+00 0.  1.
</event>
<event>
12    1  0.1039610E+000  0.3096387E+03  0.7818608E-02  0.1080575E+00
         21   -1    0    0  501  502  0.00000000000E+00  0.00000000000E+00  0.31637115581E+03  0.31637115581E+03  0.00000000000E+00 0. -1.
         21   -1    0    0  502  503 -0.00000000000E+00 -0.00000000000E+00 -0.38527726030E+03  0.38527726030E+03  0.00000000000E+00 0. -1.
         -6    2    1    2    0  503 -0.17448181510E+03 -0.18864162005E+03 -0.19695629488E+03  0.36657677753E+03  0.17192203791E+03 0.  0.
        -24    2    3    3    0    0 -0.17266878272E+03 -0.11568314595E+03 -0.97106712961E+02  0.24280983914E+03  0.79560074800E+02 0.  0.
          6    2    1    2  501    0  0.17448181510E+03  0.18864162005E+03  0.12805019039E+03  0.33507163857E+03  0.17276164823E+03 0.  0.
         24    2    5    5    0    0  0.11816480876E+03  0.51418167809E+02  0.10748437772E+03  0.18524866404E+03  0.78469268269E+02 0.  0.
          5    1    5    5  501    0  0.56317006341E+02  0.13722345224E+03  0.20565812670E+02  0.14982297453E+03  0.47000000000E+01 0. -1.
        -11    1    6    6    0    0  0.76216518213E+02  0.37699849878E+02  0.20134434333E+02  0.87382102145E+02  0.00000000000E+00 0.  1.
         12    1    6    6    0    0  0.41948290549E+02  0.13718317931E+02  0.87349943385E+02  0.97866561891E+02  0.00000000000E+00 0. -1.
         -5    1    3    3    0  503 -0.18130323877E+01 -0.72958474098E+02 -0.99849581918E+02  0.12376693839E+03  0.47000000000E+01 0.  1.
         13    1    4    4    0    0 -0.16883047673E+02 -0.11313459270E+01  0.12037045606E+02  0.20765541391E+02  0.00000000000E+00 0. -1.
        -14    1    4    4    0    0 -0.15578573504E+03 -0.11455180002E+03 -0.10914375857E+03  0.22204429775E+03  0.00000000000E+00 0.  1.
</event>
<event>
12    1  0.1039610E+000  0.2452322E+03  0.7818608E-02  0.1116412E+00
         21   -1    0    0  503  502  0.00000000000E+00  0.00000000000E+00  0.50463452270E+03  0.50463452270E+03  0.00000000000E+00 0. -1.
         21   -1    0    0  501  503 -0.00000000000E+00 -0.00000000000E+00 -0.14779039216E+03  0.14779039216E+03  0.00000000000E+00 0. -1.
          6    2    1    2  501    0  0.16788862123E+03  0.47501257164E+02  0.34346874018E+02  0.24727886627E+03  0.17182599156E+03 0.  0.
         24    2    3    3    0    0  0.26432998225E+02 -0.12833919119E+02 -0.12791498646E+02  0.86362294858E+02  0.80196076341E+02 0.  0.
         -6    2    1    2    0  502 -0.16788862123E+03 -0.47501257164E+02  0.32249725652E+03  0.40514604859E+03  0.17232493044E+03 0.  0.
        -24    2    5    5    0    0 -0.10780882012E+03 -0.67646930497E+01  0.30092127642E+03  0.32927337185E+03  0.78732687243E+02 0.  0.
          5    1    3    3  501    0  0.14145562300E+03  0.60335176283E+02  0.47138372663E+02  0.16091657141E+03  0.47000000000E+01 0. -1.
        -11    1    4    4    0    0  0.34624714949E+02  0.22135482065E+02  0.11892458040E+02  0.42781783621E+02  0.00000000000E+00 0.  1.
         12    1    4    4    0    0 -0.81917167242E+01 -0.34969401184E+02 -0.24683956686E+02  0.43580511237E+02  0.00000000000E+00 0. -1.
         -5    1    5    5    0  502 -0.60079801111E+02 -0.40736564114E+02  0.21575980100E+02  0.75872676733E+02  0.47000000000E+01 0.  1.
         13    1    6    6    0    0  0.10403487191E+02  0.55414295064E+01  0.11809509500E+02  0.16685457780E+02  0.00000000000E+00 0. -1.
        -14    1    6    6    0    0 -0.11821230731E+03 -0.12306122556E+02  0.28911176692E+03  0.31258791407E+03  0.00000000000E+00 0.  1.
</event>
<event>
12    1  0.1039610E+000  0.3845924E+03  0.7818608E-02  0.1049303E+00
         21   -1    0    0  501  502  0.00000000000E+00  0.00000000000E+00  0.28353298361E+03  0.28353298361E+03  0.00000000000E+00 0.  1.
         21   -1    0    0  502  503 -0.00000000000E+00 -0.00000000000E+00 -0.57678859512E+03  0.57678859512E+03  0.00000000000E+00 0.  1.
         -6    2    1    2    0  503  0.33899453468E+03  0.56881490177E+02 -0.12593890397E+02  0.38420993011E+03  0.17118956116E+03 0.  0.
        -24    2    3    3    0    0  0.25260168217E+03  0.13620237667E+02 -0.66421123837E+02  0.27350888226E+03  0.80013888019E+02 0.  0.
          6    2    1    2  501    0 -0.33899453468E+03 -0.56881490177E+02 -0.28066172112E+03  0.47611164862E+03  0.17250652679E+03 0.  0.
         24    2    5    5    0    0 -0.80551363114E+02 -0.53640456212E+02 -0.98495430245E+02  0.15986803246E+03  0.80564367945E+02 0.  0.
          5    1    5    5  501    0 -0.25844317157E+03 -0.32410339652E+01 -0.18216629088E+03  0.31624361616E+03  0.47000000000E+01 0. -1.
        -11    1    6    6    0    0 -0.76134167225E+00 -0.20232504808E+01 -0.55536838948E+02  0.55578895850E+02  0.00000000000E+00 0.  1.
         12    1    6    6    0    0 -0.79790021441E+02 -0.51617205731E+02 -0.42958591297E+02  0.10428913661E+03  0.00000000000E+00 0. -1.
         -5    1    3    3    0  503  0.86392852511E+02  0.43261252510E+02  0.53827233440E+02  0.11070104784E+03  0.47000000000E+01 0.  1.
         11    1    4    4    0    0  0.22957545133E+02  0.61158152171E+01 -0.33981936275E+02  0.41463526952E+02  0.00000000000E+00 0. -1.
        -12    1    4    4    0    0  0.22964413704E+03  0.75044224501E+01 -0.32439187562E+02  0.23204535531E+03  0.00000000000E+00 0.  1.
</event>
<event>
12    1  0.1039610E+000  0.2089639E+03  0.7818608E-02  0.1144230E+00
         21   -1    0    0  503  502  0.00000000000E+00  0.00000000000E+00  0.19240045334E+04  0.19240045334E+04  0.00000000000E+00 0.  1.
         21   -1    0    0  501  503 -0.00000000000E+00 -0.00000000000E+00 -0.23473229831E+02  0.23473229831E+02  0.00000000000E+00 0.  1.
          6    2    1    2  501    0 -0.58792117343E+02 -0.82521644943E+02  0.11964591678E+04  0.12130504545E+04  0.17236742723E+03 0.  0.
         24    2    3    3    0    0 -0.76286304392E+02 -0.10375780002E+03  0.11391874665E+04  0.11493389278E+04  0.81526718408E+02 0.  0.
         -6    2    1    2    0  502  0.58792117343E+02  0.82521644943E+02  0.70407213580E+03  0.73442730878E+03  0.18275547740E+03 0.  0.
        -24    2    5    5    0    0  0.74918790922E+02  0.12059419205E+03  0.61270109267E+03  0.63402638265E+03  0.80193768762E+02 0.  0.
          5    1    3    3  501    0  0.17494187049E+02  0.21236155074E+02  0.57271701248E+02  0.63711526639E+02  0.47000000000E+01 0. -1.
        -11    1    4    4    0    0  0.56631151355E+01  0.35964743733E+01  0.96329074334E+01  0.11738756603E+02  0.00000000000E+00 0.  1.
         12    1    4    4    0    0 -0.81949419528E+02 -0.10735427439E+03  0.11295545591E+04  0.11376001712E+04  0.00000000000E+00 0. -1.
         -5    1    5    5    0  502 -0.16126673578E+02 -0.38072547108E+02  0.91371043130E+02  0.10040092612E+03  0.47000000000E+01 0.  1.
         13    1    6    6    0    0  0.42085386698E+02  0.59042023788E+02  0.46571526152E+03  0.47132562540E+03  0.00000000000E+00 0. -1.
        -14    1    6    6    0    0  0.32833404224E+02  0.61552168263E+02  0.14698583115E+03  0.16270075725E+03  0.00000000000E+00 0.  1.
</event>
<event>
12    1  0.1039610E+000  0.2279287E+03  0.7818608E-02  0.1128264E+00
         21   -1    0    0  503  502  0.00000000000E+00  0.00000000000E+00  0.33907731300E+02  0.33907731300E+02  0.00000000000E+00 0. -1.
         21   -1    0    0  501  503 -0.00000000000E+00 -0.00000000000E+00 -0.15301864454E+04  0.15301864454E+04  0.00000000000E+00 0. -1.
          6    2    1    2  501    0  0.12751886646E+03  0.75514777810E+02 -0.70671218220E+03  0.74228714496E+03  0.17200161084E+03 0.  0.
         24    2    3    3    0    0  0.13719225740E+03  0.48223802898E+02 -0.68818919704E+03  0.70759474257E+03  0.77062949243E+02 0.  0.
         -6    2    1    2    0  502 -0.12751886646E+03 -0.75514777810E+02 -0.78956653189E+03  0.82180703173E+03  0.17317028080E+03 0.  0.
        -24    2    5    5    0    0 -0.36191298696E+01 -0.12869260027E+02 -0.18670998672E+03  0.20315227367E+03  0.78939921453E+02 0.  0.
          5    1    3    3  501    0 -0.96733909391E+01  0.27290974913E+02 -0.18522985168E+02  0.34692402388E+02  0.47000000000E+01 0. -1.
        -11    1    4    4    0    0  0.83312849862E+02  0.67242692379E+02 -0.47104120049E+03  0.48305530034E+03  0.00000000000E+00 0.  1.
         12    1    4    4    0    0  0.53879407538E+02 -0.19018889482E+02 -0.21714799655E+03  0.22453944223E+03  0.00000000000E+00 0. -1.
         -5    1    5    5    0  502 -0.12389973659E+03 -0.62645517783E+02 -0.60285654517E+03  0.61865475807E+03  0.47000000000E+01 0.  1.
         13    1    6    6    0    0  0.16666998542E+02 -0.30374086028E+02 -0.16519445395E+03  0.16878857058E+03  0.00000000000E+00 0. -1.
        -14    1    6    6    0    0 -0.20286128412E+02  0.17504826002E+02 -0.21515532771E+02  0.34363703085E+02  0.00000000000E+00 0.  1.
</event>
<event>
12    1  0.1039610E+000  0.1771575E+03  0.7818608E-02  0.1170648E+00
         21   -1    0    0  501  502  0.00000000000E+00  0.00000000000E+00  0.37543369274E+02  0.37543369274E+02  0.00000000000E+00 0. -1.
         21   -1    0    0  502  503 -0.00000000000E+00 -0.00000000000E+00 -0.85999945935E+03  0.85999945935E+03  0.00000000000E+00 0. -1.
         -6    2    1    2    0  503 -0.18720718427E+02 -0.34614449952E+02 -0.33397976899E+03  0.37793345844E+03  0.17246039393E+03 0.  0.
        -24    2    3    3    0    0  0.12866173360E+02  0.37252231308E+02 -0.23344563970E+03  0.25029430787E+03  0.81222575074E+02 0.  0.
          6    2    1    2  501    0  0.18720718427E+02  0.34614449952E+02 -0.48847632109E+03  0.51960937018E+03  0.17273145594E+03 0.  0.
         24    2    5    5    0    0  0.31955374586E+02  0.66014464868E+02 -0.46656228767E+03  0.47882417776E+03  0.78823660092E+02 0.  0.
          5    1    5    5  501    0 -0.13234656159E+02 -0.31400014916E+02 -0.21914033417E+02  0.40785192423E+02  0.47000000000E+01 0. -1.
        -11    1    6    6    0    0 -0.11458000682E+02  0.59670460152E+02 -0.32455726230E+03  0.33019579965E+03  0.00000000000E+00 0.  1.
         12    1    6    6    0    0  0.43413375269E+02  0.63440047160E+01 -0.14200502537E+03  0.14862837811E+03  0.00000000000E+00 0. -1.
         -5    1    3    3    0  503 -0.31586891786E+02 -0.71866681260E+02 -0.10053412928E+03  0.12763915057E+03  0.47000000000E+01 0.  1.
         13    1    4    4    0    0 -0.37009873466E+01 -0.60563600603E+01  0.41462022610E+01  0.82199633642E+01  0.00000000000E+00 0. -1.
        -14    1    4    4    0    0  0.16567160706E+02  0.43308591368E+02 -0.23759184196E+03  0.24207434451E+03  0.00000000000E+00 0.  1.
</event>
<event>
12    1  0.1039610E+000  0.3446814E+03  0.7818608E-02  0.1064945E+00
         21   -1    0    0  503  502  0.00000000000E+00  0.00000000000E+00  0.80311541690E+03  0.80311541690E+03  0.00000000000E+00 0. -1.
         21   -1    0    0  501  503 -0.00000000000E+00 -0.00000000000E+00 -0.17018588593E+03  0.17018588593E+03  0.00000000000E+00 0. -1.
          6    2    1    2  501    0 -0.63716917188E+02 -0.29059445484E+03  0.13798180401E+03  0.37016073321E+03  0.17168286885E+03 0.  0.
         24    2    3    3    0    0  0.21858831101E+02 -0.80869419264E+02  0.33996852774E+02  0.12087623846E+03  0.80234702940E+02 0.  0.
         -6    2    1    2    0  502  0.63716917188E+02  0.29059445484E+03  0.49494772696E+03  0.60314056961E+03  0.17406984683E+03 0.  0.
        -24    2    5    5    0    0 -0.18036351920E+02  0.19095081688E+03  0.24223316774E+03  0.31941677780E+03  0.81010159461E+02 0.  0.
          5    1    3    3  501    0 -0.85575748289E+02 -0.20972503557E+03  0.10398495124E+03  0.24928449475E+03  0.47000000000E+01 0. -1.
        -11    1    4    4    0    0  0.30636497044E+02 -0.64458420913E+02 -0.10973120654E+02  0.72207287406E+02  0.00000000000E+00 0.  1.
         12    1    4    4    0    0 -0.87776659432E+01 -0.16410998351E+02  0.44969973427E+02  0.48668951051E+02  0.00000000000E+00 0. -1.
         -5    1    5    5    0  502  0.81753269108E+02  0.99643637960E+02  0.25271455922E+03  0.28372379181E+03  0.47000000000E+01 0.  1.
         13    1    6    6    0    0 -0.31679997100E+01  0.14211909067E+03  0.11676260353E+03  0.18396026130E+03  0.00000000000E+00 0. -1.
        -14    1    6    6    0    0 -0.14868352210E+02  0.48831726209E+02  0.12547056420E+03  0.13545651651E+03  0.00000000000E+00 0.  1.
</event>
<event>
12    1  0.1039610E+000  0.2675752E+03  0.7818608E-02  0.1102808E+00
         21   -1    0    0  503  502  0.00000000000E+00  0.00000000000E+00  0.96286795872E+02  0.96286795872E+02  0.00000000000E+00 0.  1.
         21   -1    0    0  501  503 -0.00000000000E+00 -0.00000000000E+00 -0.74121481297E+03  0.74121481297E+03  0.00000000000E+00 0.  1.
          6    2    1    2  501    0  0.44366743551E+02 -0.19991752789E+03 -0.31539307405E+03  0.41301398064E+03  0.17079909588E+03 0.  0.
         24    2    3    3    0    0  0.40371738082E+02 -0.70298446133E+02 -0.23503593209E+03  0.26038231063E+03  0.77364782387E+02 0.  0.
         -6    2    1    2    0  502 -0.44366743551E+02  0.19991752789E+03 -0.32953494304E+03  0.42448762820E+03  0.17222381344E+03 0.  0.
        -24    2    5    5    0    0 -0.80201029406E+01  0.16914330273E+03 -0.32624307249E+03  0.37651828768E+03  0.81594728370E+02 0.  0.
          5    1    3    3  501    0  0.39950054686E+01 -0.12961908176E+03 -0.80357141967E+02  0.15263167001E+03  0.47000000000E+01 0. -1.
        -13    1    4    4    0    0 -0.37624375420E+01  0.15071230443E+02 -0.41180800405E+02  0.44013137190E+02  0.00000000000E+00 0.  1.
         14    1    4    4    0    0  0.44134175624E+02 -0.85369676576E+02 -0.19385513168E+03  0.21636917344E+03  0.00000000000E+00 0. -1.
         -5    1    5    5    0  502 -0.36346640610E+02  0.30774225165E+02 -0.32918705482E+01  0.47969340519E+02  0.47000000000E+01 0.  1.
         13    1    6    6    0    0 -0.17477746759E+02  0.11909949425E+03 -0.29005366433E+03  0.31404026709E+03  0.00000000000E+00 0. -1.
        -14    1    6    6    0    0  0.94576438185E+01  0.50043808479E+02 -0.36189408166E+02  0.62478020592E+02  0.00000000000E+00 0.  1.
</event>
<event>
12    1  0.1039610E+000  0.2321169E+03  0.7818608E-02  0.1125327E+00
         21   -1    0    0  501  502  0.00000000000E+00  0.00000000000E+00  0.18357437547E+03  0.18357437547E+03  0.00000000000E+00 0. -1.
         21   -1    0    0  502  503 -0.00000000000E+00 -0.00000000000E+00 -0.29769326825E+03  0.29769326825E+03  0.00000000000E+00 0. -1.
         -6    2    1    2    0  503  0.28695774750E+02  0.15244781080E+03 -0.89649396413E+02  0.24882781246E+03  0.17266871016E+03 0.  0.
        -24    2    3    3    0    0  0.56218163884E+02  0.83311075290E+02  0.61079833781E+01  0.12746498502E+03  0.78158798146E+02 0.  0.
          6    2    1    2  501    0 -0.28695774750E+02 -0.15244781080E+03 -0.24469496375E+02  0.23243983126E+03  0.17136433817E+03 0.  0.
         24    2    5    5    0    0 -0.52440890295E+02 -0.55505839477E+02 -0.58183400633E+02  0.12698702828E+03  0.83123113820E+02 0.  0.
          5    1    5    5  501    0  0.23745115545E+02 -0.96941971322E+02  0.33713904258E+02  0.10545280298E+03  0.47000000000E+01 0. -1.
        -13    1    6    6    0    0  0.22223935642E+02 -0.17788327544E+02 -0.85625772214E+01  0.29726177704E+02  0.00000000000E+00 0.  1.
         14    1    6    6    0    0 -0.74664825937E+02 -0.37717511934E+02 -0.49620823412E+02  0.97260850576E+02  0.00000000000E+00 0. -1.
         -5    1    3    3    0  503 -0.27522389134E+02  0.69136735509E+02 -0.95757379791E+02  0.12136282744E+03  0.47000000000E+01 0.  1.
         13    1    4    4    0    0 -0.16791605030E+02  0.14654652630E+02  0.14978477585E+02  0.26852777025E+02  0.00000000000E+00 0. -1.
        -14    1    4    4    0    0  0.73009768914E+02  0.68656422661E+02 -0.88704942068E+01  0.10061220799E+03  0.00000000000E+00 0.  1.
</event>
<event>
12    1  0.1039610E+000  0.1800094E+03  0.7818608E-02  0.1167837E+00
         21   -1    0    0  501  502  0.00000000000E+00  0.00000000000E+00  0.21569333021E+03  0.21569333021E+03  0.00000000000E+00 0.  1.
         21   -1    0    0  502  503 -0.00000000000E+00 -0.00000000000E+00 -0.15347267406E+03  0.15347267406E+03  0.00000000000E+00 0.  1.
         -6    2    1    2    0  503  0.22921370768E+02  0.47228655253E+02  0.36804456592E+01  0.18004704807E+03  0.17218437421E+03 0.  0.
        -24    2    3    3    0    0  0.39322217196E+01  0.85419010780E+02 -0.34512671044E+02  0.12260233377E+03  0.80798131253E+02 0.  0.
          6    2    1    2  501    0 -0.22921370768E+02 -0.47228655253E+02  0.58540210482E+02  0.18911895620E+03  0.17199734951E+03 0.  0.
         24    2    5    5    0    0 -0.74522569781E+02 -0.21119002096E+02  0.52629921975E+01  0.11034745301E+03  0.78417062187E+02 0.  0.
          5    1    5    5  501    0  0.51601199014E+02 -0.26109653157E+02  0.53277218285E+02  0.78771503196E+02  0.47000000000E+01 0. -1.
        -13    1    6    6    0    0 -0.77831867312E+02  0.11449442700E+01 -0.15905378000E+02  0.79448672210E+02  0.00000000000E+00 0.  1.
         14    1    6    6    0    0  0.33092975307E+01 -0.22263946366E+02  0.21168370198E+02  0.30898780797E+02  0.00000000000E+00 0. -1.
         -5    1    3    3    0  503  0.18989149048E+02 -0.38190355526E+02  0.38193116703E+02  0.57444714294E+02  0.47000000000E+01 0.  1.
         13    1    4    4    0    0 -0.25140911348E+02  0.47961126570E+02 -0.48991878899E+02  0.73024237643E+02  0.00000000000E+00 0. -1.
        -14    1    4    4    0    0  0.29073133068E+02  0.37457884209E+02  0.14479207856E+02  0.49578096131E+02  0.00000000000E+00 0.  1.
</event>
<event>
12    1  0.1039610E+000  0.2483082E+03  0.7818608E-02  0.1114623E+00
         21   -1    0    0  501  502  0.00000000000E+00  0.00000000000E+00  0.13647871981E+04  0.13647871981E+04  0.00000000000E+00 0. -1.
         21   -1    0    0  502  503 -0.00000000000E+00 -0.00000000000E+00 -0.48272983007E+02  0.48272983007E+02  0.00000000000E+00 0. -1.
         -6    2    1    2    0  503 -0.17619912824E+03 -0.27544539243E+02  0.84694145617E+03  0.88259096560E+03  0.17277774151E+03 0.  0.
        -24    2    3    3    0    0 -0.63253224329E+02  0.12455924570E+02  0.20385075317E+03  0.22841625149E+03  0.80391130911E+02 0.  0.
          6    2    1    2  501    0  0.17619912824E+03  0.27544539243E+02  0.46957275890E+03  0.53046921548E+03  0.17057015633E+03 0.  0.
         24    2    5    5    0    0  0.15078376796E+03  0.79777537772E+02  0.35817126917E+03  0.40474487978E+03  0.80197003875E+02 0.  0.
          5    1    5    5  501    0  0.25415360284E+02 -0.52232998529E+02  0.11140148973E+03  0.12572433570E+03  0.47000000000E+01 0. -1.
        -13    1    6    6    0    0  0.13168462584E+03  0.73128915494E+02  0.35311427559E+03  0.38389890673E+03  0.00000000000E+00 0.  1.
         14    1    6    6    0    0  0.19099142122E+02  0.66486222781E+01  0.50569935791E+01  0.20845973042E+02  0.00000000000E+00 0. -1.
         -5    1    3    3    0  503 -0.11294590391E+03 -0.40000463813E+02  0.64309070299E+03  0.65417471412E+03  0.47000000000E+01 0.  1.
         11    1    4    4    0    0 -0.56562809561E+02  0.36852227153E+02  0.94245135545E+02  0.11592921826E+03  0.00000000000E+00 0. -1.
        -12    1    4    4    0    0 -0.66904147683E+01 -0.24396302583E+02  0.10960561763E+03  0.11248703323E+03  0.00000000000E+00 0.  1.
</event>
<event>
12    1  0.1039610E+000  0.1808620E+03  0.7818608E-02  0.1167580E+00
         21   -1    0    0  501  502  0.00000000000E+00  0.00000000000E+00  0.16610910016E+03  0.16610910016E+03  0.00000000000E+00 0. -1.
         21   -1    0    0  502  503 -0.00000000000E+00 -0.00000000000E+00 -0.25520298172E+03  0.25520298172E+03  0.00000000000E+00 0. -1.
         -6    2    1    2    0  503  0.50236289480E+02 -0.48099676324E+01 -0.14777574444E+03  0.23355668200E+03  0.17367853205E+03 0.  0.
        -24    2    3    3    0    0  0.52869056950E+02 -0.52356399036E+02 -0.42579625051E+02  0.11798891773E+03  0.81068061130E+02 0.  0.
          6    2    1    2  501    0 -0.50236289480E+02  0.48099676324E+01  0.58681862890E+02  0.18775539987E+03  0.17106054069E+03 0.  0.
         24    2    5    5    0    0 -0.61821620944E+02 -0.41497353873E+02  0.79682576790E+02  0.13539407909E+03  0.80239020513E+02 0.  0.
          5    1    5    5  501    0  0.11585331465E+02  0.46307321506E+02 -0.21000713901E+02  0.52361320787E+02  0.47000000000E+01 0. -1.
        -11    1    6    6    0    0 -0.33460075658E+02  0.14482784519E+02  0.34037051679E+01  0.36618477840E+02  0.00000000000E+00 0.  1.
         12    1    6    6    0    0 -0.28361545286E+02 -0.55980138392E+02  0.76278871622E+02  0.98775601245E+02  0.00000000000E+00 0. -1.
         -5    1    3    3    0  503 -0.26327674704E+01  0.47546431403E+02 -0.10519611939E+03  0.11556776427E+03  0.47000000000E+01 0.  1.
         13    1    4    4    0    0  0.13448750968E+02  0.21999522862E+02 -0.79366108017E+01  0.26978467336E+02  0.00000000000E+00 0. -1.
        -14    1    4    4    0    0  0.39420305982E+02 -0.74355921898E+02 -0.34643014249E+02  0.91010450396E+02  0.00000000000E+00 0.  1.
</event>
<event>
12    1  0.1039610E+000  0.2318212E+03  0.7818608E-02  0.1125515E+00
         21   -1    0    0  501  502  0.00000000000E+00  0.00000000000E+00  0.16520361657E+03  0.16520361657E+03  0.00000000000E+00 0. -1.
         21   -1    0    0  502  503 -0.00000000000E+00 -0.00000000000E+00 -0.32830116704E+03  0.32830116704E+03  0.00000000000E+00 0. -1.
         -6    2    1    2    0  503 -0.82456516145E+02  0.13392547996E+03 -0.53754272061E+02  0.23797181678E+03  0.17031134013E+03 0.  0.
        -24    2    3    3    0    0 -0.96813387353E+02  0.12719003484E+03 -0.87189959995E+02  0.20066871772E+03  0.84354657319E+02 0.  0.
          6    2    1    2  501    0  0.82456516145E+02 -0.13392547996E+03 -0.10934327842E+03  0.25553296683E+03  0.16913318233E+03 0.  0.
         24    2    5    5    0    0  0.38368596775E+01 -0.86785660138E+02 -0.11488623024E+03  0.16357630687E+03  0.77536378388E+02 0.  0.
          5    1    5    5  501    0  0.78619656468E+02 -0.47139819825E+02  0.55429518247E+01  0.91956659961E+02  0.47000000000E+01 0. -1.
        -11    1    6    6    0    0  0.36970951414E+02 -0.21272886022E+02 -0.48607446251E+02  0.64668931947E+02  0.00000000000E+00 0.  1.
         12    1    6    6    0    0 -0.33134091736E+02 -0.65512774116E+02 -0.66278783990E+02  0.98907374926E+02  0.00000000000E+00 0. -1.
         -5    1    3    3    0  503  0.14356871208E+02  0.67354451195E+01  0.33435687934E+02  0.37303099060E+02  0.47000000000E+01 0.  1.
         11    1    4    4    0    0  0.71792111886E+00  0.97501521009E+01 -0.39563967691E+02  0.40753998776E+02  0.00000000000E+00 0. -1.
        -12    1    4    4    0    0 -0.97531308472E+02  0.11743988274E+03 -0.47625992304E+02  0.15991471894E+03  0.00000000000E+00 0.  1.
</event>
<event>
12    1  0.1039610E+000  0.2079885E+03  0.7818608E-02  0.1143843E+00
         21   -1    0    0  501  502  0.00000000000E+00  0.00000000000E+00  0.14360905244E+03  0.14360905244E+03  0.00000000000E+00 0. -1.
         21   -1    0    0  502  503 -0.00000000000E+00 -0.00000000000E+00 -0.47100995324E+03  0.47100995324E+03  0.00000000000E+00 0. -1.
         -6    2    1    2    0  503  0.93098493590E+02 -0.65329694723E+02 -0.35162692277E+03  0.40853483883E+03  0.17413765588E+03 0.  0.
        -24    2    3    3    0    0  0.75458194771E+02  0.23231679837E+02 -0.14756210398E+03  0.18533350040E+03  0.79625886075E+02 0.  0.
          6    2    1    2  501    0 -0.93098493590E+02  0.65329694723E+02  0.24226021977E+02  0.20608416685E+03  0.17014254366E+03 0.  0.
         24    2    5    5    0    0 -0.20394449335E+02 -0.28251370187E+01 -0.31307184255E+02  0.91904544609E+02  0.83918952394E+02 0.  0.
          5    1    5    5  501    0 -0.72704044255E+02  0.68154831742E+02  0.55533206233E+02  0.11417962224E+03  0.47000000000E+01 0. -1.
        -13    1    6    6    0    0 -0.84283928508E+01 -0.12682830743E+02  0.27311691706E+02  0.31270121611E+02  0.00000000000E+00 0.  1.
         14    1    6    6    0    0 -0.11966056485E+02  0.98576937247E+01 -0.58618875961E+02  0.60634422998E+02  0.00000000000E+00 0. -1.
         -5    1    3    3    0  503  0.17640298819E+02 -0.88561374560E+02 -0.20406481879E+03  0.22320133843E+03  0.47000000000E+01 0.  1.
         13    1    4    4    0    0  0.11845526159E+02  0.25387310921E+02 -0.40059920054E+01  0.28299823634E+02  0.00000000000E+00 0. -1.
        -14    1    4    4    0    0  0.63612668612E+02 -0.21556310841E+01 -0.14355611197E+03  0.15703367676E+03  0.00000000000E+00 0.  1.
</event>
<event>
12    1  0.1039610E+000  0.2564584E+03  0.7818608E-02  0.1109588E+00
         21   -1    0    0  501  502  0.00000000000E+00  0.00000000000E+00  0.72620965668E+03  0.72620965668E+03  0.00000000000E+00 0. -1.
         21   -1    0    0  502  503 -0.00000000000E+00 -0.00000000000E+00 -0.14311420227E+03  0.14311420227E+03  0.00000000000E+00 0. -1.
         -6    2    1    2    0  503  0.72116318742E+02 -0.17543324434E+03  0.55594075856E+03  0.61143180858E+03  0.16970899465E+03 0.  0.
        -24    2    3    3    0    0 -0.11153622486E+02 -0.12413705254E+03  0.25755154889E+03  0.29738819242E+03  0.81071114121E+02 0.  0.
          6    2    1    2  501    0 -0.72116318742E+02  0.17543324434E+03  0.27154695845E+02  0.25789205036E+03  0.17260748966E+03 0.  0.
         24    2    5    5    0    0 -0.80242642924E+02  0.13280637537E+03 -0.35725425914E+02  0.18134737834E+03  0.86799484397E+02 0.  0.
          5    1    5    5  501    0  0.81263241819E+01  0.42626868968E+02  0.62880121760E+02  0.76544672024E+02  0.47000000000E+01 0. -1.
        -11    1    6    6    0    0 -0.17939533285E+02  0.10995051317E+03 -0.23888603324E+02  0.11393685782E+03  0.00000000000E+00 0.  1.
         12    1    6    6    0    0 -0.62303109640E+02  0.22855862198E+02 -0.11836822590E+02  0.67410520519E+02  0.00000000000E+00 0. -1.
         -5    1    3    3    0  503  0.83269941228E+02 -0.51296191798E+02  0.29838920967E+03  0.31404361617E+03  0.47000000000E+01 0.  1.
         11    1    4    4    0    0 -0.23634432060E+02 -0.19732429332E+01  0.25348804505E+02  0.34713714239E+02  0.00000000000E+00 0. -1.
        -12    1    4    4    0    0  0.12480809574E+02 -0.12216380961E+03  0.23220274438E+03  0.26267447818E+03  0.00000000000E+00 0.  1.
</event>
<event>
12    1  0.1039610E+000  0.2607913E+03  0.7818608E-02  0.1106681E+00
         21   -1    0    0  501  502  0.00000000000E+00  0.00000000000E+00  0.54760485178E+02  0.54760485178E+02  0.00000000000E+00 0. -1.
         21   -1    0    0  502  503 -0.00000000000E+00 -0.00000000000E+00 -0.12792039031E+04  0.12792039031E+04  0.00000000000E+00 0.  1.
         -6    2    1    2    0  503 -0.19270749386E+03  0.33300193303E+02 -0.72665833237E+03  0.77203913681E+03  0.17253120211E+03 0.  0.
        -24    2    3    3    0    0 -0.88726673074E+02 -0.48166218732E+02 -0.37135888947E+03  0.39295000283E+03  0.79434707718E+02 0.  0.
          6    2    1    2  501    0  0.19270749386E+03 -0.33300193303E+02 -0.49778508559E+03  0.56192525151E+03  0.17240915224E+03 0.  0.
         24    2    5    5    0    0  0.17525831354E+03  0.39049539205E+01 -0.47908877289E+03  0.51653429445E+03  0.80937629715E+02 0.  0.
          5    1    5    5  501    0  0.17449180321E+02 -0.37205147223E+02 -0.18696312703E+02  0.45390957056E+02  0.47000000000E+01 0. -1.
        -13    1    6    6    0    0  0.16463966090E+03 -0.16092599965E+02 -0.37269894144E+03  0.40776180629E+03  0.00000000000E+00 0.  1.
         14    1    6    6    0    0  0.10618652636E+02  0.19997553885E+02 -0.10638983145E+03  0.10877248816E+03  0.00000000000E+00 0. -1.
         -5    1    3    3    0  503 -0.10398082079E+03  0.81466412035E+02 -0.35529944290E+03  0.37908913399E+03  0.47000000000E+01 0.  1.
         11    1    4    4    0    0  0.33237281147E+01 -0.14893288642E+02 -0.92468331958E+01  0.17842677470E+02  0.00000000000E+00 0. -1.
        -12    1    4    4    0    0 -0.92050401189E+02 -0.33272930090E+02 -0.36211205627E+03  0.37510732535E+03  0.00000000000E+00 0.  1.
</event>
<event>
12    1  0.1039610E+000  0.1755233E+03  0.7818608E-02  0.1174360E+00
         21   -1    0    0  503  502  0.00000000000E+00  0.00000000000E+00  0.11330319955E+04  0.11330319955E+04  0.00000000000E+00 0.  1.
         21   -1    0    0  501  503 -0.00000000000E+00 -0.00000000000E+00 -0.29093120737E+02  0.29093120737E+02  0.00000000000E+00 0.  1.
          6    2    1    2  501    0 -0.17199653941E+02 -0.18796668776E+02  0.34772374047E+03  0.38580704319E+03  0.16518514471E+03 0.  0.
         24    2    3    3    0    0 -0.15214235282E+02  0.37926724474E+02  0.29427205567E+03  0.30770033517E+03  0.80084606080E+02 0.  0.
         -6    2    1    2    0  502  0.17199653941E+02  0.18796668776E+02  0.75621513429E+03  0.77631807305E+03  0.17366426910E+03 0.  0.
        -24    2    5    5    0    0 -0.39568376256E+02  0.51563090266E+02  0.35172144088E+03  0.36652118966E+03  0.80033754226E+02 0.  0.
          5    1    3    3  501    0 -0.19854186593E+01 -0.56723393251E+02  0.53451684805E+02  0.78106708019E+02  0.47000000000E+01 0. -1.
        -11    1    4    4    0    0  0.22040469856E+02  0.22096979057E+02  0.42685504999E+02  0.52878267105E+02  0.00000000000E+00 0.  1.
         12    1    4    4    0    0 -0.37254705138E+02  0.15829745417E+02  0.25158655067E+03  0.25482206806E+03  0.00000000000E+00 0. -1.
         -5    1    5    5    0  502  0.56768030197E+02 -0.32766421490E+02  0.40449369342E+03  0.40979688340E+03  0.47000000000E+01 0.  1.
         13    1    6    6    0    0  0.23388961571E+02  0.61633326504E+01  0.61109643531E+02  0.65722284845E+02  0.00000000000E+00 0. -1.
        -14    1    6    6    0    0 -0.62957337827E+02  0.45399757616E+02  0.29061179735E+03  0.30079890481E+03  0.00000000000E+00 0.  1.
</event>
<event>
12    1  0.1039610E+000  0.2117641E+03  0.7818608E-02  0.1140238E+00
         21   -1    0    0  501  502  0.00000000000E+00  0.00000000000E+00  0.46762912644E+03  0.46762912644E+03  0.00000000000E+00 0.  1.
         21   -1    0    0  502  503 -0.00000000000E+00 -0.00000000000E+00 -0.12163472403E+03  0.12163472403E+03  0.00000000000E+00 0.  1.
         -6    2    1    2    0  503 -0.68050336043E+02  0.10275550138E+03  0.37192024944E+02  0.21500531777E+03  0.17220481599E+03 0.  0.
        -24    2    3    3    0    0 -0.32379644711E+02  0.98533257126E+02 -0.25840781947E+02  0.14230421522E+03  0.93944129707E+02 0.  0.
          6    2    1    2  501    0  0.68050336043E+02 -0.10275550138E+03  0.30880237746E+03  0.37425853271E+03  0.17181676192E+03 0.  0.
         24    2    5    5    0    0  0.22341759509E+02 -0.29557549537E+02  0.26056640531E+03  0.27528372211E+03  0.80706091051E+02 0.  0.
          5    1    5    5  501    0  0.45708576535E+02 -0.73197951843E+02  0.48235972159E+02  0.98974810598E+02  0.47000000000E+01 0. -1.
        -13    1    6    6    0    0 -0.23460135034E+02 -0.31593043591E+02  0.82416037921E+02  0.91328536865E+02  0.00000000000E+00 0.  1.
         14    1    6    6    0    0  0.45801894543E+02  0.20354940548E+01  0.17815036738E+03  0.18395518525E+03  0.00000000000E+00 0. -1.
         -5    1    3    3    0  503 -0.35670691332E+02  0.42222442531E+01  0.63032806891E+02  0.72701102545E+02  0.47000000000E+01 0.  1.
         13    1    4    4    0    0 -0.58156081676E+02  0.56565682032E+02 -0.40828593127E+02  0.90822795797E+02  0.00000000000E+00 0. -1.
        -14    1    4    4    0    0  0.25776436965E+02  0.41967575094E+02  0.14987811180E+02  0.51481419424E+02  0.00000000000E+00 0.  1.
</event>
<event>
12    1  0.1039610E+000  0.1758284E+03  0.7818608E-02  0.1172210E+00
         21   -1    0    0  503  502  0.00000000000E+00  0.00000000000E+00  0.49975074436E+02  0.49975074436E+02  0.00000000000E+00 0. -1.
         21   -1    0    0  501  503 -0.00000000000E+00 -0.00000000000E+00 -0.85796490432E+03  0.85796490432E+03  0.00000000000E+00 0. -1.
          6    2    1    2  501    0 -0.87868358682E+01  0.28207736413E+02 -0.64693461713E+03  0.67040289353E+03  0.17332846257E+03 0.  0.
         24    2    3    3    0    0  0.42446654505E+02  0.41702965375E+02 -0.56663764723E+03  0.57408734383E+03  0.70407380853E+02 0.  0.
         -6    2    1    2    0  502  0.87868358682E+01 -0.28207736413E+02 -0.16105521276E+03  0.23753708523E+03  0.17208195845E+03 0.  0.
        -24    2    5    5    0    0  0.26523842290E+02  0.33327185511E+02 -0.14660408927E+03  0.17171860011E+03  0.78614904002E+02 0.  0.
          5    1    3    3  501    0 -0.51233490373E+02 -0.13495228962E+02 -0.80296969893E+02  0.96315549702E+02  0.47000000000E+01 0. -1.
        -13    1    4    4    0    0 -0.18342255670E+02  0.18825837048E+02 -0.12839816614E+03  0.13106082387E+03  0.00000000000E+00 0.  1.
         14    1    4    4    0    0  0.60788910175E+02  0.22877128327E+02 -0.43823948109E+03  0.44302651996E+03  0.00000000000E+00 0. -1.
         -5    1    5    5    0  502 -0.17737006422E+02 -0.61534921924E+02 -0.14451123495E+02  0.65818485118E+02  0.47000000000E+01 0.  1.
         13    1    6    6    0    0  0.29156148610E+01  0.16897465790E+02 -0.14146515446E+03  0.14250057925E+03  0.00000000000E+00 0. -1.
        -14    1    6    6    0    0  0.23608227429E+02  0.16429719720E+02 -0.51389348111E+01  0.29218020868E+02  0.00000000000E+00 0.  1.
</event>
<event>
12    1  0.1039610E+000  0.2312675E+03  0.7818608E-02  0.1125924E+00
         21   -1    0    0  501  502  0.00000000000E+00  0.00000000000E+00  0.65617734176E+02  0.65617734176E+02  0.00000000000E+00 0.  1.
         21   -1    0    0  502  503 -0.00000000000E+00 -0.00000000000E+00 -0.90499710217E+03  0.90499710217E+03  0.00000000000E+00 0.  1.
         -6    2    1    2    0  503  0.71908059942E+02  0.13537774500E+03 -0.26460405042E+03  0.35142557840E+03  0.17316677144E+03 0.  0.
        -24    2    3    3    0    0 -0.77739200522E+01  0.42427733581E+02 -0.49196079693E+02  0.10361192581E+03  0.80340715102E+02 0.  0.
          6    2    1    2  501    0 -0.71908059942E+02 -0.13537774500E+03 -0.57477531757E+03  0.61918925794E+03  0.17184518770E+03 0.  0.
         24    2    5    5    0    0 -0.45757485186E+02 -0.38670714364E+01 -0.18149218842E+03  0.20365030730E+03  0.80158165625E+02 0.  0.
          5    1    5    5  501    0 -0.26150574756E+02 -0.13151067356E+03 -0.39328312915E+03  0.41553895064E+03  0.47000000000E+01 0. -1.
        -13    1    6    6    0    0 -0.27233266330E+02  0.15077583034E+02 -0.17307098759E+03  0.17584809083E+03  0.00000000000E+00 0.  1.
         14    1    6    6    0    0 -0.18524218856E+02 -0.18944654471E+02 -0.84212008291E+01  0.27802216470E+02  0.00000000000E+00 0. -1.
         -5    1    3    3    0  503  0.79681979994E+02  0.92950011416E+02 -0.21540797073E+03  0.24781365259E+03  0.47000000000E+01 0.  1.
         11    1    4    4    0    0  0.12516043426E+02  0.76147468479E+01  0.19247005349E+02  0.24188487499E+02  0.00000000000E+00 0. -1.
        -12    1    4    4    0    0 -0.20289963478E+02  0.34812986733E+02 -0.68443085041E+02  0.79423438311E+02  0.00000000000E+00 0.  1.
</event>
<event>
12    1  0.1039610E+000  0.1990097E+03  0.7818608E-02  0.1150820E+00
         21   -1    0    0  503  502  0.00000000000E+00  0.00000000000E+00  0.15359287575E+03  0.15359287575E+03  0.00000000000E+00 0. -1.
         21   -1    0    0  501  503 -0.00000000000E+00 -0.00000000000E+00 -0.26265683735E+03  0.26265683735E+03  0.00000000000E+00 0. -1.
          6    2    1    2  501    0  0.15572972210E+02  0.98591767342E+02 -0.22209650302E+02  0.19911255350E+03  0.17084989419E+03 0.  0.
         24    2    3    3    0    0 -0.77078203336E+00  0.13555308287E+03 -0.14746855256E+02  0.15774782870E+03  0.79320081552E+02 0.  0.
         -6    2    1    2    0  502 -0.15572972210E+02 -0.98591767342E+02 -0.86854311299E+02  0.21713715959E+03  0.17216858202E+03 0.  0.
        -24    2    5    5    0    0 -0.25125464123E+02  0.11960814040E+02 -0.26567914509E+02  0.90766027643E+02  0.82208683683E+02 0.  0.
          5    1    3    3  501    0  0.16343754244E+02 -0.36961315531E+02 -0.74627950462E+01  0.41364724808E+02  0.47000000000E+01 0. -1.
        -13    1    4    4    0    0 -0.79134360126E+01  0.14063709398E+03 -0.26249926243E+02  0.14328458850E+03  0.00000000000E+00 0.  1.
         14    1    4    4    0    0  0.71426539792E+01 -0.50840111121E+01  0.11503070987E+02  0.14463240196E+02  0.00000000000E+00 0. -1.
         -5    1    5    5    0  502  0.95524919125E+01 -0.11055258138E+03 -0.60286396790E+02  0.12637113195E+03  0.47000000000E+01 0.  1.
         11    1    6    6    0    0 -0.48624752623E+02  0.15707978303E+02 -0.38658123191E+02  0.64074625544E+02  0.00000000000E+00 0. -1.
        -12    1    6    6    0    0  0.23499288500E+02 -0.37471642635E+01  0.12090208682E+02  0.26691402099E+02  0.00000000000E+00 0.  1.
</event>
<event>
12    1  0.1039610E+000  0.2052057E+03  0.7818608E-02  0.1145596E+00
         21   -1    0    0  503  502  0.00000000000E+00  0.00000000000E+00  0.25367345123E+02  0.25367345123E+02  0.00000000000E+00 0. -1.
         21   -1    0    0  501  503 -0.00000000000E+00 -0.00000000000E+00 -0.16675273572E+04  0.16675273572E+04  0.00000000000E+00 0. -1.
          6    2    1    2  501    0 -0.59884437412E+02 -0.96403615229E+02 -0.74045525604E+03  0.76813481698E+03  0.16993324567E+03 0.  0.
         24    2    3    3    0    0 -0.83441680637E+02 -0.54604590325E+02 -0.31829310955E+03  0.34322886254E+03  0.80940553120E+02 0.  0.
         -6    2    1    2    0  502  0.59884437412E+02  0.96403615229E+02 -0.90170475606E+03  0.92475988536E+03  0.17096659209E+03 0.  0.
        -24    2    5    5    0    0  0.18266207107E+02  0.33115389511E+02 -0.18888684552E+03  0.20791336052E+03  0.78226860636E+02 0.  0.
          5    1    3    3  501    0  0.23557243225E+02 -0.41799024904E+02 -0.42216214649E+03  0.42490595444E+03  0.47000000000E+01 0. -1.
        -13    1    4    4    0    0 -0.48106140730E+00 -0.19435080264E+02 -0.96556684814E+01  0.21706812266E+02  0.00000000000E+00 0.  1.
         14    1    4    4    0    0 -0.82960619230E+02 -0.35169510061E+02 -0.30863744107E+03  0.32152205027E+03  0.00000000000E+00 0. -1.
         -5    1    5    5    0  502  0.41618230305E+02  0.63288225718E+02 -0.71281791053E+03  0.71684652485E+03  0.47000000000E+01 0.  1.
         11    1    6    6    0    0  0.42928449322E+01 -0.15374863872E+02 -0.12727918692E+03  0.12827628924E+03  0.00000000000E+00 0. -1.
        -12    1    6    6    0    0  0.13973362174E+02  0.48490253383E+02 -0.61607658598E+02  0.79637071277E+02  0.00000000000E+00 0.  1.
</event>
<event>
12    1  0.1039610E+000  0.2773663E+03  0.7818608E-02  0.1097208E+00
         21   -1    0    0  501  502  0.00000000000E+00  0.00000000000E+00  0.55297418691E+03  0.55297418691E+03  0.00000000000E+00 0.  1.
         21   -1    0    0  502  503 -0.00000000000E+00 -0.00000000000E+00 -0.14197600187E+03  0.14197600187E+03  0.00000000000E+00 0.  1.
         -6    2    1    2    0  503  0.10006966698E+03 -0.19285660107E+03  0.15424713775E+03  0.31737085002E+03  0.17240785978E+03 0.  0.
        -24    2    3    3    0    0  0.35930649397E+02 -0.23242698405E+02  0.82259680245E+02  0.12221200807E+03  0.79610836747E+02 0.  0.
          6    2    1    2  501    0 -0.10006966698E+03  0.19285660107E+03  0.25675104729E+03  0.37757933875E+03  0.17157345347E+03 0.  0.
         24    2    5    5    0    0 -0.11456832125E+03  0.13834091853E+03  0.12256166346E+03  0.23193919540E+03  0.80686548083E+02 0.  0.
          5    1    5    5  501    0  0.14498654270E+02  0.54515682548E+02  0.13418938384E+03  0.14564014335E+03  0.47000000000E+01 0. -1.
        -13    1    6    6    0    0 -0.89390752581E+02  0.48537506016E+02  0.47712013833E+02  0.11235226923E+03  0.00000000000E+00 0.  1.
         14    1    6    6    0    0 -0.25177568672E+02  0.89803412509E+02  0.74849649623E+02  0.11958692617E+03  0.00000000000E+00 0. -1.
         -5    1    3    3    0  503  0.64139017586E+02 -0.16961390267E+03  0.71987457500E+02  0.19515884195E+03  0.47000000000E+01 0.  1.
         13    1    4    4    0    0  0.56372349362E+02 -0.15457504539E+02  0.30308529280E+02  0.65843626619E+02  0.00000000000E+00 0. -1.
        -14    1    4    4    0    0 -0.20441699965E+02 -0.77851938666E+01  0.51951150965E+02  0.56368381453E+02  0.00000000000E+00 0.  1.
</event>
<event>
12    1  0.1039610E+000  0.4192572E+03  0.7818608E-02  0.1037366E+00
         21   -1    0    0  503  502  0.00000000000E+00  0.00000000000E+00  0.54395521378E+03  0.54395521378E+03  0.00000000000E+00 0. -1.
         21   -1    0    0  501  503 -0.00000000000E+00 -0.00000000000E+00 -0.35228318519E+03  0.35228318519E+03  0.00000000000E+00 0.  1.
          6    2    1    2  501    0 -0.34391560156E+03  0.16638825521E+03 -0.34315397938E+02  0.41995389936E+03  0.17094074582E+03 0.  0.
         24    2    3    3    0    0 -0.11472923700E+03  0.10474413341E+03 -0.65880488327E+02  0.18048608861E+03  0.64037942921E+02 0.  0.
         -6    2    1    2    0  502  0.34391560156E+03 -0.16638825521E+03  0.22598742653E+03  0.47628449962E+03  0.17266619577E+03 0.  0.
        -24    2    5    5    0    0  0.35867875717E+03 -0.16169527395E+03  0.20815579881E+03  0.45220065060E+03  0.79754494301E+02 0.  0.
          5    1    3    3  501    0 -0.22918636456E+03  0.61644121794E+02  0.31565090389E+02  0.23946781074E+03  0.47000000000E+01 0. -1.
        -11    1    4    4    0    0 -0.10364507981E+03  0.62487990158E+02 -0.63653590468E+02  0.13674366919E+03  0.00000000000E+00 0.  1.
         12    1    4    4    0    0 -0.11084157192E+02  0.42256143254E+02 -0.22268978596E+01  0.43742419428E+02  0.00000000000E+00 0. -1.
         -5    1    5    5    0  502 -0.14763155609E+02 -0.46929812597E+01  0.17831627720E+02  0.24083849023E+02  0.47000000000E+01 0.  1.
         11    1    6    6    0    0  0.22691075897E+02 -0.28224811858E+02  0.38462179202E+02  0.52828630105E+02  0.00000000000E+00 0. -1.
        -12    1    6    6    0    0  0.33598768127E+03 -0.13347046209E+03  0.16969361961E+03  0.39937202049E+03  0.00000000000E+00 0.  1.
</event>
<event>
12    1  0.1039610E+000  0.2268214E+03  0.7818608E-02  0.1129016E+00
         21   -1    0    0  501  502  0.00000000000E+00  0.00000000000E+00  0.19603519519E+03  0.19603519519E+03  0.00000000000E+00 0.  1.
         21   -1    0    0  502  503 -0.00000000000E+00 -0.00000000000E+00 -0.34834148481E+03  0.34834148481E+03  0.00000000000E+00 0.  1.
         -6    2    1    2    0  503 -0.11123457295E+03  0.96470757179E+02  0.59527797695E+02  0.23450266320E+03  0.17253464330E+03 0.  0.
        -24    2    3    3    0    0 -0.95095492523E+02  0.11169116156E+03 -0.53128849928E+01  0.16581107159E+03  0.77116901159E+02 0.  0.
          6    2    1    2  501    0  0.11123457295E+03 -0.96470757179E+02 -0.21183408732E+03  0.30987401680E+03  0.17166388242E+03 0.  0.
         24    2    5    5    0    0  0.89874403521E+01 -0.81160867231E+02 -0.69713027474E+02  0.13406345254E+03  0.80282268613E+02 0.  0.
          5    1    5    5  501    0  0.10224713260E+03 -0.15309889948E+02 -0.14212105984E+03  0.17581056426E+03  0.47000000000E+01 0. -1.
        -11    1    6    6    0    0  0.10180172513E+02  0.56304869316E+01 -0.41030169674E+02  0.42647545287E+02  0.00000000000E+00 0.  1.
         12    1    6    6    0    0 -0.11927321606E+01 -0.86791354163E+02 -0.28682857799E+02  0.91415907253E+02  0.00000000000E+00 0. -1.
         -5    1    3    3    0  503 -0.16139080429E+02 -0.15220404386E+02  0.64840682688E+02  0.68691591612E+02  0.47000000000E+01 0.  1.
         13    1    4    4    0    0 -0.20844446877E+02  0.69408551435E+01 -0.27827618693E+02  0.35454799363E+02  0.00000000000E+00 0. -1.
        -14    1    4    4    0    0 -0.74251045646E+02  0.10475030642E+03  0.22514733700E+02  0.13035627223E+03  0.00000000000E+00 0.  1.
</event>
<event>
12    1  0.1039610E+000  0.1726729E+03  0.7818608E-02  0.1175196E+00
         21   -1    0    0  503  502  0.00000000000E+00  0.00000000000E+00  0.43368330659E+03  0.43368330659E+03  0.00000000000E+00 0.  1.
         21   -1    0    0  501  503 -0.00000000000E+00 -0.00000000000E+00 -0.71839263941E+02  0.71839263941E+02  0.00000000000E+00 0.  1.
          6    2    1    2  501    0  0.13135839673E+01 -0.20056182498E+02  0.23451742592E+03  0.29098122746E+03  0.17107798138E+03 0.  0.
         24    2    3    3    0    0  0.19917633170E+02 -0.71969695604E+02  0.19203299314E+03  0.22120916630E+03  0.80501401250E+02 0.  0.
         -6    2    1    2    0  502 -0.13135839673E+01  0.20056182498E+02  0.12732661673E+03  0.21454134307E+03  0.17149910962E+03 0.  0.
        -24    2    5    5    0    0  0.28557267352E+02  0.68509628858E+02  0.11518187017E+03  0.15614965624E+03  0.74878335732E+02 0.  0.
          5    1    3    3  501    0 -0.18604049203E+02  0.51913513105E+02  0.42484432779E+02  0.69772061158E+02  0.47000000000E+01 0. -1.
        -11    1    4    4    0    0  0.11993593571E+02 -0.56001156007E+02  0.44300921528E+02  0.72405437704E+02  0.00000000000E+00 0.  1.
         12    1    4    4    0    0  0.79240395988E+01 -0.15968539597E+02  0.14773207161E+03  0.14880372860E+03  0.00000000000E+00 0. -1.
         -5    1    5    5    0  502 -0.29870851320E+02 -0.48453446359E+02  0.12144746555E+02  0.58391686836E+02  0.47000000000E+01 0.  1.
         13    1    6    6    0    0 -0.93286264104E+01  0.65999336977E+02  0.63860383222E+02  0.92309719409E+02  0.00000000000E+00 0. -1.
        -14    1    6    6    0    0  0.37885893763E+02  0.25102918805E+01  0.51321486951E+02  0.63839936829E+02  0.00000000000E+00 0.  1.
</event>
<event>
12    1  0.1039610E+000  0.6568425E+03  0.7818608E-02  0.9794102E-01
         21   -1    0    0  503  502  0.00000000000E+00  0.00000000000E+00  0.21081676587E+04  0.21081676587E+04  0.00000000000E+00 0.  1.
         21   -1    0    0  501  503 -0.00000000000E+00 -0.00000000000E+00 -0.24765799274E+03  0.24765799274E+03  0.00000000000E+00 0.  1.
          6    2    1    2  501    0 -0.59739901088E+03 -0.21219943318E+03  0.43920381682E+03  0.79015317344E+03  0.17183674563E+03 0.  0.
         24    2    3    3    0    0 -0.18700953092E+03 -0.11750618640E+03  0.17496152192E+03  0.29292845899E+03  0.80095439545E+02 0.  0.
         -6    2    1    2    0  502  0.59739901088E+03  0.21219943318E+03  0.14213058491E+04  0.15656724779E+04  0.17118940939E+03 0.  0.
        -24    2    5    5    0    0  0.10985783745E+03  0.66733187371E+02  0.30754626159E+03  0.34119735234E+03  0.72861975566E+02 0.  0.
          5    1    3    3  501    0 -0.41038947996E+03 -0.94693246781E+02  0.26424229490E+03  0.49722471445E+03  0.47000000000E+01 0. -1.
        -11    1    4    4    0    0 -0.50391143732E+02 -0.48753788923E+02  0.15168004101E+02  0.71737491239E+02  0.00000000000E+00 0.  1.
         12    1    4    4    0    0 -0.13661838719E+03 -0.68752397478E+02  0.15979351782E+03  0.22119096775E+03  0.00000000000E+00 0. -1.
         -5    1    5    5    0  502  0.48754117343E+03  0.14546624581E+03  0.11137595875E+04  0.12244751256E+04  0.47000000000E+01 0.  1.
         13    1    6    6    0    0  0.81192866945E+02  0.77517803086E+01  0.15490949361E+03  0.17506948035E+03  0.00000000000E+00 0. -1.
        -14    1    6    6    0    0  0.28664970506E+02  0.58981407063E+02  0.15263676798E+03  0.16612787199E+03  0.00000000000E+00 0.  1.
</event>
<event>
12    1  0.1039610E+000  0.2415824E+03  0.7818608E-02  0.1119308E+00
         21   -1    0    0  503  502  0.00000000000E+00  0.00000000000E+00  0.28268721262E+03  0.28268721262E+03  0.00000000000E+00 0. -1.
         21   -1    0    0  501  503 -0.00000000000E+00 -0.00000000000E+00 -0.20620411922E+03  0.20620411922E+03  0.00000000000E+00 0. -1.
          6    2    1    2  501    0  0.62779028262E+02  0.15745317053E+03  0.65637503367E+02  0.24706557132E+03  0.16733322259E+03 0.  0.
         24    2    3    3    0    0 -0.14389418909E+02  0.51447644844E+02 -0.81860049891E+01  0.96519428551E+02  0.79969205784E+02 0.  0.
         -6    2    1    2    0  502 -0.62779028262E+02 -0.15745317053E+03  0.10845590031E+02  0.24182576052E+03  0.17213182253E+03 0.  0.
        -24    2    5    5    0    0 -0.95587386058E+02 -0.16455200108E+03  0.18444992938E+02  0.20708928601E+03  0.79570378812E+02 0.  0.
          5    1    3    3  501    0  0.77168447171E+02  0.10600552569E+03  0.73823508356E+02  0.15054614277E+03  0.47000000000E+01 0. -1.
        -13    1    4    4    0    0 -0.15040343921E+02  0.66692661557E+02  0.13810541351E+02  0.69748506101E+02  0.00000000000E+00 0.  1.
         14    1    4    4    0    0  0.65092501251E+00 -0.15245016714E+02 -0.21996546340E+02  0.26770922451E+02  0.00000000000E+00 0. -1.
         -5    1    5    5    0  502  0.32808357796E+02  0.70988305464E+01 -0.75994029064E+01  0.34736474503E+02  0.47000000000E+01 0.  1.
         11    1    6    6    0    0 -0.49244899553E+02 -0.30200526044E+02 -0.17749558210E+02  0.60433258409E+02  0.00000000000E+00 0. -1.
        -12    1    6    6    0    0 -0.46342486505E+02 -0.13435147504E+03  0.36194551148E+02  0.14665602760E+03  0.00000000000E+00 0.  1.
</event>
<event>
12    1  0.1039610E+000  0.2493129E+03  0.7818608E-02  0.1113776E+00
         21   -1    0    0  501  502  0.00000000000E+00  0.00000000000E+00  0.31409879639E+03  0.31409879639E+03  0.00000000000E+00 0. -1.
         21   -1    0    0  502  503 -0.00000000000E+00 -0.00000000000E+00 -0.28588475072E+03  0.28588475072E+03  0.00000000000E+00 0. -1.
         -6    2    1    2    0  503  0.14214793922E+03 -0.11026618646E+03  0.18071546566E+03  0.30792048519E+03  0.17260439500E+03 0.  0.
        -24    2    3    3    0    0  0.13973815462E+03 -0.30731042723E+02  0.15308132750E+03  0.22355590885E+03  0.77924339637E+02 0.  0.
          6    2    1    2  501    0 -0.14214793922E+03  0.11026618646E+03 -0.15250141999E+03  0.29206306191E+03  0.17227733611E+03 0.  0.
         24    2    5    5    0    0 -0.21810899501E+02 -0.28624406983E+01 -0.62689667428E+02  0.10400102346E+03  0.80014433538E+02 0.  0.
          5    1    5    5  501    0 -0.12033703972E+03  0.11312862715E+03 -0.89811752560E+02  0.18806203845E+03  0.47000000000E+01 0. -1.
        -13    1    6    6    0    0 -0.48003958236E+02  0.16071606259E+02 -0.36670935129E+02  0.62509471421E+02  0.00000000000E+00 0.  1.
         14    1    6    6    0    0  0.26193058735E+02 -0.18934046958E+02 -0.26018732299E+02  0.41491552038E+02  0.00000000000E+00 0. -1.
         -5    1    3    3    0  503  0.24097846008E+01 -0.79535143732E+02  0.27634138154E+02  0.84364576344E+02  0.47000000000E+01 0.  1.
         13    1    4    4    0    0  0.32779529641E+02  0.12312779105E+01  0.88968158188E+02  0.94822712365E+02  0.00000000000E+00 0. -1.
        -14    1    4    4    0    0  0.10695862498E+03 -0.31962320634E+02  0.64113169316E+02  0.12873319648E+03  0.00000000000E+00 0.  1.
</event>
<event>
12    1  0.1039610E+000  0.3938560E+03  0.7818608E-02  0.1045931E+00
         21   -1    0    0  501  502  0.00000000000E+00  0.00000000000E+00  0.30234048280E+03  0.30234048280E+03  0.00000000000E+00 0. -1.
         21   -1    0    0  502  503 -0.00000000000E+00 -0.00000000000E+00 -0.57576734260E+03  0.57576734260E+03  0.00000000000E+00 0. -1.
         -6    2    1    2    0  503  0.30583643501E+03  0.17849519929E+03  0.82101788035E+01  0.39394155632E+03  0.17241253322E+03 0.  0.
        -24    2    3    3    0    0  0.90670350417E+02  0.69919488251E+02 -0.41886030024E+02  0.14773666375E+03  0.83437611563E+02 0.  0.
          6    2    1    2  501    0 -0.30583643501E+03 -0.17849519929E+03 -0.28163703861E+03  0.48416626908E+03  0.17234005178E+03 0.  0.
         24    2    5    5    0    0 -0.26753079278E+03 -0.18271176840E+03 -0.18859513162E+03  0.38334966262E+03  0.80203022158E+02 0.  0.
          5    1    5    5  501    0 -0.38305642225E+02  0.42165691098E+01 -0.93041906987E+02  0.10081660646E+03  0.47000000000E+01 0. -1.
        -13    1    6    6    0    0 -0.21473775880E+03 -0.12095338534E+03 -0.17167971187E+03  0.30035970094E+03  0.00000000000E+00 0.  1.
         14    1    6    6    0    0 -0.52793033984E+02 -0.61758383056E+02 -0.16915419748E+02  0.82989961683E+02  0.00000000000E+00 0. -1.
         -5    1    3    3    0  503  0.21516608459E+03  0.10857571104E+03  0.50096208828E+02  0.24620489257E+03  0.47000000000E+01 0.  1.
         11    1    4    4    0    0  0.96314267105E+02  0.81835717221E+02 -0.45053119295E+02  0.13417639964E+03  0.00000000000E+00 0. -1.
        -12    1    4    4    0    0 -0.56439166881E+01 -0.11916228970E+02  0.31670892708E+01  0.13560264116E+02  0.00000000000E+00 0.  1.
</event>
<event>
12    1  0.1039610E+000  0.1995070E+03  0.7818608E-02  0.1150247E+00
         21   -1    0    0  501  502  0.00000000000E+00  0.00000000000E+00  0.61823498452E+02  0.61823498452E+02  0.00000000000E+00 0. -1.
         21   -1    0    0  502  503 -0.00000000000E+00 -0.00000000000E+00 -0.75041229216E+03  0.75041229216E+03  0.00000000000E+00 0. -1.
         -6    2    1    2    0  503  0.65849588853E+02 -0.75733175815E+02 -0.49803728386E+03  0.53635005253E+03  0.17192603196E+03 0.  0.
        -24    2    3    3    0    0  0.40284160559E+02  0.15480585287E+02 -0.33988823660E+03  0.35194085404E+03  0.80472910051E+02 0.  0.
          6    2    1    2  501    0 -0.65849588853E+02  0.75733175815E+02 -0.19055150985E+03  0.27588573808E+03  0.17242789884E+03 0.  0.
         24    2    5    5    0    0 -0.30218335672E+02  0.84906910355E+01 -0.17972416296E+03  0.19887626202E+03  0.79156510782E+02 0.  0.
          5    1    5    5  501    0 -0.35631253181E+02  0.67242484780E+02 -0.10827346892E+02  0.77009476062E+02  0.47000000000E+01 0. -1.
        -11    1    6    6    0    0 -0.35516114616E+02 -0.82154498886E+01 -0.27542985407E+02  0.45689211631E+02  0.00000000000E+00 0.  1.
         12    1    6    6    0    0  0.52977789441E+01  0.16706140924E+02 -0.15218117755E+03  0.15318705039E+03  0.00000000000E+00 0. -1.
         -5    1    3    3    0  503  0.25565428295E+02 -0.91213761102E+02 -0.15814904726E+03  0.18440919849E+03  0.47000000000E+01 0.  1.
         13    1    4    4    0    0  0.12414520514E+02 -0.30904575918E+02 -0.83355128983E+02  0.89762412290E+02  0.00000000000E+00 0. -1.
        -14    1    4    4    0    0  0.27869640045E+02  0.46385161204E+02 -0.25653310761E+03  0.26217844175E+03  0.00000000000E+00 0.  1.
</event>
<event>
12    1  0.1039610E+000  0.2143424E+03  0.7818608E-02  0.1138327E+00
         21   -1    0    0  503  502  0.00000000000E+00  0.00000000000E+00  0.23926102487E+02  0.23926102487E+02  0.00000000000E+00 0.  1.
         21   -1    0    0  501  503 -0.00000000000E+00 -0.00000000000E+00 -0.20318023779E+04  0.20318023779E+04  0.00000000000E+00 0.  1.
          6    2    1    2  501    0  0.48702239062E+02  0.11876545952E+03 -0.12506744182E+04  0.12687740322E+04  0.17065726447E+03 0.  0.
         24    2    3    3    0    0 -0.12985403861E+01  0.13792937366E+03 -0.96936543536E+03  0.98237541594E+03  0.79786667179E+02 0.  0.
         -6    2    1    2    0  502 -0.48702239062E+02 -0.11876545952E+03 -0.75720185722E+03  0.78695444821E+03  0.17165520246E+03 0.  0.
        -24    2    5    5    0    0 -0.68476875369E+02 -0.10213857330E+03 -0.74313092661E+03  0.75716232384E+03  0.77005454022E+02 0.  0.
          5    1    3    3  501    0  0.50000779448E+02 -0.19163914146E+02 -0.28130898285E+03  0.28639861624E+03  0.47000000000E+01 0. -1.
        -13    1    4    4    0    0 -0.36009332171E+02  0.48949691278E+02 -0.47470026015E+03  0.47857400814E+03  0.00000000000E+00 0.  1.
         14    1    4    4    0    0  0.34710791785E+02  0.88979682384E+02 -0.49466517521E+03  0.50380140781E+03  0.00000000000E+00 0. -1.
         -5    1    5    5    0  502  0.19774636307E+02 -0.16626886220E+02 -0.14070930606E+02  0.29792124371E+02  0.47000000000E+01 0.  1.
         13    1    6    6    0    0 -0.27216129148E+02 -0.80770816530E+01 -0.60291389323E+02  0.66640892554E+02  0.00000000000E+00 0. -1.
        -14    1    6    6    0    0 -0.41260746221E+02 -0.94061491644E+02 -0.68283953729E+03  0.69052143129E+03  0.00000000000E+00 0.  1.
</event>
<event>
12    1  0.1039610E+000  0.2267539E+03  0.7818608E-02  0.1129203E+00
         21   -1    0    0  503  502  0.00000000000E+00  0.00000000000E+00  0.25789725505E+03  0.25789725505E+03  0.00000000000E+00 0. -1.
         21   -1    0    0  501  503 -0.00000000000E+00 -0.00000000000E+00 -0.24685203118E+03  0.24685203118E+03  0.00000000000E+00 0. -1.
          6    2    1    2  501    0 -0.26095143911E+02 -0.14582845053E+03 -0.10663129878E+03  0.24927891356E+03  0.16977293467E+03 0.  0.
         24    2    3    3    0    0 -0.45924111090E+02 -0.12621974942E+03 -0.13664098830E+03  0.20804348506E+03  0.81060982414E+02 0.  0.
         -6    2    1    2    0  502  0.26095143911E+02  0.14582845053E+03  0.11767652265E+03  0.25547037267E+03  0.17166960654E+03 0.  0.
        -24    2    5    5    0    0 -0.22917843122E+01  0.42736455461E+02  0.13866423319E+02  0.10636502781E+03  0.96382490865E+02 0.  0.
          5    1    3    3  501    0  0.19828967179E+02 -0.19608701107E+02  0.30009689517E+02  0.41235428498E+02  0.47000000000E+01 0. -1.
        -13    1    4    4    0    0  0.12244870288E+02 -0.73253302955E+02 -0.43295686143E+02  0.85968015452E+02  0.00000000000E+00 0.  1.
         14    1    4    4    0    0 -0.58168981377E+02 -0.52966446466E+02 -0.93345302158E+02  0.12207546961E+03  0.00000000000E+00 0. -1.
         -5    1    5    5    0  502  0.28386928223E+02  0.10309199507E+03  0.10381009933E+03  0.14910534486E+03  0.47000000000E+01 0.  1.
         11    1    6    6    0    0  0.15827549653E+02  0.31005821384E+02  0.51981948221E+02  0.62561931145E+02  0.00000000000E+00 0. -1.
        -12    1    6    6    0    0 -0.18119333965E+02  0.11730634077E+02 -0.38115524902E+02  0.43803096668E+02  0.00000000000E+00 0.  1.
</event>
<event>
12    1  0.1039610E+000  0.1834241E+03  0.7818608E-02  0.1164813E+00
         21   -1    0    0  501  502  0.00000000000E+00  0.00000000000E+00  0.64223113747E+03  0.64223113747E+03  0.00000000000E+00 0.  1.
         21   -1    0    0  502  503 -0.00000000000E+00 -0.00000000000E+00 -0.23159188228E+03  0.23159188228E+03  0.00000000000E+00 0.  1.
         -6    2    1    2    0  503 -0.62654875480E+02  0.13747174044E+02  0.59016707102E+03  0.61801421214E+03  0.17184230120E+03 0.  0.
        -24    2    3    3    0    0 -0.88542054119E+02  0.23346800506E+02  0.57222694382E+03  0.58475407068E+03  0.78159321309E+02 0.  0.
          6    2    1    2  501    0  0.62654875480E+02 -0.13747174044E+02 -0.17952781583E+03  0.25580880761E+03  0.17056755604E+03 0.  0.
         24    2    5    5    0    0 -0.27157086999E+01 -0.25899406589E+02 -0.16850031727E+03  0.18824634942E+03  0.79788325050E+02 0.  0.
          5    1    5    5  501    0  0.65370584180E+02  0.12152232545E+02 -0.11027498567E+02  0.67562458189E+02  0.47000000000E+01 0. -1.
        -13    1    6    6    0    0  0.14923930712E+01  0.26677481803E+02 -0.88317038570E+02  0.92270334204E+02  0.00000000000E+00 0.  1.
         14    1    6    6    0    0 -0.42081017711E+01 -0.52576888392E+02 -0.80183278698E+02  0.95976015213E+02  0.00000000000E+00 0. -1.
         -5    1    3    3    0  503  0.25887178639E+02 -0.95996264621E+01  0.17940127201E+02  0.33260141462E+02  0.47000000000E+01 0.  1.
         13    1    4    4    0    0 -0.29289857979E+02  0.40787669001E+02  0.36743775417E+03  0.37085311501E+03  0.00000000000E+00 0. -1.
        -14    1    4    4    0    0 -0.59252196139E+02 -0.17440868495E+02  0.20478918965E+03  0.21390095567E+03  0.00000000000E+00 0.  1.
</event>
<event>
12    1  0.1039610E+000  0.2270001E+03  0.7818608E-02  0.1129035E+00
         21   -1    0    0  501  502  0.00000000000E+00  0.00000000000E+00  0.10177897135E+04  0.10177897135E+04  0.00000000000E+00 0.  1.
         21   -1    0    0  502  503 -0.00000000000E+00 -0.00000000000E+00 -0.76721778181E+02  0.76721778181E+02  0.00000000000E+00 0. -1.
         -6    2    1    2    0  503 -0.25964500060E+02 -0.14561463996E+03  0.79269910777E+03  0.82456105490E+03  0.17219546786E+03 0.  0.
        -24    2    3    3    0    0 -0.52339461522E+02 -0.49532975642E+02  0.57231436899E+03  0.58265436235E+03  0.82154939613E+02 0.  0.
          6    2    1    2  501    0  0.25964500060E+02  0.14561463996E+03  0.14836882758E+03  0.26995043683E+03  0.17024144827E+03 0.  0.
         24    2    5    5    0    0 -0.40905057233E+02  0.10908567854E+03  0.63290703566E+02  0.15564260725E+03  0.81522997152E+02 0.  0.
          5    1    5    5  501    0  0.66869557293E+02  0.36528961414E+02  0.85078124019E+02  0.11430782957E+03  0.47000000000E+01 0. -1.
        -11    1    6    6    0    0  0.23576593017E+02  0.33074074292E+02  0.30205733607E+02  0.50617551021E+02  0.00000000000E+00 0.  1.
         12    1    6    6    0    0 -0.64481650250E+02  0.76011604252E+02  0.33084969958E+02  0.10502505623E+03  0.00000000000E+00 0. -1.
         -5    1    3    3    0  503  0.26374961462E+02 -0.96081664316E+02  0.22038473878E+03  0.24190669255E+03  0.47000000000E+01 0.  1.
         13    1    4    4    0    0 -0.18052572053E+02  0.73503429873E+00  0.19819059826E+02  0.26818478062E+02  0.00000000000E+00 0. -1.
        -14    1    4    4    0    0 -0.34286889469E+02 -0.50268009941E+02  0.55249530916E+03  0.55583588429E+03  0.00000000000E+00 0.  1.
</event>
<event>
12    1  0.1039610E+000  0.1741262E+03  0.7818608E-02  0.1173958E+00
         21   -1    0    0  503  502  0.00000000000E+00  0.00000000000E+00  0.44489748210E+03  0.44489748210E+03  0.00000000000E+00 0. -1.
         21   -1    0    0  501  503 -0.00000000000E+00 -0.00000000000E+00 -0.14329210182E+03  0.14329210182E+03  0.00000000000E+00 0. -1.
          6    2    1    2  501    0 -0.88720362247E+01  0.26206814530E+02  0.36424478729E+03  0.40313922916E+03  0.17053287914E+03 0.  0.
         24    2    3    3    0    0 -0.26317160691E+02 -0.37740966232E+02  0.12757008254E+03  0.15731275195E+03  0.79725795621E+02 0.  0.
         -6    2    1    2    0  502  0.88720362247E+01 -0.26206814530E+02 -0.62639407005E+02  0.18505035476E+03  0.17191401435E+03 0.  0.
        -24    2    5    5    0    0  0.32100740904E+02 -0.18447263779E+02 -0.10422238377E+03  0.13656306461E+03  0.80102473314E+02 0.  0.
          5    1    3    3  501    0  0.17445124466E+02  0.63947780761E+02  0.23667470474E+03  0.24582647721E+03  0.47000000000E+01 0. -1.
        -13    1    4    4    0    0 -0.28667166960E+02 -0.15034236318E+02  0.51438662420E+01  0.32776425722E+02  0.00000000000E+00 0.  1.
         14    1    4    4    0    0  0.23500062691E+01 -0.22706729914E+02  0.12242621630E+03  0.12453632623E+03  0.00000000000E+00 0. -1.
         -5    1    5    5    0  502 -0.23228704679E+02 -0.77595507511E+01  0.41582976762E+02  0.48487290142E+02  0.47000000000E+01 0.  1.
         11    1    6    6    0    0 -0.10211759153E+02 -0.37623628935E+02 -0.64857413723E+02  0.75672330439E+02  0.00000000000E+00 0. -1.
        -12    1    6    6    0    0  0.42312500057E+02  0.19176365156E+02 -0.39364970044E+02  0.60890734174E+02  0.00000000000E+00 0.  1.
</event>
<event>
12    1  0.1039610E+000  0.2428442E+03  0.7818608E-02  0.1118036E+00
         21   -1    0    0  503  502  0.00000000000E+00  0.00000000000E+00  0.12569129465E+03  0.12569129465E+03  0.00000000000E+00 0. -1.
         21   -1    0    0  501  503 -0.00000000000E+00 -0.00000000000E+00 -0.46774183907E+03  0.46774183907E+03  0.00000000000E+00 0. -1.
          6    2    1    2  501    0 -0.19138539500E+02  0.16926589677E+03 -0.17170001440E+03  0.29741246928E+03  0.17307817433E+03 0.  0.
         24    2    3    3    0    0  0.32543400795E+02  0.17024892369E+03 -0.13482200150E+03  0.23374091260E+03  0.80087909074E+02 0.  0.
         -6    2    1    2    0  502  0.19138539500E+02 -0.16926589677E+03 -0.17035053002E+03  0.29602066445E+03  0.17202239156E+03 0.  0.
        -24    2    5    5    0    0  0.78165229366E+02 -0.11703842353E+03 -0.13187087771E+03  0.20818768249E+03  0.78386140927E+02 0.  0.
          5    1    3    3  501    0 -0.51681940295E+02 -0.98302691518E+00 -0.36878012895E+02  0.63671556677E+02  0.47000000000E+01 0. -1.
        -13    1    4    4    0    0  0.13381606872E+02  0.27938172707E+02  0.71707749464E+01  0.31796680802E+02  0.00000000000E+00 0.  1.
         14    1    4    4    0    0  0.19161793923E+02  0.14231075098E+03 -0.14199277645E+03  0.20194423180E+03  0.00000000000E+00 0. -1.
         -5    1    5    5    0  502 -0.59026689866E+02 -0.52227473241E+02 -0.38479652312E+02  0.87832981959E+02  0.47000000000E+01 0.  1.
         11    1    6    6    0    0  0.25920782240E+02 -0.10062975162E+02 -0.67154260236E+02  0.72683182985E+02  0.00000000000E+00 0. -1.
        -12    1    6    6    0    0  0.52244447126E+02 -0.10697544837E+03 -0.64716617471E+02  0.13550449951E+03  0.00000000000E+00 0.  1.
</event>
<event>
12    1  0.1039610E+000  0.1769440E+03  0.7818608E-02  0.1171059E+00
         21   -1    0    0  501  502  0.00000000000E+00  0.00000000000E+00  0.40663366217E+03  0.40663366217E+03  0.00000000000E+00 0.  1.
         21   -1    0    0  502  503 -0.00000000000E+00 -0.00000000000E+00 -0.76642953147E+02  0.76642953147E+02  0.00000000000E+00 0.  1.
         -6    2    1    2    0  503  0.34559277726E+02 -0.13216844277E+02  0.15527803927E+03  0.23461282302E+03  0.17193858960E+03 0.  0.
        -24    2    3    3    0    0 -0.85130148364E+01 -0.89991522195E+01  0.17402380389E+03  0.18721551293E+03  0.67911028534E+02 0.  0.
          6    2    1    2  501    0 -0.34559277726E+02  0.13216844277E+02  0.17471266975E+03  0.24866379230E+03  0.17303218192E+03 0.  0.
         24    2    5    5    0    0  0.48061495625E+02  0.89270283373E+01  0.97352088607E+02  0.13530002284E+03  0.80243802431E+02 0.  0.
          5    1    5    5  501    0 -0.82620773351E+02  0.42898159400E+01  0.77360581144E+02  0.11336376945E+03  0.47000000000E+01 0. -1.
        -13    1    6    6    0    0  0.29987873112E+02  0.41842180554E+02  0.34122805141E+02  0.61760881130E+02  0.00000000000E+00 0.  1.
         14    1    6    6    0    0  0.18073622513E+02 -0.32915152217E+02  0.63229283466E+02  0.73539141713E+02  0.00000000000E+00 0. -1.
         -5    1    3    3    0  503  0.43072292563E+02 -0.42176920577E+01 -0.18745764620E+02  0.47397310093E+02  0.47000000000E+01 0.  1.
         11    1    4    4    0    0  0.75696519343E+01  0.20646259993E+02  0.20611794904E+02  0.30139903305E+02  0.00000000000E+00 0. -1.
        -12    1    4    4    0    0 -0.16082666771E+02 -0.29645412212E+02  0.15341200899E+03  0.15707560962E+03  0.00000000000E+00 0.  1.
</event>
<event>
12    1  0.1039610E+000  0.1946275E+03  0.7818608E-02  0.1154780E+00
         21   -1    0    0  503  502  0.00000000000E+00  0.00000000000E+00  0.20359243995E+03  0.20359243995E+03  0.00000000000E+00 0.  1.
         21   -1    0    0  501  503 -0.00000000000E+00 -0.00000000000E+00 -0.18648001051E+03  0.18648001051E+03  0.00000000000E+00 0.  1.
          6    2    1    2  501    0 -0.54510168290E+02  0.68937083140E+02  0.30148803977E+02  0.19694879012E+03  0.17365539344E+03 0.  0.
         24    2    3    3    0    0 -0.39790959607E+02  0.10745202757E+03  0.53633660429E+02  0.14926562190E+03  0.79211095533E+02 0.  0.
         -6    2    1    2    0  502  0.54510168290E+02 -0.68937083140E+02 -0.13036374533E+02  0.19312366034E+03  0.17147338349E+03 0.  0.
        -24    2    5    5    0    0 -0.29747263021E+01 -0.12539038646E+02 -0.63385273924E+02  0.98032366321E+02  0.73665293113E+02 0.  0.
          5    1    3    3  501    0 -0.14719208683E+02 -0.38514944430E+02 -0.23484856452E+02  0.47683168217E+02  0.47000000000E+01 0. -1.
        -11    1    4    4    0    0 -0.35726474860E+02  0.83211289156E+02  0.74312682071E+02  0.11714467280E+03  0.00000000000E+00 0.  1.
         12    1    4    4    0    0 -0.40644847467E+01  0.24240738415E+02 -0.20679021643E+02  0.32120949102E+02  0.00000000000E+00 0. -1.
         -5    1    5    5    0  502  0.57484894592E+02 -0.56398044495E+02  0.50348899392E+02  0.95091294023E+02  0.47000000000E+01 0.  1.
         11    1    6    6    0    0  0.11686335805E+02 -0.34244002785E+02 -0.84268587394E+01  0.37151502251E+02  0.00000000000E+00 0. -1.
        -12    1    6    6    0    0 -0.14661062107E+02  0.21704964139E+02 -0.54958415185E+02  0.60880864071E+02  0.00000000000E+00 0.  1.
</event>
<event>
12    1  0.1039610E+000  0.2624503E+03  0.7818608E-02  0.1105733E+00
         21   -1    0    0  501  502  0.00000000000E+00  0.00000000000E+00  0.98656672013E+02  0.98656672013E+02  0.00000000000E+00 0. -1.
         21   -1    0    0  502  503 -0.00000000000E+00 -0.00000000000E+00 -0.94713608599E+03  0.94713608599E+03  0.00000000000E+00 0. -1.
         -6    2    1    2    0  503  0.19459352395E+03  0.37256302266E+02 -0.15585719480E+03  0.30524024250E+03  0.17212050676E+03 0.  0.
        -24    2    3    3    0    0  0.16754504592E+03  0.51133674950E+02 -0.55024929797E+02  0.19981995365E+03  0.78830678358E+02 0.  0.
          6    2    1    2  501    0 -0.19459352395E+03 -0.37256302266E+02 -0.69262221917E+03  0.74055251550E+03  0.17157452636E+03 0.  0.
         24    2    5    5    0    0 -0.11798646238E+03  0.22158315838E+02 -0.27177775222E+03  0.30866029041E+03  0.83643481563E+02 0.  0.
          5    1    5    5  501    0 -0.76607061568E+02 -0.59414618104E+02 -0.42084446695E+03  0.43189222509E+03  0.47000000000E+01 0. -1.
        -11    1    6    6    0    0 -0.54800690565E+02 -0.28299672216E+02 -0.83989762035E+02  0.10420300984E+03  0.00000000000E+00 0.  1.
         12    1    6    6    0    0 -0.63185771820E+02  0.50457988054E+02 -0.18778799019E+03  0.20445728057E+03  0.00000000000E+00 0. -1.
         -5    1    3    3    0  503  0.27048478036E+02 -0.13877372684E+02 -0.10083226500E+03  0.10542028885E+03  0.47000000000E+01 0.  1.
         11    1    4    4    0    0  0.14382824389E+03  0.11757342699E+02 -0.29680003667E+02  0.14732854939E+03  0.00000000000E+00 0. -1.
        -12    1    4    4    0    0  0.23716802024E+02  0.39376332251E+02 -0.25344926130E+02  0.52491404251E+02  0.00000000000E+00 0.  1.
</event>
<event>
12    1  0.1039610E+000  0.2628736E+03  0.7818608E-02  0.1105452E+00
         21   -1    0    0  503  502  0.00000000000E+00  0.00000000000E+00  0.28997311899E+03  0.28997311899E+03  0.00000000000E+00 0.  1.
         21   -1    0    0  501  503 -0.00000000000E+00 -0.00000000000E+00 -0.26338405480E+03  0.26338405480E+03  0.00000000000E+00 0.  1.
          6    2    1    2  501    0 -0.14806178605E+03 -0.13226629790E+03  0.98913709031E+02  0.28086732827E+03  0.17229587403E+03 0.  0.
         24    2    3    3    0    0 -0.12575194429E+02 -0.14283483442E+02  0.45575383538E+02  0.93400990002E+02  0.79274686594E+02 0.  0.
         -6    2    1    2    0  502  0.14806178605E+03  0.13226629790E+03 -0.72324644841E+02  0.27248984551E+03  0.17205579212E+03 0.  0.
        -24    2    5    5    0    0  0.12770120962E+03  0.72061288197E+02 -0.10989990040E+03  0.19850886081E+03  0.76337091360E+02 0.  0.
          5    1    3    3  501    0 -0.13548659163E+03 -0.11798281446E+03  0.53338325493E+02  0.18746633827E+03  0.47000000000E+01 0. -1.
        -13    1    4    4    0    0  0.13955025092E+02  0.16622323376E+02 -0.10487039064E+02  0.24104405159E+02  0.00000000000E+00 0.  1.
         14    1    4    4    0    0 -0.26530219521E+02 -0.30905806818E+02  0.56062422602E+02  0.69296584843E+02  0.00000000000E+00 0. -1.
         -5    1    5    5    0  502  0.20360576435E+02  0.60205009706E+02  0.37575255558E+02  0.73980984697E+02  0.47000000000E+01 0.  1.
         13    1    6    6    0    0  0.40584395512E+02  0.24340986037E+02 -0.83093307389E+02  0.95624654212E+02  0.00000000000E+00 0. -1.
        -14    1    6    6    0    0  0.87116814107E+02  0.47720302159E+02 -0.26806593010E+02  0.10288420660E+03  0.00000000000E+00 0.  1.
</event>
<event>
12    1  0.1039610E+000  0.4193805E+03  0.7818608E-02  0.1037277E+00
         21   -1    0    0  501  502  0.00000000000E+00  0.00000000000E+00  0.60728124518E+03  0.60728124518E+03  0.00000000000E+00 0. -1.
         21   -1    0    0  502  503 -0.00000000000E+00 -0.00000000000E+00 -0.31256735124E+03  0.31256735124E+03  0.00000000000E+00 0.  1.
         -6    2    1    2    0  503 -0.29505455755E+03 -0.24307488850E+03  0.27216969745E+03  0.49986260548E+03  0.17217342069E+03 0.  0.
        -24    2    3    3    0    0 -0.20709082849E+03 -0.84687522436E+02  0.16785102801E+03  0.29074864097E+03  0.79386503380E+02 0.  0.
          6    2    1    2  501    0  0.29505455755E+03  0.24307488850E+03  0.22544196488E+02  0.41998599093E+03  0.17244534912E+03 0.  0.
         24    2    5    5    0    0  0.10416840403E+03  0.61054408806E+02 -0.33326551578E+02  0.15033323437E+03  0.83130770971E+02 0.  0.
          5    1    5    5  501    0  0.19088615352E+03  0.18202047970E+03  0.55870748066E+02  0.26965275656E+03  0.47000000000E+01 0. -1.
        -11    1    6    6    0    0  0.11640806518E+03  0.59113824435E+02 -0.19906407031E+02  0.13206644888E+03  0.00000000000E+00 0.  1.
         12    1    6    6    0    0 -0.12239661144E+02  0.19405843711E+01 -0.13420144547E+02  0.18266785494E+02  0.00000000000E+00 0. -1.
         -5    1    3    3    0  503 -0.87963729058E+02 -0.15838736607E+03  0.10431866944E+03  0.20911396451E+03  0.47000000000E+01 0.  1.
         11    1    4    4    0    0 -0.10989781024E+03 -0.64882482477E+02  0.50897467717E+02  0.13739657000E+03  0.00000000000E+00 0. -1.
        -12    1    4    4    0    0 -0.97193018247E+02 -0.19805039959E+02  0.11695356029E+03  0.15335207096E+03  0.00000000000E+00 0.  1.
</event>
<event>
12    1  0.1039610E+000  0.1893077E+03  0.7818608E-02  0.1159126E+00
         21   -1    0    0  503  502  0.00000000000E+00  0.00000000000E+00  0.14771109063E+03  0.14771109063E+03  0.00000000000E+00 0.  1.
         21   -1    0    0  501  503 -0.00000000000E+00 -0.00000000000E+00 -0.25462203081E+03  0.25462203081E+03  0.00000000000E+00 0.  1.
          6    2    1    2  501    0 -0.71731253179E+02  0.37827650044E+02 -0.93995105645E+01  0.18954092237E+03  0.17105878131E+03 0.  0.
         24    2    3    3    0    0  0.10600141957E+02  0.61779517178E+02  0.62236982956E+01  0.10225790444E+03  0.80553540252E+02 0.  0.
         -6    2    1    2    0  502  0.71731253179E+02 -0.37827650044E+02 -0.97511429614E+02  0.21279219907E+03  0.17086760164E+03 0.  0.
        -24    2    5    5    0    0  0.67391410459E+02  0.81908043236E+01 -0.12246260211E+03  0.16005527286E+03  0.77536507381E+02 0.  0.
          5    1    3    3  501    0 -0.82331395137E+02 -0.23951867134E+02 -0.15623208860E+02  0.87283017933E+02  0.47000000000E+01 0. -1.
        -13    1    4    4    0    0 -0.35022556468E+02  0.26474000941E+02  0.75883001737E+01  0.44553725848E+02  0.00000000000E+00 0.  1.
         14    1    4    4    0    0  0.45622698425E+02  0.35305516237E+02 -0.13646018781E+01  0.57704178589E+02  0.00000000000E+00 0. -1.
         -5    1    5    5    0  502  0.43398427206E+01 -0.46018454368E+02  0.24951172495E+02  0.52736926210E+02  0.47000000000E+01 0.  1.
         11    1    6    6    0    0  0.51901355790E+00 -0.90260769683E+01  0.82400595961E+01  0.12232662125E+02  0.00000000000E+00 0. -1.
        -12    1    6    6    0    0  0.66872396901E+02  0.17216881292E+02 -0.13070266170E+03  0.14782261074E+03  0.00000000000E+00 0.  1.
</event>
<event>
12    1  0.1039610E+000  0.2026510E+03  0.7818608E-02  0.1147625E+00
         21   -1    0    0  503  502  0.00000000000E+00  0.00000000000E+00  0.36702227329E+03  0.36702227329E+03  0.00000000000E+00 0. -1.
         21   -1    0    0  501  503 -0.00000000000E+00 -0.00000000000E+00 -0.11481259953E+03  0.11481259953E+03  0.00000000000E+00 0. -1.
          6    2    1    2  501    0 -0.70089646377E+02  0.83163147071E+02  0.85767872643E+02  0.21959394713E+03  0.17040160234E+03 0.  0.
         24    2    3    3    0    0 -0.99874070397E+02  0.36995132047E+02  0.95643047756E+02  0.16357424873E+03  0.79154737896E+02 0.  0.
         -6    2    1    2    0  502  0.70089646377E+02 -0.83163147071E+02  0.16644180111E+03  0.26224092569E+03  0.17099345715E+03 0.  0.
        -24    2    5    5    0    0  0.11268896354E+03 -0.78723910401E+02  0.13483486699E+03  0.20880407577E+03  0.80761650113E+02 0.  0.
          5    1    3    3  501    0  0.29784424020E+02  0.46168015023E+02 -0.98751751129E+01  0.56019698401E+02  0.47000000000E+01 0. -1.
        -13    1    4    4    0    0 -0.79596614058E+02  0.37548039222E+02  0.10838711312E+03  0.13961820265E+03  0.00000000000E+00 0.  1.
         14    1    4    4    0    0 -0.20277456339E+02 -0.55290717454E+00 -0.12744065369E+02  0.23956046085E+02  0.00000000000E+00 0. -1.
         -5    1    5    5    0  502 -0.42599317160E+02 -0.44392366694E+01  0.31606934116E+02  0.53436849916E+02  0.47000000000E+01 0.  1.
         13    1    6    6    0    0 -0.11319786159E+02 -0.64547202454E+01  0.18972771373E+01  0.13168167400E+02  0.00000000000E+00 0. -1.
        -14    1    6    6    0    0  0.12400874970E+03 -0.72269190156E+02  0.13293758986E+03  0.19563590837E+03  0.00000000000E+00 0.  1.
</event>
<event>
12    1  0.1039610E+000  0.2910427E+03  0.7818608E-02  0.1089863E+00
         21   -1    0    0  501  502  0.00000000000E+00  0.00000000000E+00  0.14070030049E+03  0.14070030049E+03  0.00000000000E+00 0.  1.
         21   -1    0    0  502  503 -0.00000000000E+00 -0.00000000000E+00 -0.62971284091E+03  0.62971284091E+03  0.00000000000E+00 0. -1.
         -6    2    1    2    0  503 -0.21763987229E+03  0.85424816338E+02 -0.32640191907E+03  0.43702440417E+03  0.17259085668E+03 0.  0.
        -24    2    3    3    0    0 -0.23496807018E+03  0.59849134498E+02 -0.26283939376E+03  0.36619597366E+03  0.78886192151E+02 0.  0.
          6    2    1    2  501    0  0.21763987229E+03 -0.85424816338E+02 -0.16261062135E+03  0.33338873723E+03  0.17332432801E+03 0.  0.
         24    2    5    5    0    0  0.19590608927E+03 -0.12461502068E+03 -0.12826257925E+03  0.27673092720E+03  0.78870892240E+02 0.  0.
          5    1    5    5  501    0  0.21733783017E+02  0.39190204342E+02 -0.34348042098E+02  0.56657810023E+02  0.47000000000E+01 0. -1.
        -13    1    6    6    0    0  0.50660774490E+02 -0.10524466793E+02 -0.61422382435E+02  0.80311814431E+02  0.00000000000E+00 0.  1.
         14    1    6    6    0    0  0.14524531478E+03 -0.11409055389E+03 -0.66840196815E+02  0.19641911277E+03  0.00000000000E+00 0. -1.
         -5    1    3    3    0  503  0.17328197889E+02  0.25575681840E+02 -0.63562525315E+02  0.70828430507E+02  0.47000000000E+01 0.  1.
         13    1    4    4    0    0 -0.11942035619E+03 -0.10092583317E+02 -0.12777007859E+03  0.17518069156E+03  0.00000000000E+00 0. -1.
        -14    1    4    4    0    0 -0.11554771398E+03  0.69941717815E+02 -0.13506931517E+03  0.19101528211E+03  0.00000000000E+00 0.  1.
</event>
<event>
12    1  0.1039610E+000  0.4415753E+03  0.7818608E-02  0.1030272E+00
         21   -1    0    0  503  502  0.00000000000E+00  0.00000000000E+00  0.19278440826E+03  0.19278440826E+03  0.00000000000E+00 0.  1.
         21   -1    0    0  501  503 -0.00000000000E+00 -0.00000000000E+00 -0.10727757928E+04  0.10727757928E+04  0.00000000000E+00 0.  1.
          6    2    1    2  501    0  0.22107902447E+03 -0.34128355647E+03 -0.28837113758E+03  0.52731685685E+03  0.17191496024E+03 0.  0.
         24    2    3    3    0    0  0.19691139491E+03 -0.18007043185E+03 -0.17144186820E+03  0.32664725301E+03  0.78145094887E+02 0.  0.
         -6    2    1    2    0  502 -0.22107902447E+03  0.34128355647E+03 -0.59162024695E+03  0.73824334420E+03  0.17215782782E+03 0.  0.
        -24    2    5    5    0    0 -0.12332312710E+03  0.25512484323E+03 -0.49461989920E+03  0.57572966231E+03  0.80737352379E+02 0.  0.
          5    1    3    3  501    0  0.24167629563E+02 -0.16121312462E+03 -0.11692926939E+03  0.20066960384E+03  0.47000000000E+01 0. -1.
        -11    1    4    4    0    0  0.18934879871E+03 -0.14730364632E+03 -0.16793441563E+03  0.29283664345E+03  0.00000000000E+00 0.  1.
         12    1    4    4    0    0  0.75625961978E+01 -0.32766785529E+02 -0.35074525633E+01  0.33810609558E+02  0.00000000000E+00 0. -1.
         -5    1    5    5    0  502 -0.97755897378E+02  0.86158713237E+02 -0.97000347754E+02  0.16251368190E+03  0.47000000000E+01 0.  1.
         13    1    6    6    0    0 -0.12363401902E+03  0.19668122282E+03 -0.35368576058E+03  0.42315776173E+03  0.00000000000E+00 0. -1.
        -14    1    6    6    0    0  0.31089192508E+00  0.58443620411E+02 -0.14093413861E+03  0.15257190058E+03  0.00000000000E+00 0.  1.
</event>
<event>
12    1  0.1039610E+000  0.4229025E+03  0.7818608E-02  0.1036383E+00
         21   -1    0    0  501  502  0.00000000000E+00  0.00000000000E+00  0.23823612817E+03  0.23823612817E+03  0.00000000000E+00 0.  1.
         21   -1    0    0  502  503 -0.00000000000E+00 -0.00000000000E+00 -0.75041794309E+03  0.75041794309E+03  0.00000000000E+00 0.  1.
         -6    2    1    2    0  503  0.21207991744E+03 -0.31842254623E+03 -0.29868759639E+03  0.51774589272E+03  0.18021021021E+03 0.  0.
        -24    2    3    3    0    0  0.10619142245E+03 -0.11178407544E+03 -0.55165675297E+02  0.18123906213E+03  0.77666261573E+02 0.  0.
          6    2    1    2  501    0 -0.21207991744E+03  0.31842254623E+03 -0.21349421852E+03  0.47090817854E+03  0.17263812424E+03 0.  0.
         24    2    5    5    0    0 -0.37747270746E+02  0.73846459920E+02 -0.28247516140E+02  0.11799492511E+03  0.79036220134E+02 0.  0.
          5    1    5    5  501    0 -0.17433264669E+03  0.24457608631E+03 -0.18524670238E+03  0.35291325342E+03  0.47000000000E+01 0. -1.
        -13    1    6    6    0    0 -0.34011045530E+02 -0.26385058395E+01  0.50639752175E+01  0.34487052296E+02  0.00000000000E+00 0.  1.
         14    1    6    6    0    0 -0.37362252166E+01  0.76484965759E+02 -0.33311491357E+02  0.83507872818E+02  0.00000000000E+00 0. -1.
         -5    1    3    3    0  503  0.10588849499E+03 -0.20663847079E+03 -0.24352192109E+03  0.33650683059E+03  0.47000000000E+01 0.  1.
         13    1    4    4    0    0  0.51297945334E+02 -0.74486869985E+02 -0.68615134976E+02  0.11352448962E+03  0.00000000000E+00 0. -1.
        -14    1    4    4    0    0  0.54893477115E+02 -0.37297205456E+02  0.13449459678E+02  0.67714572510E+02  0.00000000000E+00 0.  1.
</event>
<event>
12    1  0.1039610E+000  0.1902259E+03  0.7818608E-02  0.1158330E+00
         21   -1    0    0  501  502  0.00000000000E+00  0.00000000000E+00  0.42109660876E+02  0.42109660876E+02  0.00000000000E+00 0.  1.
         21   -1    0    0  502  503 -0.00000000000E+00 -0.00000000000E+00 -0.12553130568E+04  0.12553130568E+04  0.00000000000E+00 0.  1.
         -6    2    1    2    0  503  0.19982233031E+02 -0.77802872986E+02 -0.97195985853E+03  0.99039985225E+03  0.17243353522E+03 0.  0.
        -24    2    3    3    0    0  0.77910544400E+02 -0.48160010686E+02 -0.54668173834E+03  0.56014648730E+03  0.80707649209E+02 0.  0.
          6    2    1    2  501    0 -0.19982233031E+02  0.77802872986E+02 -0.24124353736E+03  0.30702286538E+03  0.17208143093E+03 0.  0.
         24    2    5    5    0    0 -0.67996917172E+02  0.16167302352E+02 -0.14255165037E+03  0.18106044234E+03  0.87045668181E+02 0.  0.
          5    1    5    5  501    0  0.48014684140E+02  0.61635570634E+02 -0.98691886989E+02  0.12596242304E+03  0.47000000000E+01 0. -1.
        -13    1    6    6    0    0 -0.71580679827E+02 -0.20757677797E+02 -0.94386981309E+02  0.12026461305E+03  0.00000000000E+00 0.  1.
         14    1    6    6    0    0  0.35837626554E+01  0.36924980148E+02 -0.48164669060E+02  0.60795829293E+02  0.00000000000E+00 0. -1.
         -5    1    3    3    0  503 -0.57928311368E+02 -0.29642862300E+02 -0.42527812018E+03  0.43025336495E+03  0.47000000000E+01 0.  1.
         11    1    4    4    0    0  0.35621687266E+02 -0.26787681679E+02 -0.45276965322E+03  0.45495806771E+03  0.00000000000E+00 0. -1.
        -12    1    4    4    0    0  0.42288857134E+02 -0.21372329007E+02 -0.93912085119E+02  0.10518841959E+03  0.00000000000E+00 0.  1.
</event>
<event>
12    1  0.1039610E+000  0.3176177E+03  0.7818608E-02  0.1076890E+00
         21   -1    0    0  501  502  0.00000000000E+00  0.00000000000E+00  0.49240318200E+03  0.49240318200E+03  0.00000000000E+00 0. -1.
         21   -1    0    0  502  503 -0.00000000000E+00 -0.00000000000E+00 -0.51165271731E+03  0.51165271731E+03  0.00000000000E+00 0.  1.
         -6    2    1    2    0  503  0.25042373386E+03 -0.88399298593E+02 -0.39883743383E+03  0.50911347780E+03  0.17204287893E+03 0.  0.
        -24    2    3    3    0    0  0.10446861815E+03 -0.89676531026E+02 -0.14045701400E+03  0.21231883757E+03  0.79972142705E+02 0.  0.
          6    2    1    2  501    0 -0.25042373386E+03  0.88399298593E+02  0.37958789851E+03  0.49494242150E+03  0.17422555908E+03 0.  0.
         24    2    5    5    0    0 -0.11836826841E+03  0.14528080457E+02  0.92395023287E+02  0.17029270196E+03  0.78997796946E+02 0.  0.
          5    1    5    5  501    0 -0.13205546544E+03  0.73871218136E+02  0.28719287523E+03  0.32464971955E+03  0.47000000000E+01 0. -1.
        -13    1    6    6    0    0 -0.92997270768E+02  0.38955425805E+02  0.89731294950E+02  0.13497304495E+03  0.00000000000E+00 0.  1.
         14    1    6    6    0    0 -0.25370997644E+02 -0.24427345348E+02  0.26637283373E+01  0.35319657004E+02  0.00000000000E+00 0. -1.
         -5    1    3    3    0  503  0.14595511570E+03  0.12772324325E+01 -0.25838041982E+03  0.29679464023E+03  0.47000000000E+01 0.  1.
         13    1    4    4    0    0  0.94582857724E+02 -0.31030141665E+02 -0.82684075590E+02  0.12940418472E+03  0.00000000000E+00 0. -1.
        -14    1    4    4    0    0  0.98857604291E+01 -0.58646389361E+02 -0.57772938413E+02  0.82914652849E+02  0.00000000000E+00 0.  1.
</event>
<event>
12    1  0.1039610E+000  0.1985400E+03  0.7818608E-02  0.1151559E+00
         21   -1    0    0  503  502  0.00000000000E+00  0.00000000000E+00  0.48284690840E+03  0.48284690840E+03  0.00000000000E+00 0.  1.
         21   -1    0    0  501  503 -0.00000000000E+00 -0.00000000000E+00 -0.81036621189E+02  0.81036621189E+02  0.00000000000E+00 0.  1.
          6    2    1    2  501    0  0.71575672406E+02 -0.53681711116E+02  0.22195686249E+03  0.29599288269E+03  0.17418993888E+03 0.  0.
         24    2    3    3    0    0  0.29800783922E+02 -0.54487845361E+02  0.37226352420E+02  0.10653776264E+03  0.78150377733E+02 0.  0.
         -6    2    1    2    0  502 -0.71575672406E+02  0.53681711116E+02  0.17985342471E+03  0.26789064690E+03  0.17723809219E+03 0.  0.
        -24    2    5    5    0    0  0.24995819967E+02 -0.80371235724E+01  0.67713700254E+02  0.10747657178E+03  0.79225512984E+02 0.  0.
          5    1    3    3  501    0  0.41774888484E+02  0.80613424443E+00  0.18473051008E+03  0.18945512005E+03  0.47000000000E+01 0. -1.
        -11    1    4    4    0    0  0.38946408995E+01  0.16767363955E+02  0.24061408102E+02  0.29584862372E+02  0.00000000000E+00 0.  1.
         12    1    4    4    0    0  0.25906143022E+02 -0.71255209316E+02  0.13164944318E+02  0.76952900269E+02  0.00000000000E+00 0. -1.
         -5    1    5    5    0  502 -0.96571492373E+02  0.61718834689E+02  0.11213972446E+03  0.16041407512E+03  0.47000000000E+01 0.  1.
         13    1    6    6    0    0  0.22414406241E+02  0.24355422562E+02  0.67276795348E+02  0.74978392938E+02  0.00000000000E+00 0. -1.
        -14    1    6    6    0    0  0.25814137251E+01 -0.32392546135E+02  0.43690490618E+00  0.32498178838E+02  0.00000000000E+00 0.  1.
</event>
<event>
12    1  0.1039610E+000  0.3759307E+03  0.7818608E-02  0.1052693E+00
         21   -1    0    0  503  502  0.00000000000E+00  0.00000000000E+00  0.74739669595E+03  0.74739669595E+03  0.00000000000E+00 0.  1.
         21   -1    0    0  501  503 -0.00000000000E+00 -0.00000000000E+00 -0.18868015150E+03  0.18868015150E+03  0.00000000000E+00 0. -1.
          6    2    1    2  501    0  0.32026535525E+03  0.97488284464E+02  0.31074347802E+03  0.48572748926E+03  0.16521447063E+03 0.  0.
         24    2    3    3    0    0  0.20228946875E+03 -0.44167722802E+01  0.18533377187E+03  0.28559594556E+03  0.79220578639E+02 0.  0.
         -6    2    1    2    0  502 -0.32026535525E+03 -0.97488284464E+02  0.24797306644E+03  0.45034935820E+03  0.17102642886E+03 0.  0.
        -24    2    5    5    0    0 -0.17976873339E+03 -0.11288899085E+03  0.19715377986E+03  0.30007902713E+03  0.78211814001E+02 0.  0.
          5    1    3    3  501    0  0.11797588650E+03  0.10190505674E+03  0.12540970615E+03  0.20013154369E+03  0.47000000000E+01 0. -1.
        -11    1    4    4    0    0  0.13158478565E+02  0.41927973195E+01  0.52581432897E+02  0.54364806566E+02  0.00000000000E+00 0.  1.
         12    1    4    4    0    0  0.18913099019E+03 -0.86095695996E+01  0.13275233898E+03  0.23123113900E+03  0.00000000000E+00 0. -1.
         -5    1    5    5    0  502 -0.14049662186E+03  0.15400706388E+02  0.50819286580E+02  0.15027033107E+03  0.47000000000E+01 0.  1.
         13    1    6    6    0    0 -0.18013888222E+03 -0.86647744684E+02  0.17687747209E+03  0.26691475920E+03  0.00000000000E+00 0. -1.
        -14    1    6    6    0    0  0.37014882550E+00 -0.26241246168E+02  0.20276307763E+02  0.33164267926E+02  0.00000000000E+00 0.  1.
</event>
<event>
12    1  0.1039610E+000  0.1883898E+03  0.7818608E-02  0.1160256E+00
         21   -1    0    0  501  502  0.00000000000E+00  0.00000000000E+00  0.94819684638E+03  0.94819684638E+03  0.00000000000E+00 0.  1.
         21   -1    0    0  502  503 -0.00000000000E+00 -0.00000000000E+00 -0.50108180323E+02  0.50108180323E+02  0.00000000000E+00 0.  1.
         -6    2    1    2    0  503  0.46938590672E+02  0.62026913937E+02  0.19640789333E+03  0.27215214158E+03  0.17158134590E+03 0.  0.
        -24    2    3    3    0    0  0.69646064649E+02  0.43267856413E+02  0.21044328250E+03  0.23918831652E+03  0.78752738955E+02 0.  0.
          6    2    1    2  501    0 -0.46938590672E+02 -0.62026913937E+02  0.70168077273E+03  0.72615288512E+03  0.16997510525E+03 0.  0.
         24    2    5    5    0    0 -0.59318670424E+01 -0.72413594302E+02  0.65074764994E+03  0.65977738129E+03  0.80961554280E+02 0.  0.
          5    1    5    5  501    0 -0.41006723629E+02  0.10386680365E+02  0.50933122789E+02  0.66375503831E+02  0.47000000000E+01 0. -1.
        -11    1    6    6    0    0  0.24038621364E+01 -0.23948429509E+02  0.51212621728E+03  0.51269149423E+03  0.00000000000E+00 0.  1.
         12    1    6    6    0    0 -0.83357291788E+01 -0.48465164794E+02  0.13862143266E+03  0.14708588706E+03  0.00000000000E+00 0. -1.
         -5    1    3    3    0  503 -0.22707473977E+02  0.18759057524E+02 -0.14035389168E+02  0.32963825062E+02  0.47000000000E+01 0.  1.
         13    1    4    4    0    0  0.58885245534E+02  0.33205214629E+02  0.67652556463E+02  0.95639567210E+02  0.00000000000E+00 0. -1.
        -14    1    4    4    0    0  0.10760819115E+02  0.10062641784E+02  0.14279072603E+03  0.14354874931E+03  0.00000000000E+00 0.  1.
</event>
<event>
12    1  0.1039610E+000  0.2199736E+03  0.7818608E-02  0.1134056E+00
         21   -1    0    0  503  502  0.00000000000E+00  0.00000000000E+00  0.44588367735E+02  0.44588367735E+02  0.00000000000E+00 0.  1.
         21   -1    0    0  501  503 -0.00000000000E+00 -0.00000000000E+00 -0.20251209909E+04  0.20251209909E+04  0.00000000000E+00 0.  1.
          6    2    1    2  501    0 -0.13649761957E+03  0.11716086087E+02 -0.16958000423E+04  0.17099024184E+04  0.17105446481E+03 0.  0.
         24    2    3    3    0    0 -0.48244636567E+02  0.74825075129E+02 -0.72094142288E+03  0.72901366248E+03  0.61465828128E+02 0.  0.
         -6    2    1    2    0  502  0.13649761957E+03 -0.11716086087E+02 -0.28473258082E+03  0.35980694026E+03  0.17210323894E+03 0.  0.
        -24    2    5    5    0    0  0.14542142317E+03  0.28106895631E+02 -0.17593272305E+03  0.24350989303E+03  0.80045968455E+02 0.  0.
          5    1    3    3  501    0 -0.88252983008E+02 -0.63108989042E+02 -0.97485861945E+03  0.98088875589E+03  0.47000000000E+01 0. -1.
        -11    1    4    4    0    0 -0.37582347064E+01  0.61480589043E+02 -0.42967184056E+03  0.43406437049E+03  0.00000000000E+00 0.  1.
         12    1    4    4    0    0 -0.44486401860E+02  0.13344486086E+02 -0.29126958232E+03  0.29494929199E+03  0.00000000000E+00 0. -1.
         -5    1    5    5    0  502 -0.89238035924E+01 -0.39822981718E+02 -0.10879985776E+03  0.11629704722E+03  0.47000000000E+01 0.  1.
         13    1    6    6    0    0  0.91032335297E+02 -0.22819636486E+02 -0.97801440225E+02  0.13554609396E+03  0.00000000000E+00 0. -1.
        -14    1    6    6    0    0  0.54389087870E+02  0.50926532117E+02 -0.78131282830E+02  0.10796379907E+03  0.00000000000E+00 0.  1.
</event>
<event>
12    1  0.1039610E+000  0.1780582E+03  0.7818608E-02  0.1170166E+00
         21   -1    0    0  503  502  0.00000000000E+00  0.00000000000E+00  0.52690013045E+02  0.52690013045E+02  0.00000000000E+00 0. -1.
         21   -1    0    0  501  503 -0.00000000000E+00 -0.00000000000E+00 -0.60331982033E+03  0.60331982033E+03  0.00000000000E+00 0. -1.
          6    2    1    2  501    0  0.30277549343E+02  0.31340111828E+02 -0.23603993005E+03  0.29452467223E+03  0.17067806352E+03 0.  0.
         24    2    3    3    0    0 -0.45690672781E+01 -0.39647456924E+02 -0.16418711473E+03  0.18757403559E+03  0.81448222615E+02 0.  0.
         -6    2    1    2    0  502 -0.30277549343E+02 -0.31340111828E+02 -0.31458987724E+03  0.36148516115E+03  0.17264355844E+03 0.  0.
        -24    2    5    5    0    0 -0.49515613744E+02  0.58691010071E+01 -0.30377609425E+03  0.31796899698E+03  0.79612343611E+02 0.  0.
          5    1    3    3  501    0  0.34846616621E+02  0.70987568751E+02 -0.71852815325E+02  0.10695063664E+03  0.47000000000E+01 0. -1.
        -11    1    4    4    0    0 -0.10491457460E+02 -0.27759290069E+02 -0.78806391650E+01  0.30704288600E+02  0.00000000000E+00 0.  1.
         12    1    4    4    0    0  0.59223901821E+01 -0.11888166855E+02 -0.15630647556E+03  0.15686974699E+03  0.00000000000E+00 0. -1.
         -5    1    5    5    0  502  0.19238064401E+02 -0.37209212835E+02 -0.10813782988E+02  0.43516164171E+02  0.47000000000E+01 0.  1.
         13    1    6    6    0    0 -0.11299087228E+02 -0.52595695063E+01 -0.25367487327E+03  0.25398085316E+03  0.00000000000E+00 0. -1.
        -14    1    6    6    0    0 -0.38216526516E+02  0.11128670513E+02 -0.50101220974E+02  0.63988143819E+02  0.00000000000E+00 0.  1.
</event>
<event>
12    1  0.1039610E+000  0.4255459E+03  0.7818608E-02  0.1035286E+00
         21   -1    0    0  501  502  0.00000000000E+00  0.00000000000E+00  0.61162706661E+03  0.61162706661E+03  0.00000000000E+00 0. -1.
         21   -1    0    0  502  503 -0.00000000000E+00 -0.00000000000E+00 -0.37728997612E+03  0.37728997612E+03  0.00000000000E+00 0. -1.
         -6    2    1    2    0  503  0.16270722279E+03 -0.35418726429E+03  0.34667928464E+03  0.54879196696E+03  0.17048119565E+03 0.  0.
        -24    2    3    3    0    0  0.89207183754E+02 -0.28370357213E+03  0.31849026313E+03  0.44302374143E+03  0.79927149900E+02 0.  0.
          6    2    1    2  501    0 -0.16270722279E+03  0.35418726429E+03 -0.11234219415E+03  0.44012507577E+03  0.17078365027E+03 0.  0.
         24    2    5    5    0    0 -0.12477914115E+03  0.35765646123E+03 -0.96068072497E+02  0.39844160495E+03  0.77708813373E+02 0.  0.
          5    1    5    5  501    0 -0.37928081631E+02 -0.34691969400E+01 -0.16274121650E+02  0.41683470814E+02  0.47000000000E+01 0. -1.
        -13    1    6    6    0    0 -0.57018056658E+02  0.20916467567E+03 -0.91056158071E+02  0.23514281672E+03  0.00000000000E+00 0.  1.
         14    1    6    6    0    0 -0.67761084497E+02  0.14849178556E+03 -0.50119144262E+01  0.16329878823E+03  0.00000000000E+00 0. -1.
         -5    1    3    3    0  503  0.73500039032E+02 -0.70483692164E+02  0.28189021510E+02  0.10576822553E+03  0.47000000000E+01 0.  1.
         13    1    4    4    0    0  0.20645191413E+02 -0.79668344238E+02  0.14431863076E+03  0.16613589674E+03  0.00000000000E+00 0. -1.
        -14    1    4    4    0    0  0.68561992340E+02 -0.20403522789E+03  0.17417163237E+03  0.27688784469E+03  0.00000000000E+00 0.  1.
</event>
<event>
12    1  0.1081429E+000  0.1841444E+03  0.7818608E-02  0.1164019E+00
         21   -1    0    0  503  502  0.00000000000E+00  0.00000000000E+00  0.29631037936E+03  0.29631037936E+03  0.00000000000E+00 0.  1.
         21   -1    0    0  501  503 -0.00000000000E+00 -0.00000000000E+00 -0.16202411142E+03  0.16202411142E+03  0.00000000000E+00 0.  1.
          6    2    1    2  501    0  0.60821315932E+02  0.28548805628E+02  0.19182282525E+03  0.26541058873E+03  0.17068250511E+03 0.  0.
         24    2    3    3    0    0  0.55741642150E+02  0.97542441979E+01  0.29152578523E+02  0.10151202927E+03  0.79073025121E+02 0.  0.
         -6    2    1    2    0  502 -0.60821315932E+02 -0.28548805628E+02 -0.57536557306E+02  0.19292390204E+03  0.17144943797E+03 0.  0.
        -24    2    5    5    0    0 -0.90420911467E-01 -0.71994644491E+02 -0.27800593378E+02  0.11241241171E+03  0.81733960529E+02 0.  0.
          5    1    3    3  501    0  0.50796737819E+01  0.18794561430E+02  0.16267024673E+03  0.16389855947E+03  0.47000000000E+01 0. -1.
        -11    1    4    4    0    0 -0.11051239783E+02  0.84455296564E+01 -0.15754527479E+02  0.21015756184E+02  0.00000000000E+00 0.  1.
         12    1    4    4    0    0  0.66792881932E+02  0.13087145415E+01  0.44907106003E+02  0.80496273082E+02  0.00000000000E+00 0. -1.
         -5    1    5    5    0  502 -0.60730895020E+02  0.43445838863E+02 -0.29735963929E+02  0.80511490330E+02  0.47000000000E+01 0.  1.
         11    1    6    6    0    0 -0.12118629481E+02 -0.14455773174E+02 -0.46943152186E+02  0.50591403378E+02  0.00000000000E+00 0. -1.
        -12    1    6    6    0    0  0.12028208570E+02 -0.57538871317E+02  0.19142558809E+02  0.61821008335E+02  0.00000000000E+00 0.  1.
</event>
<event>
12    1  0.1039610E+000  0.3862652E+03  0.7818608E-02  0.1048649E+00
         21   -1    0    0  501  502  0.00000000000E+00  0.00000000000E+00  0.16176024675E+03  0.16176024675E+03  0.00000000000E+00 0.  1.
         21   -1    0    0  502  503 -0.00000000000E+00 -0.00000000000E+00 -0.19169097262E+04  0.19169097262E+04  0.00000000000E+00 0. -1.
         -6    2    1    2    0  503 -0.25597916395E+03 -0.23242635126E+03 -0.12883100116E+03  0.40711005047E+03  0.17202855927E+03 0.  0.
        -24    2    3    3    0    0 -0.13240050512E+03 -0.10411492060E+03 -0.13168932162E+03  0.22888051266E+03  0.81697008501E+02 0.  0.
          6    2    1    2  501    0  0.25597916395E+03  0.23242635126E+03 -0.16263184783E+04  0.16715599225E+04  0.17220174357E+03 0.  0.
         24    2    5    5    0    0  0.71486322418E+02  0.12596802099E+03 -0.55510526276E+03  0.57936450600E+03  0.80889687007E+02 0.  0.
          5    1    5    5  501    0  0.18449284153E+03  0.10645833026E+03 -0.10712132155E+04  0.10921954165E+04  0.47000000000E+01 0. -1.
        -11    1    6    6    0    0  0.44368753743E+02  0.10671074363E+02 -0.11863776867E+03  0.12711167646E+03  0.00000000000E+00 0.  1.
         12    1    6    6    0    0  0.27117568675E+02  0.11529694663E+03 -0.43646749409E+03  0.45225282954E+03  0.00000000000E+00 0. -1.
         -5    1    3    3    0  503 -0.12357865882E+03 -0.12831143065E+03  0.28583204615E+01  0.17822953781E+03  0.47000000000E+01 0.  1.
         13    1    4    4    0    0 -0.11480891687E+03 -0.89443441766E+02 -0.14238101487E+03  0.20360149818E+03  0.00000000000E+00 0. -1.
        -14    1    4    4    0    0 -0.17591588256E+02 -0.14671478836E+02  0.10691693245E+02  0.25279014480E+02  0.00000000000E+00 0.  1.
</event>
<event>
12    1  0.1039610E+000  0.2563892E+03  0.7818608E-02  0.1109701E+00
         21   -1    0    0  503  502  0.00000000000E+00  0.00000000000E+00  0.64092015517E+03  0.64092015517E+03  0.00000000000E+00 0. -1.
         21   -1    0    0  501  503 -0.00000000000E+00 -0.00000000000E+00 -0.12312526753E+03  0.12312526753E+03  0.00000000000E+00 0. -1.
          6    2    1    2  501    0 -0.13790426428E+03 -0.13210758861E+03  0.41759544593E+03  0.48877224086E+03  0.16745849009E+03 0.  0.
         24    2    3    3    0    0 -0.13159022198E+03 -0.57598789536E+02  0.19359109977E+03  0.25257007033E+03  0.75369220743E+02 0.  0.
         -6    2    1    2    0  502  0.13790426428E+03  0.13210758861E+03  0.10019944171E+03  0.27527318183E+03  0.17107131682E+03 0.  0.
        -24    2    5    5    0    0  0.13459374196E+02  0.83733157220E+01  0.23233859234E+02  0.83589870502E+02  0.78715862860E+02 0.  0.
          5    1    3    3  501    0 -0.63140422929E+01 -0.74508799077E+02  0.22400434616E+03  0.23620217054E+03  0.47000000000E+01 0. -1.
        -11    1    4    4    0    0 -0.43068186541E+02 -0.48063122174E+02  0.42745283672E+02  0.77408602114E+02  0.00000000000E+00 0.  1.
         12    1    4    4    0    0 -0.88522035443E+02 -0.95356673614E+01  0.15084581610E+03  0.17516146821E+03  0.00000000000E+00 0. -1.
         -5    1    5    5    0  502  0.12444489008E+03  0.12373427289E+03  0.76965582477E+02  0.19168331133E+03  0.47000000000E+01 0.  1.
         11    1    6    6    0    0 -0.32266559631E+02  0.49536553362E+01  0.10738210812E+01  0.32662251351E+02  0.00000000000E+00 0. -1.
        -12    1    6    6    0    0  0.45725933827E+02  0.34196603858E+01  0.22160038152E+02  0.50927619151E+02  0.00000000000E+00 0.  1.
</event>
<event>
12    1  0.1039610E+000  0.3321869E+03  0.7818608E-02  0.1070268E+00
         21   -1    0    0  503  502  0.00000000000E+00  0.00000000000E+00  0.16269224021E+03  0.16269224021E+03  0.00000000000E+00 0.  1.
         21   -1    0    0  501  503 -0.00000000000E+00 -0.00000000000E+00 -0.97357737009E+03  0.97357737009E+03  0.00000000000E+00 0.  1.
          6    2    1    2  501    0 -0.16683800347E+03  0.22943808281E+03 -0.91238426719E+02  0.34365399795E+03  0.17116327454E+03 0.  0.
         24    2    3    3    0    0 -0.64646849676E+02  0.75050924522E+02  0.18478191731E+02  0.12839078019E+03  0.79566905323E+02 0.  0.
         -6    2    1    2    0  502  0.16683800347E+03 -0.22943808281E+03 -0.71964670316E+03  0.79261561235E+03  0.17283338311E+03 0.  0.
        -24    2    5    5    0    0  0.94091690132E+02 -0.15115852998E+03 -0.29030217006E+03  0.35014693255E+03  0.81396419420E+02 0.  0.
          5    1    3    3  501    0 -0.10219115380E+03  0.15438715829E+03 -0.10971661845E+03  0.21526321776E+03  0.47000000000E+01 0. -1.
        -11    1    4    4    0    0  0.39071626963E+00 -0.59881291629E+01  0.23603932713E+02  0.24354793975E+02  0.00000000000E+00 0.  1.
         12    1    4    4    0    0 -0.65037565946E+02  0.81039053685E+02 -0.51257409824E+01  0.10403598621E+03  0.00000000000E+00 0. -1.
         -5    1    5    5    0  502  0.72746313340E+02 -0.78279552826E+02 -0.42934453310E+03  0.44246867979E+03  0.47000000000E+01 0.  1.
         13    1    6    6    0    0  0.48928619726E+02 -0.27930475121E+02 -0.45639913771E+02  0.72506020425E+02  0.00000000000E+00 0. -1.
        -14    1    6    6    0    0  0.45163070406E+02 -0.12322805486E+03 -0.24466225629E+03  0.27764091213E+03  0.00000000000E+00 0.  1.
</event>
<event>
12    1  0.1039610E+000  0.3224597E+03  0.7818608E-02  0.1074585E+00
         21   -1    0    0  501  502  0.00000000000E+00  0.00000000000E+00  0.23328572830E+03  0.23328572830E+03  0.00000000000E+00 0. -1.
         21   -1    0    0  502  503 -0.00000000000E+00 -0.00000000000E+00 -0.61990948094E+03  0.61990948094E+03  0.00000000000E+00 0. -1.
         -6    2    1    2    0  503  0.25698855010E+03 -0.88710331854E+02  0.33193345593E+02  0.32416367472E+03  0.17340026516E+03 0.  0.
        -24    2    3    3    0    0  0.38020921379E+02 -0.45840252410E+02  0.15272807948E+02  0.10027106249E+03  0.79209267814E+02 0.  0.
          6    2    1    2  501    0 -0.25698855010E+03  0.88710331854E+02 -0.41981709823E+03  0.52903153451E+03  0.17238135248E+03 0.  0.
         24    2    5    5    0    0 -0.16986569771E+03  0.12402000360E+03 -0.32451573191E+03  0.39508525890E+03  0.80910969540E+02 0.  0.
          5    1    5    5  501    0 -0.87122852394E+02 -0.35309671751E+02 -0.95301366319E+02  0.13394627561E+03  0.47000000000E+01 0. -1.
        -13    1    6    6    0    0 -0.11496590566E+03  0.45972129081E+02 -0.13682749779E+03  0.18453281624E+03  0.00000000000E+00 0.  1.
         14    1    6    6    0    0 -0.54899792043E+02  0.78047874524E+02 -0.18768823412E+03  0.21055244266E+03  0.00000000000E+00 0. -1.
         -5    1    3    3    0  503  0.21896762872E+03 -0.42870079444E+02  0.17920537645E+02  0.22389261223E+03  0.47000000000E+01 0.  1.
         13    1    4    4    0    0 -0.19864522619E+02  0.64005416136E+01  0.62004332595E+01  0.21771806641E+02  0.00000000000E+00 0. -1.
        -14    1    4    4    0    0  0.57885443997E+02 -0.52240794023E+02  0.90723746883E+01  0.78499255853E+02  0.00000000000E+00 0.  1.
</event>
<event>
12    1  0.1039610E+000  0.1946811E+03  0.7818608E-02  0.1154542E+00
         21   -1    0    0  501  502  0.00000000000E+00  0.00000000000E+00  0.64396077449E+02  0.64396077449E+02  0.00000000000E+00 0.  1.
         21   -1    0    0  502  503 -0.00000000000E+00 -0.00000000000E+00 -0.10939930609E+04  0.10939930609E+04  0.00000000000E+00 0.  1.
         -6    2    1    2    0  503  0.61245917089E+02  0.70996850158E+02 -0.12061251654E+03  0.22901551628E+03  0.17061392809E+03 0.  0.
        -24    2    3    3    0    0  0.72787899431E+02  0.39696952696E+02 -0.14321218063E+02  0.11751291062E+03  0.82038165008E+02 0.  0.
          6    2    1    2  501    0 -0.61245917089E+02 -0.70996850158E+02 -0.90898446696E+03  0.92937362212E+03  0.16938404065E+03 0.  0.
         24    2    5    5    0    0  0.11590409540E+02 -0.12476612438E+02 -0.23285399239E+03  0.24680182565E+03  0.80000974488E+02 0.  0.
          5    1    5    5  501    0 -0.72836326628E+02 -0.58520237720E+02 -0.67613047457E+03  0.68257179647E+03  0.47000000000E+01 0. -1.
        -11    1    6    6    0    0 -0.28776758427E+02 -0.10151196252E+02 -0.43230249216E+02  0.52915055118E+02  0.00000000000E+00 0.  1.
         12    1    6    6    0    0  0.40367167967E+02 -0.23254161859E+01 -0.18962374317E+03  0.19388677053E+03  0.00000000000E+00 0. -1.
         -5    1    3    3    0  503 -0.11541982342E+02  0.31299897462E+02 -0.10629129848E+03  0.11150260566E+03  0.47000000000E+01 0.  1.
         11    1    4    4    0    0  0.36653065569E+02  0.61655782537E+02 -0.20922352667E+02  0.74716983190E+02  0.00000000000E+00 0. -1.
        -12    1    4    4    0    0  0.36134833862E+02 -0.21958829842E+02  0.66011346038E+01  0.42795927426E+02  0.00000000000E+00 0.  1.
</event>
<event>
12    1  0.1039610E+000  0.2002043E+03  0.7818608E-02  0.1150382E+00
         21   -1    0    0  501  502  0.00000000000E+00  0.00000000000E+00  0.24300947413E+03  0.24300947413E+03  0.00000000000E+00 0.  1.
         21   -1    0    0  502  503 -0.00000000000E+00 -0.00000000000E+00 -0.16576477609E+03  0.16576477609E+03  0.00000000000E+00 0.  1.
         -6    2    1    2    0  503  0.60491176589E+02 -0.73056479398E+02  0.70601680206E+02  0.21228840325E+03  0.17631034365E+03 0.  0.
        -24    2    3    3    0    0  0.45565822891E+02 -0.65682173824E+02 -0.24292399528E+02  0.11583052159E+03  0.80225911546E+02 0.  0.
          6    2    1    2  501    0 -0.60491176589E+02  0.73056479398E+02  0.66430178371E+01  0.19648584697E+03  0.17194803501E+03 0.  0.
         24    2    5    5    0    0  0.25993665925E+02  0.47432665639E+00 -0.91272604902E+01  0.82386817349E+02  0.77642675990E+02 0.  0.
          5    1    5    5  501    0 -0.86484842513E+02  0.72582152741E+02  0.15770278327E+02  0.11409902962E+03  0.47000000000E+01 0. -1.
        -13    1    6    6    0    0 -0.86758642229E+01  0.94699729981E+01 -0.35601394947E+02  0.37847197133E+02  0.00000000000E+00 0.  1.
         14    1    6    6    0    0  0.34669530147E+02 -0.89956463417E+01  0.26474134457E+02  0.44539620216E+02  0.00000000000E+00 0. -1.
         -5    1    3    3    0  503  0.14925353698E+02 -0.73743055740E+01  0.94894079734E+02  0.96457881659E+02  0.47000000000E+01 0.  1.
         13    1    4    4    0    0  0.34270443035E+02  0.68259479839E+01  0.76923723896E+01  0.35780293804E+02  0.00000000000E+00 0. -1.
        -14    1    4    4    0    0  0.11295379855E+02 -0.72508121807E+02 -0.31984771918E+02  0.80050227787E+02  0.00000000000E+00 0.  1.
</event>
<event>
12    1  0.1039610E+000  0.1899304E+03  0.7818608E-02  0.1159057E+00
         21   -1    0    0  501  502  0.00000000000E+00  0.00000000000E+00  0.57612604936E+02  0.57612604936E+02  0.00000000000E+00 0.  1.
         21   -1    0    0  502  503 -0.00000000000E+00 -0.00000000000E+00 -0.62432052460E+03  0.62432052460E+03  0.00000000000E+00 0.  1.
         -6    2    1    2    0  503  0.95699860825E+01 -0.77980450614E+02 -0.31473176718E+03  0.36639308319E+03  0.17033869444E+03 0.  0.
        -24    2    3    3    0    0  0.29771596192E+02 -0.11437844998E+03 -0.26976107754E+03  0.30493275179E+03  0.79020037960E+02 0.  0.
          6    2    1    2  501    0 -0.95699860825E+01  0.77980450614E+02 -0.25197615249E+03  0.31554004635E+03  0.17291906812E+03 0.  0.
         24    2    5    5    0    0 -0.26841276634E+02  0.97912114950E+02 -0.25681963055E+03  0.28831656384E+03  0.82842512990E+02 0.  0.
          5    1    5    5  501    0  0.17271290551E+02 -0.19931664336E+02  0.48434780690E+01  0.27223482516E+02  0.47000000000E+01 0. -1.
        -13    1    6    6    0    0  0.54920428993E+01  0.57295868178E+02 -0.53879587662E+02  0.78841543694E+02  0.00000000000E+00 0.  1.
         14    1    6    6    0    0 -0.32333319533E+02  0.40616246772E+02 -0.20294004289E+03  0.20947502014E+03  0.00000000000E+00 0. -1.
         -5    1    3    3    0  503 -0.20201610109E+02  0.36397999364E+02 -0.44970689647E+02  0.61460331402E+02  0.47000000000E+01 0.  1.
         13    1    4    4    0    0  0.46029843265E+02 -0.39002591401E+02 -0.15822489666E+03  0.16933713866E+03  0.00000000000E+00 0. -1.
        -14    1    4    4    0    0 -0.16258247074E+02 -0.75375858577E+02 -0.11153618087E+03  0.13559561312E+03  0.00000000000E+00 0.  1.
</event>
<event>
12    1  0.1039610E+000  0.2465624E+03  0.7818608E-02  0.1115519E+00
         21   -1    0    0  501  502  0.00000000000E+00  0.00000000000E+00  0.13464675752E+04  0.13464675752E+04  0.00000000000E+00 0. -1.
         21   -1    0    0  502  503 -0.00000000000E+00 -0.00000000000E+00 -0.45343456409E+02  0.45343456409E+02  0.00000000000E+00 0. -1.
         -6    2    1    2    0  503 -0.17350892967E+03 -0.26885336190E+02  0.60199069311E+03  0.65047400720E+03  0.17290306382E+03 0.  0.
        -24    2    3    3    0    0 -0.19471695290E+03 -0.23092707216E+02  0.58660387495E+03  0.62358519063E+03  0.79412964889E+02 0.  0.
          6    2    1    2  501    0  0.17350892967E+03  0.26885336190E+02  0.69913342571E+03  0.74133702443E+03  0.17310363045E+03 0.  0.
         24    2    5    5    0    0  0.25240266541E+02  0.13791484267E+02  0.37755559163E+03  0.38695102190E+03  0.79721969873E+02 0.  0.
          5    1    5    5  501    0  0.14826866313E+03  0.13093851923E+02  0.32157783407E+03  0.35438600254E+03  0.47000000000E+01 0. -1.
        -11    1    6    6    0    0 -0.13765799335E+02  0.48618619468E+01  0.11158097235E+02  0.18374930390E+02  0.00000000000E+00 0.  1.
         12    1    6    6    0    0  0.39006065876E+02  0.89296223204E+01  0.36639749440E+03  0.36857609151E+03  0.00000000000E+00 0. -1.
         -5    1    3    3    0  503  0.21208023226E+02 -0.37926289743E+01  0.15386818161E+02  0.26888816575E+02  0.47000000000E+01 0.  1.
         13    1    4    4    0    0 -0.11756242874E+03  0.23395462582E+02  0.29631437801E+03  0.31964117841E+03  0.00000000000E+00 0. -1.
        -14    1    4    4    0    0 -0.77154524163E+02 -0.46488169799E+02  0.29028949694E+03  0.30394401222E+03  0.00000000000E+00 0.  1.
</event>
<event>
12    1  0.1039610E+000  0.2526122E+03  0.7818608E-02  0.1113445E+00
         21   -1    0    0  503  502  0.00000000000E+00  0.00000000000E+00  0.60400502271E+03  0.60400502271E+03  0.00000000000E+00 0. -1.
         21   -1    0    0  501  503 -0.00000000000E+00 -0.00000000000E+00 -0.10365333685E+03  0.10365333685E+03  0.00000000000E+00 0. -1.
          6    2    1    2  501    0 -0.11863193688E+03  0.12070777489E+03  0.31186262250E+03  0.40133679329E+03  0.18753405815E+03 0.  0.
         24    2    3    3    0    0 -0.61685827405E+02  0.57534929412E+02  0.29069223700E+03  0.31356468489E+03  0.81886662862E+02 0.  0.
         -6    2    1    2    0  502  0.11863193688E+03 -0.12070777489E+03  0.18848906336E+03  0.30632156627E+03  0.17222331894E+03 0.  0.
        -24    2    5    5    0    0  0.48523679153E+02 -0.98147036137E+02  0.41061059143E+02  0.14145416148E+03  0.79598247976E+02 0.  0.
          5    1    3    3  501    0 -0.56946109480E+02  0.63172845475E+02  0.21170385505E+02  0.87772108399E+02  0.47000000000E+01 0. -1.
        -13    1    4    4    0    0 -0.18340432516E+02  0.41052742800E+02  0.45289331903E+02  0.63818670783E+02  0.00000000000E+00 0.  1.
         14    1    4    4    0    0 -0.43345394889E+02  0.16482186611E+02  0.24540290510E+03  0.24974601411E+03  0.00000000000E+00 0. -1.
         -5    1    5    5    0  502  0.70108257731E+02 -0.22560738749E+02  0.14742800421E+03  0.16486740479E+03  0.47000000000E+01 0.  1.
         13    1    6    6    0    0  0.34346068257E+02 -0.19887096314E+02  0.47218311643E+02  0.61682395859E+02  0.00000000000E+00 0. -1.
        -14    1    6    6    0    0  0.14177610896E+02 -0.78259939823E+02 -0.61572524998E+01  0.79771765620E+02  0.00000000000E+00 0.  1.
</event>
<event>
12    1  0.1039610E+000  0.1944453E+03  0.7818608E-02  0.1155883E+00
         21   -1    0    0  501  502  0.00000000000E+00  0.00000000000E+00  0.37120256955E+02  0.37120256955E+02  0.00000000000E+00 0.  1.
         21   -1    0    0  502  503 -0.00000000000E+00 -0.00000000000E+00 -0.11177871185E+04  0.11177871185E+04  0.00000000000E+00 0.  1.
         -6    2    1    2    0  503  0.88004691435E+02  0.26042315349E+02 -0.35015865131E+03  0.40052472398E+03  0.17142329341E+03 0.  0.
        -24    2    3    3    0    0  0.95713063046E+02 -0.99470244541E+01 -0.14121242987E+03  0.18830958543E+03  0.79117734309E+02 0.  0.
          6    2    1    2  501    0 -0.88004691435E+02 -0.26042315349E+02 -0.73050821022E+03  0.75438265146E+03  0.16440167801E+03 0.  0.
         24    2    5    5    0    0 -0.48051237531E+02  0.29597140030E+02 -0.58604500605E+03  0.59443348819E+03  0.81960421177E+02 0.  0.
          5    1    5    5  501    0 -0.39953453904E+02 -0.55639455379E+02 -0.14446320417E+03  0.15994916328E+03  0.47000000000E+01 0. -1.
        -11    1    6    6    0    0  0.88694006803E+01 -0.20446898607E+02 -0.18009541211E+03  0.18146927947E+03  0.00000000000E+00 0.  1.
         12    1    6    6    0    0 -0.56920638211E+02  0.50044038637E+02 -0.40594959394E+03  0.41296420871E+03  0.00000000000E+00 0. -1.
         -5    1    3    3    0  503 -0.77083716108E+01  0.35989339803E+02 -0.20894622145E+03  0.21221513855E+03  0.47000000000E+01 0.  1.
         11    1    4    4    0    0  0.10298458992E+02 -0.33628721740E+02 -0.49933933323E+02  0.61076565724E+02  0.00000000000E+00 0. -1.
        -12    1    4    4    0    0  0.85414604053E+02  0.23681697286E+02 -0.91278496543E+02  0.12723301970E+03  0.00000000000E+00 0.  1.
</event>
<event>
12    1  0.1039610E+000  0.2201535E+03  0.7818608E-02  0.1134011E+00
         21   -1    0    0  501  502  0.00000000000E+00  0.00000000000E+00  0.17195832431E+04  0.17195832431E+04  0.00000000000E+00 0. -1.
         21   -1    0    0  502  503 -0.00000000000E+00 -0.00000000000E+00 -0.47333161936E+02  0.47333161936E+02  0.00000000000E+00 0. -1.
         -6    2    1    2    0  503  0.13352619587E+03 -0.28684415142E+02  0.13989887470E+04  0.14160042837E+04  0.17101630513E+03 0.  0.
        -24    2    3    3    0    0  0.44462612307E+02 -0.45818453586E+02  0.39498624939E+03  0.40790260115E+03  0.79335617696E+02 0.  0.
          6    2    1    2  501    0 -0.13352619587E+03  0.28684415142E+02  0.27326133415E+03  0.35091212130E+03  0.17267171013E+03 0.  0.
         24    2    5    5    0    0 -0.35533067786E+02  0.43855350458E+02  0.57696336917E+02  0.11358709426E+03  0.79920398011E+02 0.  0.
          5    1    5    5  501    0 -0.97993128084E+02 -0.15170935317E+02  0.21556499723E+03  0.23732502704E+03  0.47000000000E+01 0. -1.
        -13    1    6    6    0    0 -0.35209881859E+02  0.64427223954E+02  0.57088402765E+02  0.93003702600E+02  0.00000000000E+00 0.  1.
         14    1    6    6    0    0 -0.32318592698E+00 -0.20571873495E+02  0.60793415223E+00  0.20583391659E+02  0.00000000000E+00 0. -1.
         -5    1    3    3    0  503  0.89063583564E+02  0.17134038445E+02  0.10040024976E+04  0.10081016826E+04  0.47000000000E+01 0.  1.
         13    1    4    4    0    0  0.45337669110E+02 -0.82177530460E+00  0.10398681860E+03  0.11344354542E+03  0.00000000000E+00 0. -1.
        -14    1    4    4    0    0 -0.87505680341E+00 -0.44996678282E+02  0.29099943079E+03  0.29445905573E+03  0.00000000000E+00 0.  1.
</event>
<event>
12    1  0.1039610E+000  0.2428345E+03  0.7818608E-02  0.1118050E+00
         21   -1    0    0  501  502  0.00000000000E+00  0.00000000000E+00  0.11799042217E+04  0.11799042217E+04  0.00000000000E+00 0.  1.
         21   -1    0    0  502  503 -0.00000000000E+00 -0.00000000000E+00 -0.54518549221E+02  0.54518549221E+02  0.00000000000E+00 0.  1.
         -6    2    1    2    0  503  0.10310876961E+03  0.13649971869E+03  0.38051527237E+03  0.45096856969E+03  0.17122262340E+03 0.  0.
        -24    2    3    3    0    0  0.99272197064E+02  0.14469321397E+03  0.39126874434E+03  0.43615034398E+03  0.79654233868E+02 0.  0.
          6    2    1    2  501    0 -0.10310876961E+03 -0.13649971869E+03  0.74487040011E+03  0.78345420124E+03  0.17235132984E+03 0.  0.
         24    2    5    5    0    0  0.12861630819E+02 -0.68985835519E+02  0.28170489981E+03  0.30121812952E+03  0.80313410606E+02 0.  0.
          5    1    5    5  501    0 -0.11597040043E+03 -0.67513883175E+02  0.46316550030E+03  0.48223607172E+03  0.47000000000E+01 0. -1.
        -13    1    6    6    0    0 -0.11743687670E+02 -0.36709616188E+01  0.14340289461E+01  0.12387356389E+02  0.00000000000E+00 0.  1.
         14    1    6    6    0    0  0.24605318489E+02 -0.65314873900E+02  0.28027087087E+03  0.28883077313E+03  0.00000000000E+00 0. -1.
         -5    1    3    3    0  503  0.38365725467E+01 -0.81934952772E+01 -0.10753471972E+02  0.14818225711E+02  0.47000000000E+01 0.  1.
         13    1    4    4    0    0  0.64876608769E+02  0.46141595405E+02  0.10732854039E+03  0.13363172069E+03  0.00000000000E+00 0. -1.
        -14    1    4    4    0    0  0.34395588296E+02  0.98551618565E+02  0.28394020395E+03  0.30251862329E+03  0.00000000000E+00 0.  1.
</event>
<event>
12    1  0.1039610E+000  0.1910724E+03  0.7818608E-02  0.1157601E+00
         21   -1    0    0  503  502  0.00000000000E+00  0.00000000000E+00  0.75727955931E+03  0.75727955931E+03  0.00000000000E+00 0. -1.
         21   -1    0    0  501  503 -0.00000000000E+00 -0.00000000000E+00 -0.54990984320E+02  0.54990984320E+02  0.00000000000E+00 0. -1.
          6    2    1    2  501    0 -0.72297242813E+01 -0.81487533124E+02  0.49460674164E+03  0.53006422417E+03  0.17216203384E+03 0.  0.
         24    2    3    3    0    0 -0.89969210230E+01 -0.11331389549E+03  0.46685402646E+03  0.48753960158E+03  0.82590541772E+02 0.  0.
         -6    2    1    2    0  502  0.72297242813E+01  0.81487533124E+02  0.20768183334E+03  0.28220631946E+03  0.17267361082E+03 0.  0.
        -24    2    5    5    0    0  0.70258660399E+02  0.60035003055E+02  0.15225040334E+03  0.19544462707E+03  0.80485625917E+02 0.  0.
          5    1    3    3  501    0  0.17671967417E+01  0.31826362368E+02  0.27752715183E+02  0.42524622584E+02  0.47000000000E+01 0. -1.
        -13    1    4    4    0    0 -0.43817264731E+02 -0.50013411537E+02  0.26251371385E+03  0.27080388473E+03  0.00000000000E+00 0.  1.
         14    1    4    4    0    0  0.34820343708E+02 -0.63300483955E+02  0.20434031261E+03  0.21673571686E+03  0.00000000000E+00 0. -1.
         -5    1    5    5    0  502 -0.63028936118E+02  0.21452530069E+02  0.55431430000E+02  0.86761692389E+02  0.47000000000E+01 0.  1.
         13    1    6    6    0    0 -0.11229531469E+02 -0.72349500694E+01  0.51304624557E+01  0.14309735306E+02  0.00000000000E+00 0. -1.
        -14    1    6    6    0    0  0.81488191868E+02  0.67269953125E+02  0.14711994089E+03  0.18113489176E+03  0.00000000000E+00 0.  1.
</event>
<event>
12    1  0.1039610E+000  0.2114495E+03  0.7818608E-02  0.1140597E+00
         21   -1    0    0  501  502  0.00000000000E+00  0.00000000000E+00  0.10278881883E+04  0.10278881883E+04  0.00000000000E+00 0.  1.
         21   -1    0    0  502  503 -0.00000000000E+00 -0.00000000000E+00 -0.43475765006E+02  0.43475765006E+02  0.00000000000E+00 0. -1.
         -6    2    1    2    0  503  0.65636835465E+02  0.10431206499E+03  0.52360307387E+03  0.56435689575E+03  0.17073173620E+03 0.  0.
        -24    2    3    3    0    0  0.49354627861E+01  0.66406694748E+02  0.44904684573E+03  0.46090548256E+03  0.79728202592E+02 0.  0.
          6    2    1    2  501    0 -0.65636835465E+02 -0.10431206499E+03  0.46080934946E+03  0.50700705759E+03  0.17181879648E+03 0.  0.
         24    2    5    5    0    0 -0.46183102719E+02 -0.97194827843E+01  0.34182918287E+03  0.35369504121E+03  0.77625025551E+02 0.  0.
          5    1    5    5  501    0 -0.19453732746E+02 -0.94592582201E+02  0.11898016659E+03  0.15331201638E+03  0.47000000000E+01 0. -1.
        -13    1    6    6    0    0  0.59387806088E+01 -0.19345305555E+02  0.21880399481E+03  0.21973779399E+03  0.00000000000E+00 0.  1.
         14    1    6    6    0    0 -0.52121883328E+02  0.96258227709E+01  0.12302518806E+03  0.13395724722E+03  0.00000000000E+00 0. -1.
         -5    1    3    3    0  503  0.60701372679E+02  0.37905370237E+02  0.74556228138E+02  0.10345141320E+03  0.47000000000E+01 0.  1.
         11    1    4    4    0    0  0.20958065235E+02  0.72074823189E+02  0.42427801872E+03  0.43086640366E+03  0.00000000000E+00 0. -1.
        -12    1    4    4    0    0 -0.16022602449E+02 -0.56681284402E+01  0.24768827012E+02  0.30039078894E+02  0.00000000000E+00 0.  1.
</event>
<event>
12    1  0.1039610E+000  0.2377173E+03  0.7818608E-02  0.1121790E+00
         21   -1    0    0  503  502  0.00000000000E+00  0.00000000000E+00  0.10927794097E+03  0.10927794097E+03  0.00000000000E+00 0.  1.
         21   -1    0    0  501  503 -0.00000000000E+00 -0.00000000000E+00 -0.51553031532E+03  0.51553031532E+03  0.00000000000E+00 0.  1.
          6    2    1    2  501    0  0.43031121996E+02  0.15777719349E+03 -0.23077688102E+03  0.32934057574E+03  0.16870662633E+03 0.  0.
         24    2    3    3    0    0 -0.24217841766E+02  0.60250970222E+02 -0.44507637988E+02  0.10854177988E+03  0.74724191986E+02 0.  0.
         -6    2    1    2    0  502 -0.43031121996E+02 -0.15777719349E+03 -0.17547549333E+03  0.29546768055E+03  0.17252298759E+03 0.  0.
        -24    2    5    5    0    0 -0.89099837806E+02 -0.79555309931E+02 -0.13062899816E+03  0.19410551911E+03  0.79656694332E+02 0.  0.
          5    1    3    3  501    0  0.67248963762E+02  0.97526223269E+02 -0.18626924303E+03  0.22079879586E+03  0.47000000000E+01 0. -1.
        -11    1    4    4    0    0 -0.31481398248E+02  0.58794453249E+02 -0.61050527739E+02  0.90415889675E+02  0.00000000000E+00 0.  1.
         12    1    4    4    0    0  0.72635564816E+01  0.14565169723E+01  0.16542889751E+02  0.18125890206E+02  0.00000000000E+00 0. -1.
         -5    1    5    5    0  502  0.46068715810E+02 -0.78221883560E+02 -0.44846495171E+02  0.10136216145E+03  0.47000000000E+01 0.  1.
         11    1    6    6    0    0 -0.92665828285E+02 -0.77599111225E+02 -0.83740579841E+02  0.14704102321E+03  0.00000000000E+00 0. -1.
        -12    1    6    6    0    0  0.35659904788E+01 -0.19561987057E+01 -0.46888418319E+02  0.47064495896E+02  0.00000000000E+00 0.  1.
</event>
<event>
12    1  0.1039610E+000  0.2076415E+03  0.7818608E-02  0.1144098E+00
         21   -1    0    0  501  502  0.00000000000E+00  0.00000000000E+00  0.46032356606E+03  0.46032356606E+03  0.00000000000E+00 0. -1.
         21   -1    0    0  502  503 -0.00000000000E+00 -0.00000000000E+00 -0.95325157995E+02  0.95325157995E+02  0.00000000000E+00 0. -1.
         -6    2    1    2    0  503  0.69011364719E+01  0.11514047548E+03  0.23127172920E+03  0.30867137462E+03  0.16877929377E+03 0.  0.
        -24    2    3    3    0    0  0.29897848847E+02  0.60523925534E+02  0.46130500713E+02  0.11422040190E+03  0.79757445956E+02 0.  0.
          6    2    1    2  501    0 -0.69011364719E+01 -0.11514047548E+03  0.13372667887E+03  0.24697734944E+03  0.17265581865E+03 0.  0.
         24    2    5    5    0    0 -0.69870685440E+02 -0.63390117199E+02  0.60646961875E+02  0.13740546109E+03  0.79385055966E+02 0.  0.
          5    1    5    5  501    0  0.62969548969E+02 -0.51750358283E+02  0.73079716991E+02  0.10957188834E+03  0.47000000000E+01 0. -1.
        -13    1    6    6    0    0 -0.13338161968E+02 -0.17320555517E+02  0.60659527517E+02  0.64478573858E+02  0.00000000000E+00 0.  1.
         14    1    6    6    0    0 -0.56532523473E+02 -0.46069561682E+02 -0.12565642262E-01  0.72926887234E+02  0.00000000000E+00 0. -1.
         -5    1    3    3    0  503 -0.22996712375E+02  0.54616549948E+02  0.18514122849E+03  0.19445097273E+03  0.47000000000E+01 0.  1.
         13    1    4    4    0    0  0.56159111026E+01 -0.13199628388E+02  0.32349259630E+02  0.35387049124E+02  0.00000000000E+00 0. -1.
        -14    1    4    4    0    0  0.24281937744E+02  0.73723553922E+02  0.13781241084E+02  0.78833352772E+02  0.00000000000E+00 0.  1.
</event>
<event>
12    1  0.1039610E+000  0.3136558E+03  0.7818608E-02  0.1078634E+00
         21   -1    0    0  501  502  0.00000000000E+00  0.00000000000E+00  0.70113045333E+03  0.70113045333E+03  0.00000000000E+00 0.  1.
         21   -1    0    0  502  503 -0.00000000000E+00 -0.00000000000E+00 -0.19882686389E+03  0.19882686389E+03  0.00000000000E+00 0.  1.
         -6    2    1    2    0  503  0.12785273970E+03  0.22864892676E+03  0.49553179237E+03  0.58645690471E+03  0.17249141738E+03 0.  0.
        -24    2    3    3    0    0  0.79421852283E+02  0.22936528082E+03  0.35096225208E+03  0.43391672640E+03  0.78695364495E+02 0.  0.
          6    2    1    2  501    0 -0.12785273970E+03 -0.22864892676E+03  0.67717970689E+01  0.31350041251E+03  0.17207555505E+03 0.  0.
         24    2    5    5    0    0 -0.15869476699E+03 -0.16728350621E+03  0.15547395982E+02  0.24410267030E+03  0.78591294728E+02 0.  0.
          5    1    5    5  501    0  0.30842027286E+02 -0.61365420555E+02 -0.87755989126E+01  0.69397742206E+02  0.47000000000E+01 0. -1.
        -11    1    6    6    0    0 -0.47519009491E+02 -0.36667598223E+02 -0.29330643253E+02  0.66804608045E+02  0.00000000000E+00 0.  1.
         12    1    6    6    0    0 -0.11117575750E+03 -0.13061590798E+03  0.44878039234E+02  0.17729806226E+03  0.00000000000E+00 0. -1.
         -5    1    3    3    0  503  0.48430887421E+02 -0.71635406076E+00  0.14456954029E+03  0.15254017831E+03  0.47000000000E+01 0.  1.
         13    1    4    4    0    0  0.43793603668E+02  0.18881541999E+03  0.22561566735E+03  0.29744171177E+03  0.00000000000E+00 0. -1.
        -14    1    4    4    0    0  0.35628248615E+02  0.40549860837E+02  0.12534658473E+03  0.13647501463E+03  0.00000000000E+00 0.  1.
</event>
<event>
12    1  0.1039610E+000  0.1905591E+03  0.7818608E-02  0.1159766E+00
         21   -1    0    0  503  502  0.00000000000E+00  0.00000000000E+00  0.28683603449E+02  0.28683603449E+02  0.00000000000E+00 0.  1.
         21   -1    0    0  501  503 -0.00000000000E+00 -0.00000000000E+00 -0.20432360013E+04  0.20432360013E+04  0.00000000000E+00 0.  1.
          6    2    1    2  501    0 -0.49569641663E+02 -0.75784388698E+02 -0.33487887394E+03  0.38147117313E+03  0.15866938196E+03 0.  0.
         24    2    3    3    0    0 -0.42514893515E+02 -0.14829084378E+02 -0.29196986936E+03  0.30644723514E+03  0.81462171598E+02 0.  0.
         -6    2    1    2    0  502  0.49569641663E+02  0.75784388698E+02 -0.16796735239E+04  0.16904484316E+04  0.16766731971E+03 0.  0.
        -24    2    5    5    0    0  0.91815290655E+02  0.75029157384E+02 -0.14333241277E+04  0.14404576713E+04  0.80254755001E+02 0.  0.
          5    1    3    3  501    0 -0.70547481486E+01 -0.60955304319E+02 -0.42909004580E+02  0.75023937981E+02  0.47000000000E+01 0. -1.
        -11    1    4    4    0    0  0.14316007086E+02 -0.17810908847E+02 -0.26708765735E+02  0.35150173540E+02  0.00000000000E+00 0.  1.
         12    1    4    4    0    0 -0.56830900601E+02  0.29818244686E+01 -0.26526110362E+03  0.27129706160E+03  0.00000000000E+00 0. -1.
         -5    1    5    5    0  502 -0.42245648992E+02  0.75523131353E+00 -0.24634939621E+03  0.24999076032E+03  0.47000000000E+01 0.  1.
         13    1    6    6    0    0  0.49651122498E+02  0.65500815508E+02 -0.55319649739E+03  0.55926912620E+03  0.00000000000E+00 0. -1.
        -14    1    6    6    0    0  0.42164168157E+02  0.95283418760E+01 -0.88012763033E+03  0.88118854511E+03  0.00000000000E+00 0.  1.
</event>
<event>
12    1  0.1039610E+000  0.1993197E+03  0.7818608E-02  0.1150499E+00
         21   -1    0    0  503  502  0.00000000000E+00  0.00000000000E+00  0.51190131850E+03  0.51190131850E+03  0.00000000000E+00 0. -1.
         21   -1    0    0  501  503 -0.00000000000E+00 -0.00000000000E+00 -0.15826391686E+03  0.15826391686E+03  0.00000000000E+00 0. -1.
          6    2    1    2  501    0  0.64802926350E+02 -0.76205037164E+02  0.41633865616E+03  0.46121596378E+03  0.17139329532E+03 0.  0.
         24    2    3    3    0    0 -0.82741897642E+01 -0.47687386654E+02  0.11432670137E+03  0.14914733010E+03  0.82654596779E+02 0.  0.
         -6    2    1    2    0  502 -0.64802926350E+02  0.76205037164E+02 -0.62701254520E+02  0.20894927158E+03  0.17239989508E+03 0.  0.
        -24    2    5    5    0    0 -0.20295074838E+02  0.18534325581E+01 -0.86324171934E+02  0.11900905710E+03  0.79347134399E+02 0.  0.
          5    1    3    3  501    0  0.73077116114E+02 -0.28517650510E+02  0.30201195479E+03  0.31206863368E+03  0.47000000000E+01 0. -1.
        -13    1    4    4    0    0  0.11636100920E+02 -0.20493732893E+02  0.11298570099E+03  0.11541733215E+03  0.00000000000E+00 0.  1.
         14    1    4    4    0    0 -0.19910290684E+02 -0.27193653761E+02  0.13410003824E+01  0.33729997955E+02  0.00000000000E+00 0. -1.
         -5    1    5    5    0  502 -0.44507851512E+02  0.74351604606E+02  0.23622917414E+02  0.89940214481E+02  0.47000000000E+01 0.  1.
         11    1    6    6    0    0 -0.33836461114E+02 -0.26074284737E+02 -0.23066445707E+02  0.48547248560E+02  0.00000000000E+00 0. -1.
        -12    1    6    6    0    0  0.13541386276E+02  0.27927717295E+02 -0.63257726227E+02  0.70461808542E+02  0.00000000000E+00 0.  1.
</event>
<event>
12    1  0.1039610E+000  0.2923247E+03  0.7818608E-02  0.1089187E+00
         21   -1    0    0  503  502  0.00000000000E+00  0.00000000000E+00  0.78672681142E+02  0.78672681142E+02  0.00000000000E+00 0. -1.
         21   -1    0    0  501  503 -0.00000000000E+00 -0.00000000000E+00 -0.10905041969E+04  0.10905041969E+04  0.00000000000E+00 0. -1.
          6    2    1    2  501    0  0.22126851900E+03 -0.82079384960E+02 -0.54756441508E+03  0.62054435115E+03  0.17190613760E+03 0.  0.
         24    2    3    3    0    0  0.69000627270E+02  0.21582910282E+02 -0.19181917753E+03  0.21990967174E+03  0.79616319154E+02 0.  0.
         -6    2    1    2    0  502 -0.22126851900E+03  0.82079384960E+02 -0.46426710068E+03  0.54863252690E+03  0.17250195899E+03 0.  0.
        -24    2    5    5    0    0 -0.68252614898E+02  0.55237906924E+02 -0.30063721134E+03  0.32295319124E+03  0.78780613692E+02 0.  0.
          5    1    3    3  501    0  0.15226789173E+03 -0.10366229524E+03 -0.35574523755E+03  0.40063467941E+03  0.47000000000E+01 0. -1.
        -13    1    4    4    0    0  0.29677476806E+02  0.13436142085E+01 -0.16612738652E+03  0.16876275205E+03  0.00000000000E+00 0.  1.
         14    1    4    4    0    0  0.39323150464E+02  0.20239296074E+02 -0.25691791010E+02  0.51146919685E+02  0.00000000000E+00 0. -1.
         -5    1    5    5    0  502 -0.15301590411E+03  0.26841478036E+02 -0.16362988935E+03  0.22567933565E+03  0.47000000000E+01 0.  1.
         11    1    6    6    0    0 -0.85865008947E+02  0.45096746939E+02 -0.23454306855E+03  0.25380497897E+03  0.00000000000E+00 0. -1.
        -12    1    6    6    0    0  0.17612394049E+02  0.10141159985E+02 -0.66094142783E+02  0.69148212270E+02  0.00000000000E+00 0.  1.
</event>
<event>
12    1  0.1039610E+000  0.2232305E+03  0.7818608E-02  0.1132166E+00
         21   -1    0    0  503  502  0.00000000000E+00  0.00000000000E+00  0.15597184093E+03  0.15597184093E+03  0.00000000000E+00 0. -1.
         21   -1    0    0  501  503 -0.00000000000E+00 -0.00000000000E+00 -0.73506334257E+03  0.73506334257E+03  0.00000000000E+00 0. -1.
          6    2    1    2  501    0  0.10035222176E+03 -0.98348289381E+02  0.46496240083E+02  0.22802138505E+03  0.17346151522E+03 0.  0.
         24    2    3    3    0    0  0.54631684353E+02 -0.13354098368E+03  0.43733415289E+02  0.17006781334E+03  0.78693292353E+02 0.  0.
         -6    2    1    2    0  502 -0.10035222176E+03  0.98348289381E+02 -0.62558774172E+03  0.66301379845E+03  0.16877298334E+03 0.  0.
        -24    2    5    5    0    0 -0.80592550608E+02  0.34916514076E+02 -0.19866846501E+03  0.23093024918E+03  0.78391956394E+02 0.  0.
          5    1    3    3  501    0  0.45720537409E+02  0.35192694304E+02  0.27628247945E+01  0.57953571712E+02  0.47000000000E+01 0. -1.
        -11    1    4    4    0    0  0.65505107287E+02 -0.60832188600E+02  0.12796274344E+02  0.90306250546E+02  0.00000000000E+00 0.  1.
         12    1    4    4    0    0 -0.10873422934E+02 -0.72708795085E+02  0.30937140944E+02  0.79761562790E+02  0.00000000000E+00 0. -1.
         -5    1    5    5    0  502 -0.19759671154E+02  0.63431775305E+02 -0.42691927671E+03  0.43208354927E+03  0.47000000000E+01 0.  1.
         11    1    6    6    0    0 -0.46078258166E+02  0.35904745395E+02 -0.45851745105E+02  0.74261289691E+02  0.00000000000E+00 0. -1.
        -12    1    6    6    0    0 -0.34514292443E+02 -0.98823131925E+00 -0.15281671991E+03  0.15666895949E+03  0.00000000000E+00 0.  1.
</event>
<event>
12    1  0.1039610E+000  0.1942064E+03  0.7818608E-02  0.1154981E+00
         21   -1    0    0  503  502  0.00000000000E+00  0.00000000000E+00  0.62584849697E+03  0.62584849697E+03  0.00000000000E+00 0.  1.
         21   -1    0    0  501  503 -0.00000000000E+00 -0.00000000000E+00 -0.64404215029E+02  0.64404215029E+02  0.00000000000E+00 0.  1.
          6    2    1    2  501    0 -0.78562647216E+02  0.37636277692E+02  0.37121527509E+03  0.41840129708E+03  0.17225064877E+03 0.  0.
         24    2    3    3    0    0 -0.11166000245E+03  0.47136283923E+02  0.34968909084E+03  0.37752157533E+03  0.74500296489E+02 0.  0.
         -6    2    1    2    0  502  0.78562647216E+02 -0.37636277692E+02  0.19022900685E+03  0.27185141492E+03  0.17357286023E+03 0.  0.
        -24    2    5    5    0    0  0.11910243848E+03 -0.47648072662E+02  0.14136465890E+03  0.20740356612E+03  0.81095886279E+02 0.  0.
          5    1    3    3  501    0  0.33097355237E+02 -0.95000062306E+01  0.21526184255E+02  0.40879721754E+02  0.47000000000E+01 0. -1.
        -13    1    4    4    0    0  0.66480731285E+01  0.11525558781E+02  0.77098301613E+02  0.78237992645E+02  0.00000000000E+00 0.  1.
         14    1    4    4    0    0 -0.11830807558E+03  0.35610725142E+02  0.27259078922E+03  0.29928358268E+03  0.00000000000E+00 0. -1.
         -5    1    5    5    0  502 -0.40539791267E+02  0.10011794970E+02  0.48864347947E+02  0.64447848798E+02  0.47000000000E+01 0.  1.
         11    1    6    6    0    0  0.51828328222E+02 -0.47199735855E+02  0.27807101364E+02  0.75413696086E+02  0.00000000000E+00 0. -1.
        -12    1    6    6    0    0  0.67274110261E+02 -0.44833680690E+00  0.11355755754E+03  0.13198987003E+03  0.00000000000E+00 0.  1.
</event>
<event>
12    1  0.1039610E+000  0.2193828E+03  0.7818608E-02  0.1134474E+00
         21   -1    0    0  503  502  0.00000000000E+00  0.00000000000E+00  0.68054708879E+03  0.68054708879E+03  0.00000000000E+00 0. -1.
         21   -1    0    0  501  503 -0.00000000000E+00 -0.00000000000E+00 -0.73069995932E+02  0.73069995932E+02  0.00000000000E+00 0. -1.
          6    2    1    2  501    0 -0.45410151217E+02  0.12944914836E+03  0.23349716999E+03  0.32038997026E+03  0.17120058647E+03 0.  0.
         24    2    3    3    0    0  0.42620934404E+02  0.74586028298E+02  0.11784118306E+03  0.16496207286E+03  0.77112394528E+02 0.  0.
         -6    2    1    2    0  502  0.45410151217E+02 -0.12944914836E+03  0.37397992287E+03  0.43322711447E+03  0.17031026438E+03 0.  0.
        -24    2    5    5    0    0  0.23559772531E+02 -0.15856332265E+03  0.28003095291E+03  0.33236298233E+03  0.79689568120E+02 0.  0.
          5    1    3    3  501    0 -0.88031085621E+02  0.54863120059E+02  0.11565598693E+03  0.15542789740E+03  0.47000000000E+01 0. -1.
        -13    1    4    4    0    0 -0.87860809468E+01  0.58189474365E+02  0.43868289947E+02  0.73400524577E+02  0.00000000000E+00 0.  1.
         14    1    4    4    0    0  0.51407015350E+02  0.16396553933E+02  0.73972893110E+02  0.91561548279E+02  0.00000000000E+00 0. -1.
         -5    1    5    5    0  502  0.21850378686E+02  0.29114174294E+02  0.93948969966E+02  0.10086413213E+03  0.47000000000E+01 0.  1.
         13    1    6    6    0    0  0.30191249692E+02 -0.73264501978E+02  0.20033949703E+03  0.21544166932E+03  0.00000000000E+00 0. -1.
        -14    1    6    6    0    0 -0.66314771613E+01 -0.85298820672E+02  0.79691455880E+02  0.11692131302E+03  0.00000000000E+00 0.  1.
</event>
<event>
12    1  0.1039610E+000  0.2320223E+03  0.7818608E-02  0.1125428E+00
         21   -1    0    0  503  502  0.00000000000E+00  0.00000000000E+00  0.96529045736E+03  0.96529045736E+03  0.00000000000E+00 0. -1.
         21   -1    0    0  501  503 -0.00000000000E+00 -0.00000000000E+00 -0.78916062850E+02  0.78916062850E+02  0.00000000000E+00 0. -1.
          6    2    1    2  501    0 -0.14270181345E+03  0.60315165593E+02  0.15951223443E+03  0.28156434547E+03  0.17272116531E+03 0.  0.
         24    2    3    3    0    0 -0.45637944806E+02  0.90435285957E+02  0.74036728343E+02  0.14868557220E+03  0.79778438717E+02 0.  0.
         -6    2    1    2    0  502  0.14270181345E+03 -0.60315165593E+02  0.72686216008E+03  0.76264217474E+03  0.17115127861E+03 0.  0.
        -24    2    5    5    0    0  0.16356086473E+03 -0.30734857140E+02  0.55165835133E+03  0.58367692876E+03  0.93032427968E+02 0.  0.
          5    1    3    3  501    0 -0.97063868639E+02 -0.30120120364E+02  0.85475506088E+02  0.13287877327E+03  0.47000000000E+01 0. -1.
        -11    1    4    4    0    0  0.22868478698E+02  0.28213842842E+02  0.18551596546E+02  0.40781735867E+02  0.00000000000E+00 0.  1.
         12    1    4    4    0    0 -0.68506423505E+02  0.62221443114E+02  0.55485131797E+02  0.10790383633E+03  0.00000000000E+00 0. -1.
         -5    1    5    5    0  502 -0.20859051289E+02 -0.29580308452E+02  0.17520380875E+03  0.17896524598E+03  0.47000000000E+01 0.  1.
         11    1    6    6    0    0  0.10480883488E+03 -0.54600272474E+02  0.26609804697E+03  0.29116018310E+03  0.00000000000E+00 0. -1.
        -12    1    6    6    0    0  0.58752029852E+02  0.23865415334E+02  0.28556030436E+03  0.29251674565E+03  0.00000000000E+00 0.  1.
</event>
<event>
12    1  0.1039610E+000  0.3068902E+03  0.7818608E-02  0.1081950E+00
         21   -1    0    0  501  502  0.00000000000E+00  0.00000000000E+00  0.23686527023E+03  0.23686527023E+03  0.00000000000E+00 0.  1.
         21   -1    0    0  502  503 -0.00000000000E+00 -0.00000000000E+00 -0.41935617307E+03  0.41935617307E+03  0.00000000000E+00 0.  1.
         -6    2    1    2    0  503  0.24744607310E+03 -0.58516163799E+02 -0.16770003869E+03  0.34897497404E+03  0.17031303242E+03 0.  0.
        -24    2    3    3    0    0  0.52243662731E+02 -0.76154763523E+01 -0.94739406861E+02  0.13440516071E+03  0.79383853762E+02 0.  0.
          6    2    1    2  501    0 -0.24744607310E+03  0.58516163799E+02 -0.14790864150E+02  0.30724646925E+03  0.17183690724E+03 0.  0.
         24    2    5    5    0    0 -0.16743949229E+03  0.67057722506E+02 -0.69247169763E+02  0.20997576236E+03  0.82230946338E+02 0.  0.
          5    1    5    5  501    0 -0.80006580809E+02 -0.85415587074E+01  0.54456305613E+02  0.97270706890E+02  0.47000000000E+01 0. -1.
        -13    1    6    6    0    0 -0.70144663157E+02  0.69890993427E+02 -0.49310416246E+02  0.11061890382E+03  0.00000000000E+00 0.  1.
         14    1    6    6    0    0 -0.97294829129E+02 -0.28332709206E+01 -0.19936753517E+02  0.99356858546E+02  0.00000000000E+00 0. -1.
         -5    1    3    3    0  503  0.19520241036E+03 -0.50900687446E+02 -0.72960631831E+02  0.21456981333E+03  0.47000000000E+01 0.  1.
         11    1    4    4    0    0  0.69554063954E+02  0.22980295812E+01 -0.50835009757E+02  0.86181476951E+02  0.00000000000E+00 0. -1.
        -12    1    4    4    0    0 -0.17310401223E+02 -0.99135059335E+01 -0.43904397105E+02  0.48223683762E+02  0.00000000000E+00 0.  1.
</event>
<event>
12    1  0.1039610E+000  0.1930677E+03  0.7818608E-02  0.1156216E+00
         21   -1    0    0  501  502  0.00000000000E+00  0.00000000000E+00  0.48088704378E+03  0.48088704378E+03  0.00000000000E+00 0. -1.
         21   -1    0    0  502  503 -0.00000000000E+00 -0.00000000000E+00 -0.86535862508E+02  0.86535862508E+02  0.00000000000E+00 0. -1.
         -6    2    1    2    0  503 -0.44761789023E+01  0.85744460308E+02  0.29217657850E+03  0.34898580221E+03  0.17044585201E+03 0.  0.
        -24    2    3    3    0    0 -0.48730046303E+02  0.10320094903E+03  0.17503243753E+03  0.22246318153E+03  0.76344349213E+02 0.  0.
          6    2    1    2  501    0  0.44761789023E+01 -0.85744460308E+02  0.10217460278E+03  0.21843710408E+03  0.17292475339E+03 0.  0.
         24    2    5    5    0    0  0.29760361487E+02 -0.66560149011E+02  0.13512816563E+03  0.17244411555E+03  0.78494708665E+02 0.  0.
          5    1    5    5  501    0 -0.25284182585E+02 -0.19184311298E+02 -0.32953562858E+02  0.45992988530E+02  0.47000000000E+01 0. -1.
        -11    1    6    6    0    0  0.37460960240E+02  0.92757602944E+00  0.33855213147E+02  0.50501083123E+02  0.00000000000E+00 0.  1.
         12    1    6    6    0    0 -0.77005987533E+01 -0.67487725040E+02  0.10127295249E+03  0.12194303243E+03  0.00000000000E+00 0. -1.
         -5    1    3    3    0  503  0.44253867400E+02 -0.17456488726E+02  0.11714414098E+03  0.12652262068E+03  0.47000000000E+01 0.  1.
         13    1    4    4    0    0  0.72076999133E+01  0.50334062527E+02  0.11191856962E+03  0.12292776340E+03  0.00000000000E+00 0. -1.
        -14    1    4    4    0    0 -0.55937746216E+02  0.52866886508E+02  0.63113867905E+02  0.99535418132E+02  0.00000000000E+00 0.  1.
</event>
<event>
12    1  0.1039610E+000  0.2503611E+03  0.7818608E-02  0.1113158E+00
         21   -1    0    0  503  502  0.00000000000E+00  0.00000000000E+00  0.32554768157E+03  0.32554768157E+03  0.00000000000E+00 0. -1.
         21   -1    0    0  501  503 -0.00000000000E+00 -0.00000000000E+00 -0.19909296244E+03  0.19909296244E+03  0.00000000000E+00 0. -1.
          6    2    1    2  501    0  0.16988602676E+03 -0.62615316541E+02  0.11230553349E+03  0.27439611076E+03  0.17291255822E+03 0.  0.
         24    2    3    3    0    0  0.18193063365E+03 -0.48545978163E+02  0.13469717193E+03  0.24495983535E+03  0.80040773063E+02 0.  0.
         -6    2    1    2    0  502 -0.16988602676E+03  0.62615316541E+02  0.14149185638E+02  0.25024453325E+03  0.17216325686E+03 0.  0.
        -24    2    5    5    0    0 -0.14693360769E+03 -0.77988393496E+01  0.40314075604E+02  0.17155744182E+03  0.78462884141E+02 0.  0.
          5    1    3    3  501    0 -0.12044606886E+02 -0.14069338378E+02 -0.22391638443E+02  0.29436275403E+02  0.47000000000E+01 0. -1.
        -11    1    4    4    0    0  0.73211392947E+02 -0.60698910850E+02  0.58744484424E+02  0.11178184238E+03  0.00000000000E+00 0.  1.
         12    1    4    4    0    0  0.10871924070E+03  0.12152932687E+02  0.75952687510E+02  0.13317799297E+03  0.00000000000E+00 0. -1.
         -5    1    5    5    0  502 -0.22952419074E+02  0.70414155891E+02 -0.26164889966E+02  0.78687091432E+02  0.47000000000E+01 0.  1.
         13    1    6    6    0    0 -0.72584182048E+02 -0.17418129689E+02  0.58000931160E+02  0.94530221310E+02  0.00000000000E+00 0. -1.
        -14    1    6    6    0    0 -0.74349425642E+02  0.96192903398E+01 -0.17686855556E+02  0.77027220510E+02  0.00000000000E+00 0.  1.
</event>
<event>
12    1  0.1039610E+000  0.1971695E+03  0.7818608E-02  0.1152228E+00
         21   -1    0    0  501  502  0.00000000000E+00  0.00000000000E+00  0.11614983259E+03  0.11614983259E+03  0.00000000000E+00 0.  1.
         21   -1    0    0  502  503 -0.00000000000E+00 -0.00000000000E+00 -0.33419277279E+03  0.33419277279E+03  0.00000000000E+00 0.  1.
         -6    2    1    2    0  503  0.74329054515E+02 -0.61432020368E+02 -0.11292697615E+03  0.22690317060E+03  0.17156294884E+03 0.  0.
        -24    2    3    3    0    0  0.44624440037E+02 -0.16104933076E+02  0.76783275771E+01  0.94598075268E+02  0.81480854267E+02 0.  0.
          6    2    1    2  501    0 -0.74329054515E+02  0.61432020368E+02 -0.10511596405E+03  0.22343943478E+03  0.17197998036E+03 0.  0.
         24    2    5    5    0    0  0.22425764591E+02  0.24969683266E+02 -0.34854995180E+02  0.98340710591E+02  0.85613227195E+02 0.  0.
          5    1    5    5  501    0 -0.96754819105E+02  0.36462337102E+02 -0.70260968871E+02  0.12509872419E+03  0.47000000000E+01 0. -1.
        -11    1    6    6    0    0 -0.30554789767E+02 -0.50338568823E+01 -0.13969838484E+02  0.33971918993E+02  0.00000000000E+00 0.  1.
         12    1    6    6    0    0  0.52980554358E+02  0.30003540148E+02 -0.20885156696E+02  0.64368791598E+02  0.00000000000E+00 0. -1.
         -5    1    3    3    0  503  0.29704614478E+02 -0.45327087292E+02 -0.12060530372E+03  0.13230509533E+03  0.47000000000E+01 0.  1.
         11    1    4    4    0    0  0.16316765880E+02 -0.43560014686E+02 -0.15287283852E+02  0.48963381989E+02  0.00000000000E+00 0. -1.
        -12    1    4    4    0    0  0.28307674156E+02  0.27455081610E+02  0.22965611429E+02  0.45634693279E+02  0.00000000000E+00 0.  1.
</event>
<event>
12    1  0.1039610E+000  0.3251155E+03  0.7818608E-02  0.1073344E+00
         21   -1    0    0  501  502  0.00000000000E+00  0.00000000000E+00  0.29136380474E+03  0.29136380474E+03  0.00000000000E+00 0. -1.
         21   -1    0    0  502  503 -0.00000000000E+00 -0.00000000000E+00 -0.37017310158E+03  0.37017310158E+03  0.00000000000E+00 0. -1.
         -6    2    1    2    0  503  0.10342139638E+02 -0.27625222489E+03 -0.86936425082E+02  0.33631983974E+03  0.17067759369E+03 0.  0.
        -24    2    3    3    0    0  0.44526389878E+02 -0.15120729468E+03  0.40897490868E+01  0.17785012049E+03  0.82265995100E+02 0.  0.
          6    2    1    2  501    0 -0.10342139638E+02  0.27625222489E+03  0.81271282399E+01  0.32521706658E+03  0.17110768122E+03 0.  0.
         24    2    5    5    0    0  0.43523116476E+02  0.23520833856E+03  0.29055689641E+02  0.25418073008E+03  0.80909741354E+02 0.  0.
          5    1    5    5  501    0 -0.53865256115E+02  0.41043886334E+02 -0.20928561402E+02  0.71036336505E+02  0.47000000000E+01 0. -1.
        -11    1    6    6    0    0 -0.22721743528E+02  0.60715492872E+02 -0.25561454770E+01  0.64878213472E+02  0.00000000000E+00 0.  1.
         12    1    6    6    0    0  0.66244860005E+02  0.17449284569E+03  0.31611835118E+02  0.18930251661E+03  0.00000000000E+00 0. -1.
         -5    1    3    3    0  503 -0.34184250239E+02 -0.12504493022E+03 -0.91026174169E+02  0.15846971926E+03  0.47000000000E+01 0.  1.
         11    1    4    4    0    0  0.99635642860E+01  0.91365685777E+01 -0.22328930024E+01  0.13701653543E+02  0.00000000000E+00 0. -1.
        -12    1    4    4    0    0  0.34562825592E+02 -0.16034386326E+03  0.63226420891E+01  0.16414846694E+03  0.00000000000E+00 0.  1.
</event>
<event>
12    1  0.1039610E+000  0.2158098E+03  0.7818608E-02  0.1140207E+00
         21   -1    0    0  501  502  0.00000000000E+00  0.00000000000E+00  0.89623497118E+03  0.89623497118E+03  0.00000000000E+00 0. -1.
         21   -1    0    0  502  503 -0.00000000000E+00 -0.00000000000E+00 -0.53786598096E+02  0.53786598096E+02  0.00000000000E+00 0. -1.
         -6    2    1    2    0  503 -0.36241680901E+01 -0.11659618945E+03  0.25399684279E+03  0.32324483372E+03  0.16237309010E+03 0.  0.
        -24    2    3    3    0    0  0.40808175275E+02 -0.55404675860E+02  0.21211252238E+03  0.23667104572E+03  0.79287303238E+02 0.  0.
          6    2    1    2  501    0  0.36241680901E+01  0.11659618945E+03  0.58845153029E+03  0.62677673556E+03  0.18156559901E+03 0.  0.
         24    2    5    5    0    0 -0.45652632047E+02  0.10335344642E+02  0.33751516137E+03  0.34980973135E+03  0.79116255165E+02 0.  0.
          5    1    5    5  501    0  0.49276800137E+02  0.10626084481E+03  0.25093636892E+03  0.27696700421E+03  0.47000000000E+01 0. -1.
        -13    1    6    6    0    0  0.97748893096E+01  0.10132712942E+02  0.91314904811E+01  0.16781074191E+02  0.00000000000E+00 0.  1.
         14    1    6    6    0    0 -0.55427521357E+02  0.20263169999E+00  0.32838367089E+03  0.33302865716E+03  0.00000000000E+00 0. -1.
         -5    1    3    3    0  503 -0.44432343366E+02 -0.61191513592E+02  0.41884320417E+02  0.86573788005E+02  0.47000000000E+01 0.  1.
         11    1    4    4    0    0  0.72270478823E+01 -0.32330706157E+02  0.18450224427E+03  0.18745288187E+03  0.00000000000E+00 0. -1.
        -12    1    4    4    0    0  0.33581127393E+02 -0.23073969703E+02  0.27610278103E+02  0.49218163840E+02  0.00000000000E+00 0.  1.
</event>
<event>
12    1  0.1039610E+000  0.3503775E+03  0.7818608E-02  0.1062506E+00
         21   -1    0    0  503  502  0.00000000000E+00  0.00000000000E+00  0.54847076025E+03  0.54847076025E+03  0.00000000000E+00 0. -1.
         21   -1    0    0  501  503 -0.00000000000E+00 -0.00000000000E+00 -0.25658009352E+03  0.25658009352E+03  0.00000000000E+00 0. -1.
          6    2    1    2  501    0 -0.18432815696E+03  0.24219671089E+03  0.29029791155E+03  0.45466976772E+03  0.17267195492E+03 0.  0.
         24    2    3    3    0    0 -0.11749640763E+03  0.62733397216E+02  0.13429151891E+03  0.20761987758E+03  0.85620771915E+02 0.  0.
         -6    2    1    2    0  502  0.18432815696E+03 -0.24219671089E+03  0.15927551766E+01  0.35038108605E+03  0.17357491863E+03 0.  0.
        -24    2    5    5    0    0  0.23712450448E+02 -0.10969106600E+03 -0.22204260087E+02  0.14075394315E+03  0.82001421198E+02 0.  0.
          5    1    3    3  501    0 -0.66831749326E+02  0.17946331368E+03  0.15600639265E+03  0.24704989014E+03  0.47000000000E+01 0. -1.
        -13    1    4    4    0    0 -0.66532559831E+02  0.42069183582E+02  0.13061737356E+03  0.15250342947E+03  0.00000000000E+00 0.  1.
         14    1    4    4    0    0 -0.50963847804E+02  0.20664213633E+02  0.36741453450E+01  0.55116448108E+02  0.00000000000E+00 0. -1.
         -5    1    5    5    0  502  0.16061570651E+03 -0.13250564489E+03  0.23797015264E+02  0.20962714290E+03  0.47000000000E+01 0.  1.
         11    1    6    6    0    0 -0.61279733441E+01 -0.42697866287E+02  0.28405265837E+02  0.51648029682E+02  0.00000000000E+00 0. -1.
        -12    1    6    6    0    0  0.29840423792E+02 -0.66993199717E+02 -0.50609525924E+02  0.89105913466E+02  0.00000000000E+00 0.  1.
</event>
<event>
12    1  0.1039610E+000  0.1738954E+03  0.7818608E-02  0.1174113E+00
         21   -1    0    0  503  502  0.00000000000E+00  0.00000000000E+00  0.44575827709E+03  0.44575827709E+03  0.00000000000E+00 0.  1.
         21   -1    0    0  501  503 -0.00000000000E+00 -0.00000000000E+00 -0.76682217164E+02  0.76682217164E+02  0.00000000000E+00 0.  1.
          6    2    1    2  501    0  0.19119597008E+02  0.15608843425E+02  0.27578075605E+03  0.32602857439E+03  0.17213486261E+03 0.  0.
         24    2    3    3    0    0  0.51910048799E+02  0.35667900976E+02  0.83103754423E+02  0.12949843300E+03  0.76790349804E+02 0.  0.
         -6    2    1    2    0  502 -0.19119597008E+02 -0.15608843425E+02  0.93295303872E+02  0.19641191986E+03  0.17106850545E+03 0.  0.
        -24    2    5    5    0    0 -0.42290943858E+02 -0.65909668409E+02  0.39825842080E+02  0.11928761985E+03  0.80689715758E+02 0.  0.
          5    1    3    3  501    0 -0.32790451791E+02 -0.20059057552E+02  0.19267700163E+03  0.19653014139E+03  0.47000000000E+01 0. -1.
        -13    1    4    4    0    0 -0.17288569296E+02  0.23309662257E+02  0.24029094730E+02  0.37678009188E+02  0.00000000000E+00 0.  1.
         14    1    4    4    0    0  0.69198618095E+02  0.12358238719E+02  0.59074659693E+02  0.91820423808E+02  0.00000000000E+00 0. -1.
         -5    1    5    5    0  502  0.23171346850E+02  0.50300824984E+02  0.53469461792E+02  0.77124300017E+02  0.47000000000E+01 0.  1.
         11    1    6    6    0    0  0.10692335661E+02 -0.56709509436E+02  0.12838185252E+02  0.59119484968E+02  0.00000000000E+00 0. -1.
        -12    1    6    6    0    0 -0.52983279519E+02 -0.92001589729E+01  0.26987656828E+02  0.60168134878E+02  0.00000000000E+00 0.  1.
</event>
<event>
12    1  0.1039610E+000  0.1963527E+03  0.7818608E-02  0.1153588E+00
         21   -1    0    0  501  502  0.00000000000E+00  0.00000000000E+00  0.11018422541E+03  0.11018422541E+03  0.00000000000E+00 0.  1.
         21   -1    0    0  502  503 -0.00000000000E+00 -0.00000000000E+00 -0.36028990573E+03  0.36028990573E+03  0.00000000000E+00 0.  1.
         -6    2    1    2    0  503 -0.75919824237E+01 -0.94458552249E+02 -0.17414222078E+03  0.25993951831E+03  0.16811598327E+03 0.  0.
        -24    2    3    3    0    0 -0.25973251011E+02 -0.55111512982E+02 -0.18870067559E+03  0.21389498399E+03  0.80194953560E+02 0.  0.
          6    2    1    2  501    0  0.75919824237E+01  0.94458552249E+02 -0.75963459541E+02  0.21053461283E+03  0.17197185736E+03 0.  0.
         24    2    5    5    0    0  0.33079140074E+02  0.40363092969E+02  0.20102850277E+02  0.97279415152E+02  0.79597432377E+02 0.  0.
          5    1    5    5  501    0 -0.25487157650E+02  0.54095459280E+02 -0.96066309818E+02  0.11325519768E+03  0.47000000000E+01 0. -1.
        -11    1    6    6    0    0  0.39564437982E+02  0.32878235246E+02 -0.20581602175E+02  0.55406907997E+02  0.00000000000E+00 0.  1.
         12    1    6    6    0    0 -0.64852979084E+01  0.74848577229E+01  0.40684452452E+02  0.41872507155E+02  0.00000000000E+00 0. -1.
         -5    1    3    3    0  503  0.18381268588E+02 -0.39347039266E+02  0.14558454814E+02  0.46044534317E+02  0.47000000000E+01 0.  1.
         13    1    4    4    0    0  0.21222208903E+02 -0.44439286434E+02 -0.68888168471E+02  0.84680647641E+02  0.00000000000E+00 0. -1.
        -14    1    4    4    0    0 -0.47195459915E+02 -0.10672226548E+02 -0.11981250712E+03  0.12921433635E+03  0.00000000000E+00 0.  1.
</event>
<event>
12    1  0.1039610E+000  0.1891935E+03  0.7818608E-02  0.1159479E+00
         21   -1    0    0  501  502  0.00000000000E+00  0.00000000000E+00  0.51293021234E+02  0.51293021234E+02  0.00000000000E+00 0.  1.
         21   -1    0    0  502  503 -0.00000000000E+00 -0.00000000000E+00 -0.12318324630E+04  0.12318324630E+04  0.00000000000E+00 0.  1.
         -6    2    1    2    0  503  0.33222442209E+02  0.67548092087E+02 -0.10134009182E+04  0.10306785390E+04  0.17219278268E+03 0.  0.
        -24    2    3    3    0    0  0.72170837904E+02 -0.15765545835E+01 -0.47615235694E+03  0.48758250620E+03  0.76187387183E+02 0.  0.
          6    2    1    2  501    0 -0.33222442209E+02 -0.67548092087E+02 -0.16713852355E+03  0.25244694518E+03  0.17357332360E+03 0.  0.
         24    2    5    5    0    0 -0.77292123274E+02 -0.38680220122E+02 -0.57772096272E+02  0.13096198218E+03  0.79644170652E+02 0.  0.
          5    1    5    5  501    0  0.44069681066E+02 -0.28867871965E+02 -0.10936642728E+03  0.12148496300E+03  0.47000000000E+01 0. -1.
        -11    1    6    6    0    0  0.54962014272E+01 -0.14271950295E+02 -0.40021549741E+02  0.42844150581E+02  0.00000000000E+00 0.  1.
         12    1    6    6    0    0 -0.82788324702E+02 -0.24408269827E+02 -0.17750546531E+02  0.88117831595E+02  0.00000000000E+00 0. -1.
         -5    1    3    3    0  503 -0.38948395695E+02  0.69124646671E+02 -0.53724856123E+03  0.54309603281E+03  0.47000000000E+01 0.  1.
         11    1    4    4    0    0 -0.10887192736E+02 -0.55083992265E+00 -0.17038556937E+03  0.17073393523E+03  0.00000000000E+00 0. -1.
        -12    1    4    4    0    0  0.83058030640E+02 -0.10257146609E+01 -0.30576678758E+03  0.31684857098E+03  0.00000000000E+00 0.  1.
</event>
<event>
12    1  0.1039610E+000  0.3176447E+03  0.7818608E-02  0.1076863E+00
         21   -1    0    0  503  502  0.00000000000E+00  0.00000000000E+00  0.40445402207E+03  0.40445402207E+03  0.00000000000E+00 0.  1.
         21   -1    0    0  501  503 -0.00000000000E+00 -0.00000000000E+00 -0.30715835236E+03  0.30715835236E+03  0.00000000000E+00 0.  1.
          6    2    1    2  501    0  0.99060911019E+02  0.24843560352E+03 -0.10660641414E+03  0.33505681048E+03  0.17136168045E+03 0.  0.
         24    2    3    3    0    0 -0.13585481399E+02  0.98562548374E+02 -0.25331587266E+02  0.13065810729E+03  0.80812811116E+02 0.  0.
         -6    2    1    2    0  502 -0.99060911019E+02 -0.24843560352E+03  0.20390208386E+03  0.37655556395E+03  0.16936563922E+03 0.  0.
        -24    2    5    5    0    0 -0.11334871364E+03 -0.13371560761E+03  0.85018769819E+02  0.21066357763E+03  0.80144601306E+02 0.  0.
          5    1    3    3  501    0  0.11264639242E+03  0.14987305515E+03 -0.81274826874E+02  0.20439870319E+03  0.47000000000E+01 0. -1.
        -11    1    4    4    0    0 -0.14521263539E+02  0.47087444024E+02  0.27880980168E+02  0.56616636553E+02  0.00000000000E+00 0.  1.
         12    1    4    4    0    0  0.93578213992E+00  0.51475104351E+02 -0.53212567433E+02  0.74041470738E+02  0.00000000000E+00 0. -1.
         -5    1    5    5    0  502  0.14287802622E+02 -0.11471999592E+03  0.11888331404E+03  0.16589198631E+03  0.47000000000E+01 0.  1.
         11    1    6    6    0    0 -0.44564905462E+02 -0.24382162832E+02  0.60823529141E+02  0.79246592106E+02  0.00000000000E+00 0. -1.
        -12    1    6    6    0    0 -0.68783808179E+02 -0.10933344477E+03  0.24195240677E+02  0.13141698553E+03  0.00000000000E+00 0.  1.
</event>
<event>
12    1  0.1039610E+000  0.1958288E+03  0.7818608E-02  0.1154714E+00
         21   -1    0    0  503  502  0.00000000000E+00  0.00000000000E+00  0.16274856888E+03  0.16274856888E+03  0.00000000000E+00 0. -1.
         21   -1    0    0  501  503 -0.00000000000E+00 -0.00000000000E+00 -0.22810134408E+03  0.22810134408E+03  0.00000000000E+00 0. -1.
          6    2    1    2  501    0 -0.71415730396E+02  0.30150837828E+02 -0.35825056371E+02  0.19280752727E+03  0.17286419044E+03 0.  0.
         24    2    3    3    0    0 -0.25794879070E+02  0.32932044871E+02  0.47387909564E+02  0.97752359664E+02  0.74565504635E+02 0.  0.
         -6    2    1    2    0  502  0.71415730396E+02 -0.30150837828E+02 -0.29527718830E+02  0.19804238569E+03  0.17983220173E+03 0.  0.
        -24    2    5    5    0    0  0.11185734319E+02  0.31328950616E+01  0.48804256991E+02  0.93670704959E+02  0.79103791207E+02 0.  0.
          5    1    3    3  501    0 -0.45620851326E+02 -0.27812070425E+01 -0.83212965934E+02  0.95055167602E+02  0.47000000000E+01 0. -1.
        -11    1    4    4    0    0  0.21799942493E+02  0.24294602405E+02  0.34917585503E+02  0.47798566674E+02  0.00000000000E+00 0.  1.
         12    1    4    4    0    0 -0.47594821563E+02  0.86374424654E+01  0.12470324061E+02  0.49953792990E+02  0.00000000000E+00 0. -1.
         -5    1    5    5    0  502  0.60229996077E+02 -0.33283732890E+02 -0.78331975821E+02  0.10437168073E+03  0.47000000000E+01 0.  1.
         13    1    6    6    0    0 -0.28621931467E+02  0.18342705799E+02  0.85588256701E+01  0.35056002536E+02  0.00000000000E+00 0. -1.
        -14    1    6    6    0    0  0.39807665786E+02 -0.15209810738E+02  0.40245431321E+02  0.58614702423E+02  0.00000000000E+00 0.  1.
</event>
<event>
12    1  0.1039610E+000  0.2729873E+03  0.7818608E-02  0.1099830E+00
         21   -1    0    0  501  502  0.00000000000E+00  0.00000000000E+00  0.13447461507E+04  0.13447461507E+04  0.00000000000E+00 0. -1.
         21   -1    0    0  502  503 -0.00000000000E+00 -0.00000000000E+00 -0.93811359319E+02  0.93811359319E+02  0.00000000000E+00 0. -1.
         -6    2    1    2    0  503 -0.19360556571E+03 -0.85239331171E+02  0.16201127772E+03  0.31593713738E+03  0.16976384189E+03 0.  0.
        -24    2    3    3    0    0 -0.70888184515E+02 -0.12427408609E+02  0.95285161139E+01  0.10704909487E+03  0.78671093198E+02 0.  0.
          6    2    1    2  501    0  0.19360556571E+03  0.85239331171E+02  0.10889235136E+04  0.11226203726E+04  0.17254919242E+03 0.  0.
         24    2    5    5    0    0  0.98831711426E+02 -0.21671281071E+02  0.44797531178E+03  0.46592512372E+03  0.78530181052E+02 0.  0.
          5    1    5    5  501    0  0.94773854288E+02  0.10691061224E+03  0.64094820183E+03  0.65669524887E+03  0.47000000000E+01 0. -1.
        -13    1    6    6    0    0  0.82144093817E+02 -0.20163311863E+02  0.43868812550E+03  0.44676781750E+03  0.00000000000E+00 0.  1.
         14    1    6    6    0    0  0.16687617609E+02 -0.15079692089E+01  0.92871862835E+01  0.19157306222E+02  0.00000000000E+00 0. -1.
         -5    1    3    3    0  503 -0.12271738120E+03 -0.72811922562E+02  0.15248276161E+03  0.20888804251E+03  0.47000000000E+01 0.  1.
         11    1    4    4    0    0 -0.49165814322E+01  0.20025607508E+02  0.24495695856E+02  0.32019319863E+02  0.00000000000E+00 0. -1.
        -12    1    4    4    0    0 -0.65971603082E+02 -0.32453016117E+02 -0.14967179742E+02  0.75029775008E+02  0.00000000000E+00 0.  1.
</event>
<event>
12    1  0.1039610E+000  0.2583478E+03  0.7818608E-02  0.1108257E+00
         21   -1    0    0  501  502  0.00000000000E+00  0.00000000000E+00  0.48850575348E+03  0.48850575348E+03  0.00000000000E+00 0. -1.
         21   -1    0    0  502  503 -0.00000000000E+00 -0.00000000000E+00 -0.22815383139E+03  0.22815383139E+03  0.00000000000E+00 0. -1.
         -6    2    1    2    0  503 -0.18060220947E+03  0.65477553894E+02 -0.97166840442E+02  0.27601630291E+03  0.17274008355E+03 0.  0.
        -24    2    3    3    0    0 -0.16140283485E+03  0.15107947029E+02 -0.12047319844E+03  0.21710119785E+03  0.79624201129E+02 0.  0.
          6    2    1    2  501    0  0.18060220947E+03 -0.65477553894E+02  0.35751876253E+03  0.44064328195E+03  0.17158778581E+03 0.  0.
         24    2    5    5    0    0  0.15715598045E+03 -0.10832753858E+03  0.28789444430E+03  0.35546416167E+03  0.83896968745E+02 0.  0.
          5    1    5    5  501    0  0.23446229017E+02  0.42849984689E+02  0.69624318229E+02  0.85179120280E+02  0.47000000000E+01 0. -1.
        -11    1    6    6    0    0  0.12042235421E+03 -0.33567331461E+02  0.18011055154E+03  0.21924442960E+03  0.00000000000E+00 0.  1.
         12    1    6    6    0    0  0.36733626237E+02 -0.74760207122E+02  0.10778389276E+03  0.13621973207E+03  0.00000000000E+00 0. -1.
         -5    1    3    3    0  503 -0.19199374616E+02  0.50369606865E+02  0.23306357995E+02  0.58915105061E+02  0.47000000000E+01 0.  1.
         11    1    4    4    0    0 -0.36340111478E+02 -0.12338060960E+02  0.39312000545E+01  0.38578307173E+02  0.00000000000E+00 0. -1.
        -12    1    4    4    0    0 -0.12506272337E+03  0.27446007989E+02 -0.12440439849E+03  0.17852289068E+03  0.00000000000E+00 0.  1.
</event>
<event>
12    1  0.1039610E+000  0.2896767E+03  0.7818608E-02  0.1090846E+00
         21   -1    0    0  503  502  0.00000000000E+00  0.00000000000E+00  0.13470004636E+04  0.13470004636E+04  0.00000000000E+00 0. -1.
         21   -1    0    0  501  503 -0.00000000000E+00 -0.00000000000E+00 -0.11481935945E+03  0.11481935945E+03  0.00000000000E+00 0. -1.
          6    2    1    2  501    0  0.20700357167E+03  0.98899994150E+02  0.11779643378E+03  0.31040080157E+03  0.17274539148E+03 0.  0.
         24    2    3    3    0    0  0.67136399947E+02  0.81290224017E+02  0.99646166382E+01  0.13285441181E+03  0.80222219077E+02 0.  0.
         -6    2    1    2    0  502 -0.20700357167E+03 -0.98899994150E+02  0.11143846703E+04  0.11514190214E+04  0.17686402099E+03 0.  0.
        -24    2    5    5    0    0 -0.95994296420E+02 -0.63559882691E+02  0.86353937440E+03  0.87480117103E+03  0.79511471300E+02 0.  0.
          5    1    3    3  501    0  0.13986717172E+03  0.17609770133E+02  0.10783181714E+03  0.17754638976E+03  0.47000000000E+01 0. -1.
        -13    1    4    4    0    0  0.74477987787E+02  0.69848959527E+02 -0.16185477721E+02  0.10338190122E+03  0.00000000000E+00 0.  1.
         14    1    4    4    0    0 -0.73415878400E+01  0.11441264491E+02  0.26150094359E+02  0.29472510584E+02  0.00000000000E+00 0. -1.
         -5    1    5    5    0  502 -0.11100927525E+03 -0.35340111460E+02  0.25084529592E+03  0.27661785039E+03  0.47000000000E+01 0.  1.
         13    1    6    6    0    0 -0.26888419333E+02  0.79031238918E+01  0.38643807471E+03  0.38745300624E+03  0.00000000000E+00 0. -1.
        -14    1    6    6    0    0 -0.69105877087E+02 -0.71463006582E+02  0.47710129970E+03  0.48734816480E+03  0.00000000000E+00 0.  1.
</event>
<event>
12    1  0.1039610E+000  0.2407280E+03  0.7818608E-02  0.1119533E+00
         21   -1    0    0  501  502  0.00000000000E+00  0.00000000000E+00  0.91662494403E+03  0.91662494403E+03  0.00000000000E+00 0. -1.
         21   -1    0    0  502  503 -0.00000000000E+00 -0.00000000000E+00 -0.93598795146E+02  0.93598795146E+02  0.00000000000E+00 0. -1.
         -6    2    1    2    0  503 -0.67129760870E+02  0.15603911000E+03  0.12286256144E+03  0.27026875054E+03  0.17057367872E+03 0.  0.
        -24    2    3    3    0    0 -0.37379729051E+02  0.12777078216E+03  0.15432464713E+03  0.21834461754E+03  0.78330443506E+02 0.  0.
          6    2    1    2  501    0  0.67129760870E+02 -0.15603911000E+03  0.70016358745E+03  0.73995498863E+03  0.16867046977E+03 0.  0.
         24    2    5    5    0    0  0.19208432579E+02 -0.16318248741E+03  0.46403260782E+03  0.49885871930E+03  0.80847217797E+02 0.  0.
          5    1    5    5  501    0  0.47921328291E+02  0.71433774067E+01  0.23613097963E+03  0.24109626934E+03  0.47000000000E+01 0. -1.
        -13    1    6    6    0    0  0.37629719854E+02 -0.51573263160E+02  0.10989324311E+03  0.12709178640E+03  0.00000000000E+00 0.  1.
         14    1    6    6    0    0 -0.18421287275E+02 -0.11160922425E+03  0.35413936471E+03  0.37176693290E+03  0.00000000000E+00 0. -1.
         -5    1    3    3    0  503 -0.29750031819E+02  0.28268327845E+02 -0.31462085690E+02  0.51924133005E+02  0.47000000000E+01 0.  1.
         13    1    4    4    0    0  0.17066926905E+02  0.25382390574E+02  0.65435739583E+02  0.72231445784E+02  0.00000000000E+00 0. -1.
        -14    1    4    4    0    0 -0.54446655956E+02  0.10238839158E+03  0.88888907545E+02  0.14611317175E+03  0.00000000000E+00 0.  1.
</event>
<event>
12    1  0.1039610E+000  0.1809341E+03  0.7818608E-02  0.1167865E+00
         21   -1    0    0  503  502  0.00000000000E+00  0.00000000000E+00  0.12227906740E+03  0.12227906740E+03  0.00000000000E+00 0. -1.
         21   -1    0    0  501  503 -0.00000000000E+00 -0.00000000000E+00 -0.34143883200E+03  0.34143883200E+03  0.00000000000E+00 0. -1.
          6    2    1    2  501    0 -0.28563442463E+02  0.26331814459E+02 -0.22055452419E+03  0.28277838414E+03  0.17265596340E+03 0.  0.
         24    2    3    3    0    0 -0.32851647567E+02  0.28619954759E+02 -0.24264176847E+03  0.25967945238E+03  0.81609176107E+02 0.  0.
         -6    2    1    2    0  502  0.28563442463E+02 -0.26331814459E+02  0.13947595942E+01  0.18093951526E+03  0.17671425559E+03 0.  0.
        -24    2    5    5    0    0 -0.33128734536E+01 -0.22685494803E+02 -0.59206634914E+02  0.11220805099E+03  0.92518183536E+02 0.  0.
          5    1    3    3  501    0  0.42882051048E+01 -0.22881402997E+01  0.22087244273E+02  0.23098931764E+02  0.47000000000E+01 0. -1.
        -13    1    4    4    0    0  0.22699995763E+02  0.18161984292E+02 -0.40977015720E+02  0.50242047116E+02  0.00000000000E+00 0.  1.
         14    1    4    4    0    0 -0.55551643330E+02  0.10457970466E+02 -0.20166475275E+03  0.20943740526E+03  0.00000000000E+00 0. -1.
         -5    1    5    5    0  502  0.31876315916E+02 -0.36463196554E+01  0.60601394509E+02  0.68731464263E+02  0.47000000000E+01 0.  1.
         13    1    6    6    0    0  0.81212613514E+01  0.34247351580E+02 -0.11418228912E+02  0.37002863777E+02  0.00000000000E+00 0. -1.
        -14    1    6    6    0    0 -0.11434134805E+02 -0.56932846383E+02 -0.47788406002E+02  0.75205187216E+02  0.00000000000E+00 0.  1.
</event>
<event>
12    1  0.1039610E+000  0.4882545E+03  0.7818608E-02  0.1017024E+00
         21   -1    0    0  503  502  0.00000000000E+00  0.00000000000E+00  0.99698752553E+02  0.99698752553E+02  0.00000000000E+00 0. -1.
         21   -1    0    0  501  503 -0.00000000000E+00 -0.00000000000E+00 -0.24420514802E+04  0.24420514802E+04  0.00000000000E+00 0. -1.
          6    2    1    2  501    0 -0.43849681277E+03 -0.12936504589E+03 -0.97329454651E+03  0.10888961258E+04  0.17139932494E+03 0.  0.
         24    2    3    3    0    0 -0.10221402148E+03 -0.34257530793E+02 -0.20618995631E+03  0.24592335195E+03  0.79641147306E+02 0.  0.
         -6    2    1    2    0  502  0.43849681277E+03  0.12936504589E+03 -0.13690581812E+04  0.14528541070E+04  0.16568036361E+03 0.  0.
        -24    2    5    5    0    0  0.22747524391E+03  0.12128595771E+03 -0.86741428520E+03  0.90855266244E+03  0.81271939298E+02 0.  0.
          5    1    3    3  501    0 -0.33628279128E+03 -0.95107515094E+02 -0.76710459019E+03  0.84297277384E+03  0.47000000000E+01 0. -1.
        -11    1    4    4    0    0 -0.39426475117E+02 -0.68985167360E-01 -0.14970527342E+03  0.15480994990E+03  0.00000000000E+00 0.  1.
         12    1    4    4    0    0 -0.62787546365E+02 -0.34188545625E+02 -0.56484682897E+02  0.91113402047E+02  0.00000000000E+00 0. -1.
         -5    1    5    5    0  502  0.21102156886E+03  0.80790881729E+01 -0.50164389597E+03  0.54430144457E+03  0.47000000000E+01 0.  1.
         13    1    6    6    0    0  0.10824291745E+03  0.31716681212E+02 -0.48840501913E+03  0.50126035128E+03  0.00000000000E+00 0. -1.
        -14    1    6    6    0    0  0.11923232645E+03  0.89569276502E+02 -0.37900926607E+03  0.40729231116E+03  0.00000000000E+00 0.  1.
</event>
<event>
12    1  0.1039610E+000  0.2899189E+03  0.7818608E-02  0.1090679E+00
         21   -1    0    0  503  502  0.00000000000E+00  0.00000000000E+00  0.19644860449E+04  0.19644860449E+04  0.00000000000E+00 0.  1.
         21   -1    0    0  501  503 -0.00000000000E+00 -0.00000000000E+00 -0.72731508556E+02  0.72731508556E+02  0.00000000000E+00 0.  1.
          6    2    1    2  501    0  0.18473643507E+03 -0.14103826570E+03  0.16050774316E+04  0.16310507375E+04  0.17330206038E+03 0.  0.
         24    2    3    3    0    0  0.17287696529E+03 -0.69528051801E+02  0.91291808398E+03  0.93509024281E+03  0.79080585629E+02 0.  0.
         -6    2    1    2    0  502 -0.18473643507E+03  0.14103826570E+03  0.28667710483E+03  0.40616681601E+03  0.16961243222E+03 0.  0.
        -24    2    5    5    0    0 -0.10860497624E+03  0.38625390823E+02  0.22670948561E+03  0.26509023638E+03  0.74757480444E+02 0.  0.
          5    1    3    3  501    0  0.11859469777E+02 -0.71510213902E+02  0.69215934758E+03  0.69596049468E+03  0.47000000000E+01 0. -1.
        -13    1    4    4    0    0  0.53849913379E+02  0.15548759104E+02  0.24237475232E+03  0.24877117526E+03  0.00000000000E+00 0.  1.
         14    1    4    4    0    0  0.11902705191E+03 -0.85076810905E+02  0.67054333166E+03  0.68631906755E+03  0.00000000000E+00 0. -1.
         -5    1    5    5    0  502 -0.76131458826E+02  0.10241287488E+03  0.59967619226E+02  0.14107657963E+03  0.47000000000E+01 0.  1.
         13    1    6    6    0    0 -0.60347905596E+02  0.59516530789E+02  0.14317630684E+03  0.16638371912E+03  0.00000000000E+00 0. -1.
        -14    1    6    6    0    0 -0.48257070643E+02 -0.20891139967E+02  0.83533178768E+02  0.98706517268E+02  0.00000000000E+00 0.  1.
</event>
<event>
12    1  0.1039610E+000  0.2034596E+03  0.7818608E-02  0.1146893E+00
         21   -1    0    0  503  502  0.00000000000E+00  0.00000000000E+00  0.37024834043E+03  0.37024834043E+03  0.00000000000E+00 0.  1.
         21   -1    0    0  501  503 -0.00000000000E+00 -0.00000000000E+00 -0.12175417413E+03  0.12175417413E+03  0.00000000000E+00 0.  1.
          6    2    1    2  501    0  0.60097418470E+02  0.90522743711E+02  0.19499895565E+03  0.28181626620E+03  0.17201670953E+03 0.  0.
         24    2    3    3    0    0  0.10614040929E+03  0.72204994012E+02  0.16483947721E+03  0.22361677224E+03  0.79706084681E+02 0.  0.
         -6    2    1    2    0  502 -0.60097418470E+02 -0.90522743711E+02  0.53495210647E+02  0.21018624836E+03  0.17178607220E+03 0.  0.
        -24    2    5    5    0    0  0.34001674708E+02 -0.44290527297E+02  0.27633645647E+02  0.10209847053E+03  0.80887048544E+02 0.  0.
          5    1    3    3  501    0 -0.46042990821E+02  0.18317749698E+02  0.30159478434E+02  0.58199493960E+02  0.47000000000E+01 0. -1.
        -13    1    4    4    0    0  0.35893577932E+01 -0.12545106487E+02  0.36509509681E+02  0.38771219780E+02  0.00000000000E+00 0.  1.
         14    1    4    4    0    0  0.10255105150E+03  0.84750100499E+02  0.12832996753E+03  0.18484555246E+03  0.00000000000E+00 0. -1.
         -5    1    5    5    0  502 -0.94099093178E+02 -0.46232216414E+02  0.25861565001E+02  0.10808777783E+03  0.47000000000E+01 0.  1.
         13    1    6    6    0    0 -0.76947647130E+01 -0.53921278276E+02  0.22745385523E+02  0.59025979174E+02  0.00000000000E+00 0. -1.
        -14    1    6    6    0    0  0.41696439421E+02  0.96307509787E+01  0.48882601236E+01  0.43072491358E+02  0.00000000000E+00 0.  1.
</event>
<event>
12    1  0.1039610E+000  0.1796242E+03  0.7818608E-02  0.1168428E+00
         21   -1    0    0  501  502  0.00000000000E+00  0.00000000000E+00  0.26448725400E+03  0.26448725400E+03  0.00000000000E+00 0. -1.
         21   -1    0    0  502  503 -0.00000000000E+00 -0.00000000000E+00 -0.12219524658E+03  0.12219524658E+03  0.00000000000E+00 0.  1.
         -6    2    1    2    0  503 -0.17090704590E+02 -0.49461487274E+02  0.54481518210E+02  0.18770481958E+03  0.17183228032E+03 0.  0.
        -24    2    3    3    0    0 -0.70087615475E+02  0.12579683391E+01  0.37893107382E+02  0.11234965310E+03  0.79200382816E+02 0.  0.
          6    2    1    2  501    0  0.17090704590E+02  0.49461487274E+02  0.87810489207E+02  0.19897768099E+03  0.17071293042E+03 0.  0.
         24    2    5    5    0    0  0.48219436641E+02  0.21889658343E+02 -0.66144052924E+01  0.95694795622E+02  0.79432187049E+02 0.  0.
          5    1    5    5  501    0 -0.31128732051E+02  0.27571828932E+02  0.94424894499E+02  0.10328288537E+03  0.47000000000E+01 0. -1.
        -13    1    6    6    0    0 -0.17148252433E+02  0.24358260927E+02 -0.53666946387E+01  0.30268611601E+02  0.00000000000E+00 0.  1.
         14    1    6    6    0    0  0.65367689075E+02 -0.24686025844E+01 -0.12477106537E+01  0.65426184021E+02  0.00000000000E+00 0. -1.
         -5    1    3    3    0  503  0.52996910885E+02 -0.50719455614E+02  0.16588410829E+02  0.75355166478E+02  0.47000000000E+01 0.  1.
         13    1    4    4    0    0 -0.37773338380E+02 -0.25446847488E+02  0.51048713507E+02  0.68412997962E+02  0.00000000000E+00 0. -1.
        -14    1    4    4    0    0 -0.32314277096E+02  0.26704815827E+02 -0.13155606125E+02  0.43936655142E+02  0.00000000000E+00 0.  1.
</event>
<event>
12    1  0.1039610E+000  0.1878091E+03  0.7818608E-02  0.1161424E+00
         21   -1    0    0  503  502  0.00000000000E+00  0.00000000000E+00  0.26708686590E+02  0.26708686590E+02  0.00000000000E+00 0.  1.
         21   -1    0    0  501  503 -0.00000000000E+00 -0.00000000000E+00 -0.13912101271E+04  0.13912101271E+04  0.00000000000E+00 0.  1.
          6    2    1    2  501    0  0.45768540409E+02  0.43669523446E+02 -0.48511241117E+03  0.51869841298E+03  0.17237228775E+03 0.  0.
         24    2    3    3    0    0  0.73917082664E+02  0.11885130883E+02 -0.19983505455E+03  0.23024070682E+03  0.86439242267E+02 0.  0.
         -6    2    1    2    0  502 -0.45768540409E+02 -0.43669523446E+02 -0.87938902930E+03  0.89922040067E+03  0.17683460511E+03 0.  0.
        -24    2    5    5    0    0  0.21600746268E+02 -0.17323823037E+02 -0.70895036113E+03  0.71400661521E+03  0.80175588153E+02 0.  0.
          5    1    3    3  501    0 -0.28148542255E+02  0.31784392563E+02 -0.28527735662E+03  0.28845770616E+03  0.47000000000E+01 0. -1.
        -13    1    4    4    0    0  0.84855092243E+02 -0.26699941437E+01 -0.19290378209E+03  0.21075906787E+03  0.00000000000E+00 0.  1.
         14    1    4    4    0    0 -0.10938009579E+02  0.14555125027E+02 -0.69312724688E+01  0.19481638948E+02  0.00000000000E+00 0. -1.
         -5    1    5    5    0  502 -0.67369286677E+02 -0.26345700409E+02 -0.17043866817E+03  0.18521378546E+03  0.47000000000E+01 0.  1.
         13    1    6    6    0    0  0.29799246589E+02 -0.27531770857E+02 -0.68869020407E+03  0.68988418643E+03  0.00000000000E+00 0. -1.
        -14    1    6    6    0    0 -0.81985003209E+01  0.10207947820E+02 -0.20260157056E+02  0.24122428778E+02  0.00000000000E+00 0.  1.
</event>
<event>
12    1  0.1039610E+000  0.3103563E+03  0.7818608E-02  0.1080277E+00
         21   -1    0    0  503  502  0.00000000000E+00  0.00000000000E+00  0.16629707353E+04  0.16629707353E+04  0.00000000000E+00 0. -1.
         21   -1    0    0  501  503 -0.00000000000E+00 -0.00000000000E+00 -0.58812209263E+02  0.58812209263E+02  0.00000000000E+00 0. -1.
          6    2    1    2  501    0 -0.25165240975E+03 -0.56258451504E+02  0.68597872949E+03  0.75256926096E+03  0.17117162886E+03 0.  0.
         24    2    3    3    0    0 -0.26119955862E+03 -0.35681617058E+02  0.55837446411E+03  0.62287927403E+03  0.81842291176E+02 0.  0.
         -6    2    1    2    0  502  0.25165240975E+03  0.56258451504E+02  0.91817979659E+03  0.96921368364E+03  0.17270517364E+03 0.  0.
        -24    2    5    5    0    0  0.34178794501E+02  0.13496755385E+02  0.23058885798E+03  0.24676872045E+03  0.79832496954E+02 0.  0.
          5    1    3    3  501    0  0.95471488616E+01 -0.20576834447E+02  0.12760426538E+03  0.12968998693E+03  0.47000000000E+01 0. -1.
        -13    1    4    4    0    0 -0.11359773791E+03 -0.52881137127E+02  0.21729644913E+03  0.25083581787E+03  0.00000000000E+00 0.  1.
         14    1    4    4    0    0 -0.14760182071E+03  0.17199520069E+02  0.34107801498E+03  0.37204345616E+03  0.00000000000E+00 0. -1.
         -5    1    5    5    0  502  0.21747361525E+03  0.42761696120E+02  0.68759093860E+03  0.72244496319E+03  0.47000000000E+01 0.  1.
         13    1    6    6    0    0  0.76767253526E+01 -0.83744624842E+00  0.21030571942E+03  0.21044744961E+03  0.00000000000E+00 0. -1.
        -14    1    6    6    0    0  0.26502069149E+02  0.14334201633E+02  0.20283138564E+02  0.36321270843E+02  0.00000000000E+00 0.  1.
</event>
<event>
12    1  0.1039610E+000  0.1785042E+03  0.7818608E-02  0.1169455E+00
         21   -1    0    0  501  502  0.00000000000E+00  0.00000000000E+00  0.10486457434E+03  0.10486457434E+03  0.00000000000E+00 0. -1.
         21   -1    0    0  502  503 -0.00000000000E+00 -0.00000000000E+00 -0.33335913441E+03  0.33335913441E+03  0.00000000000E+00 0. -1.
         -6    2    1    2    0  503  0.17636312440E+02 -0.42504859337E+02 -0.47346108365E+02  0.18390398712E+03  0.17164300137E+03 0.  0.
        -24    2    3    3    0    0 -0.16860859847E+02  0.20380008813E+02 -0.70963952446E+02  0.10824386488E+03  0.77338337092E+02 0.  0.
          6    2    1    2  501    0 -0.17636312440E+02  0.42504859337E+02 -0.18114845170E+03  0.25431972163E+03  0.17247045160E+03 0.  0.
         24    2    5    5    0    0 -0.55944253384E+02  0.25362053046E+02 -0.18598921635E+03  0.21181210880E+03  0.80618779531E+02 0.  0.
          5    1    5    5  501    0  0.38307940944E+02  0.17142806291E+02  0.48407646460E+01  0.42507612839E+02  0.47000000000E+01 0. -1.
        -13    1    6    6    0    0 -0.38678381098E+02 -0.25443045365E+02 -0.68852875235E+02  0.82970381160E+02  0.00000000000E+00 0.  1.
         14    1    6    6    0    0 -0.17265872285E+02  0.50805098411E+02 -0.11713634111E+03  0.12884172764E+03  0.00000000000E+00 0. -1.
         -5    1    3    3    0  503  0.34497172287E+02 -0.62884868149E+02  0.23617844081E+02  0.75660122238E+02  0.47000000000E+01 0.  1.
         11    1    4    4    0    0 -0.40655520254E+02  0.30313912864E+02 -0.27454089738E+02  0.57667423071E+02  0.00000000000E+00 0. -1.
        -12    1    4    4    0    0  0.23794660407E+02 -0.99339040514E+01 -0.43509862708E+02  0.50576441813E+02  0.00000000000E+00 0.  1.
</event>
<event>
12    1  0.1039610E+000  0.2543605E+03  0.7818608E-02  0.1110820E+00
         21   -1    0    0  501  502  0.00000000000E+00  0.00000000000E+00  0.84644165486E+03  0.84644165486E+03  0.00000000000E+00 0.  1.
         21   -1    0    0  502  503 -0.00000000000E+00 -0.00000000000E+00 -0.79309230894E+02  0.79309230894E+02  0.00000000000E+00 0.  1.
         -6    2    1    2    0  503  0.14824504447E+02  0.18596788759E+03  0.28973216117E+03  0.38554373032E+03  0.17290292545E+03 0.  0.
        -24    2    3    3    0    0 -0.31477474178E+02  0.11363138950E+03  0.25584754674E+03  0.29309537028E+03  0.80895023611E+02 0.  0.
          6    2    1    2  501    0 -0.14824504447E+02 -0.18596788759E+03  0.47740026280E+03  0.54020715543E+03  0.17061341891E+03 0.  0.
         24    2    5    5    0    0  0.24024725008E+02 -0.51200382701E+02  0.11281303418E+03  0.14954428251E+03  0.80237429868E+02 0.  0.
          5    1    5    5  501    0 -0.38849229455E+02 -0.13476750489E+03  0.36458722862E+03  0.39066287292E+03  0.47000000000E+01 0. -1.
        -11    1    6    6    0    0  0.52887313708E+01  0.19488540037E+02  0.79548731839E+01  0.21703775700E+02  0.00000000000E+00 0.  1.
         12    1    6    6    0    0  0.18735993637E+02 -0.70688922737E+02  0.10485816099E+03  0.12784050681E+03  0.00000000000E+00 0. -1.
         -5    1    3    3    0  503  0.46301978625E+02  0.72336498090E+02  0.33884614431E+02  0.92448360049E+02  0.47000000000E+01 0.  1.
         11    1    4    4    0    0  0.18360050720E+02  0.16557848678E+02  0.98890857790E+02  0.10193456514E+03  0.00000000000E+00 0. -1.
        -12    1    4    4    0    0 -0.49837524898E+02  0.97073540821E+02  0.15695668895E+03  0.19116080514E+03  0.00000000000E+00 0.  1.
</event>
<event>
12    1  0.1039610E+000  0.2122599E+03  0.7818608E-02  0.1139857E+00
         21   -1    0    0  503  502  0.00000000000E+00  0.00000000000E+00  0.58943073848E+03  0.58943073848E+03  0.00000000000E+00 0. -1.
         21   -1    0    0  501  503 -0.00000000000E+00 -0.00000000000E+00 -0.12615245500E+03  0.12615245500E+03  0.00000000000E+00 0.  1.
          6    2    1    2  501    0  0.71583142428E+02 -0.10189263966E+03  0.45641696307E+03  0.50321246381E+03  0.17146452480E+03 0.  0.
         24    2    3    3    0    0  0.96859968369E+02 -0.73779454698E+02  0.23980083336E+03  0.28327177465E+03  0.88956153397E+02 0.  0.
         -6    2    1    2    0  502 -0.71583142428E+02  0.10189263966E+03  0.68613204063E+01  0.21237072967E+03  0.17189529606E+03 0.  0.
        -24    2    5    5    0    0  0.25856292501E+02  0.51563570098E+02 -0.17621314534E+02  0.99903187082E+02  0.79641612490E+02 0.  0.
          5    1    3    3  501    0 -0.25276825940E+02 -0.28113184961E+02  0.21661612971E+03  0.21994068916E+03  0.47000000000E+01 0. -1.
        -13    1    4    4    0    0  0.59844788632E+02 -0.91774229394E+02  0.17033872844E+03  0.20253194887E+03  0.00000000000E+00 0.  1.
         14    1    4    4    0    0  0.37015179737E+02  0.17994774696E+02  0.69462104917E+02  0.80739825779E+02  0.00000000000E+00 0. -1.
         -5    1    5    5    0  502 -0.97439434929E+02  0.50329069561E+02  0.24482634940E+02  0.11246754259E+03  0.47000000000E+01 0.  1.
         11    1    6    6    0    0  0.32495250139E+02 -0.77631847598E+01  0.89077921803E+01  0.34576828668E+02  0.00000000000E+00 0. -1.
        -12    1    6    6    0    0 -0.66389576384E+01  0.59326754858E+02 -0.26529106714E+02  0.65326358414E+02  0.00000000000E+00 0.  1.
</event>
<event>
12    1  0.1039610E+000  0.2749887E+03  0.7818608E-02  0.1099238E+00
         21   -1    0    0  503  502  0.00000000000E+00  0.00000000000E+00  0.81424417204E+02  0.81424417204E+02  0.00000000000E+00 0. -1.
         21   -1    0    0  501  503 -0.00000000000E+00 -0.00000000000E+00 -0.91019349483E+03  0.91019349483E+03  0.00000000000E+00 0. -1.
          6    2    1    2  501    0 -0.16073392462E+03 -0.13342087610E+03 -0.41495294319E+03  0.49779987877E+03  0.17883581725E+03 0.  0.
         24    2    3    3    0    0 -0.91637440887E+02 -0.88160065919E+02 -0.10932581903E+03  0.18117250467E+03  0.68569118022E+02 0.  0.
         -6    2    1    2    0  502  0.16073392462E+03  0.13342087610E+03 -0.41381613443E+03  0.49381803327E+03  0.17022318337E+03 0.  0.
        -24    2    5    5    0    0  0.50991756240E+02  0.52509073740E+02 -0.29548681565E+03  0.31322461986E+03  0.73755286138E+02 0.  0.
          5    1    3    3  501    0 -0.69096483737E+02 -0.45260810185E+02 -0.30562712417E+03  0.31662737410E+03  0.47000000000E+01 0. -1.
        -13    1    4    4    0    0 -0.98736872844E+02 -0.93166633116E+02 -0.10187484108E+03  0.16972764899E+03  0.00000000000E+00 0.  1.
         14    1    4    4    0    0  0.70994319570E+01  0.50065671970E+01 -0.74509779438E+01  0.11444855680E+02  0.00000000000E+00 0. -1.
         -5    1    5    5    0  502  0.10974216838E+03  0.80911802363E+02 -0.11832931879E+03  0.18059341341E+03  0.47000000000E+01 0.  1.
         11    1    6    6    0    0  0.19207609533E+02  0.52420178257E+02 -0.25848736013E+03  0.26444758025E+03  0.00000000000E+00 0. -1.
        -12    1    6    6    0    0  0.31784146707E+02  0.88895482943E-01 -0.36999455517E+02  0.48777039608E+02  0.00000000000E+00 0.  1.
</event>
<event>
12    1  0.1039610E+000  0.2273671E+03  0.7818608E-02  0.1128823E+00
         21   -1    0    0  503  502  0.00000000000E+00  0.00000000000E+00  0.18091728878E+03  0.18091728878E+03  0.00000000000E+00 0.  1.
         21   -1    0    0  501  503 -0.00000000000E+00 -0.00000000000E+00 -0.12493115689E+04  0.12493115689E+04  0.00000000000E+00 0.  1.
          6    2    1    2  501    0  0.14469281981E+03  0.25046969190E+02  0.95025359193E+02  0.24480022857E+03  0.17127162709E+03 0.  0.
         24    2    3    3    0    0  0.13020204752E+03 -0.18787548240E+02  0.11739677305E+03  0.19328307067E+03  0.79188369962E+02 0.  0.
         -6    2    1    2    0  502 -0.14469281981E+03 -0.25046969190E+02 -0.11634196393E+04  0.11854286291E+04  0.17358690853E+03 0.  0.
        -24    2    5    5    0    0 -0.13960249714E+03 -0.35287817118E+02 -0.60408077769E+03  0.62595312610E+03  0.78547074134E+02 0.  0.
          5    1    3    3  501    0  0.14490772292E+02  0.43834517430E+02 -0.22371413860E+02  0.51517157900E+02  0.47000000000E+01 0. -1.
        -13    1    4    4    0    0  0.61992419479E+02 -0.25686413346E+02  0.12942997425E+02  0.68340127932E+02  0.00000000000E+00 0.  1.
         14    1    4    4    0    0  0.68209628041E+02  0.68988651059E+01  0.10445377563E+03  0.12494294274E+03  0.00000000000E+00 0. -1.
         -5    1    5    5    0  502 -0.50903226684E+01  0.10240847927E+02 -0.55933886162E+03  0.55947550301E+03  0.47000000000E+01 0.  1.
         13    1    6    6    0    0 -0.11833884612E+03 -0.18676901374E+02 -0.57015254896E+03  0.58260350002E+03  0.00000000000E+00 0. -1.
        -14    1    6    6    0    0 -0.21263651028E+02 -0.16610915744E+02 -0.33928228726E+02  0.43349626081E+02  0.00000000000E+00 0.  1.
</event>
<event>
12    1  0.1039610E+000  0.3009838E+03  0.7818608E-02  0.1085117E+00
         21   -1    0    0  501  502  0.00000000000E+00  0.00000000000E+00  0.12717985514E+04  0.12717985514E+04  0.00000000000E+00 0.  1.
         21   -1    0    0  502  503 -0.00000000000E+00 -0.00000000000E+00 -0.26440191790E+03  0.26440191790E+03  0.00000000000E+00 0. -1.
         -6    2    1    2    0  503  0.19844932293E+03 -0.14615575961E+03  0.11620617002E+04  0.12004076986E+04  0.17276460270E+03 0.  0.
        -24    2    3    3    0    0  0.12076866414E+03 -0.13682880679E+03  0.58367549099E+03  0.61673486746E+03  0.79860036057E+02 0.  0.
          6    2    1    2  501    0 -0.19844932293E+03  0.14615575961E+03 -0.15466506671E+03  0.33579277069E+03  0.16760627121E+03 0.  0.
         24    2    5    5    0    0 -0.15659388105E+03  0.35154754338E+02 -0.95968196055E+02  0.20335216585E+03  0.79904370136E+02 0.  0.
          5    1    5    5  501    0 -0.41855441883E+02  0.11100100527E+03 -0.58696870654E+02  0.13244060484E+03  0.47000000000E+01 0. -1.
        -11    1    6    6    0    0 -0.13345391775E+03  0.14933140868E+01 -0.92445730123E+02  0.16235267527E+03  0.00000000000E+00 0.  1.
         12    1    6    6    0    0 -0.23139963293E+02  0.33661440251E+02 -0.35224659319E+01  0.40999490573E+02  0.00000000000E+00 0. -1.
         -5    1    3    3    0  503  0.77680658794E+02 -0.93269528138E+01  0.57838620924E+03  0.58367283117E+03  0.47000000000E+01 0.  1.
         13    1    4    4    0    0  0.33075443098E+02 -0.35446864802E+02  0.65430694422E+02  0.81434887689E+02  0.00000000000E+00 0. -1.
        -14    1    4    4    0    0  0.87693221037E+02 -0.10138194199E+03  0.51824479656E+03  0.53529997977E+03  0.00000000000E+00 0.  1.
</event>
<event>
12    1  0.1039610E+000  0.4194944E+03  0.7818608E-02  0.1037397E+00
         21   -1    0    0  503  502  0.00000000000E+00  0.00000000000E+00  0.10016090841E+04  0.10016090841E+04  0.00000000000E+00 0.  1.
         21   -1    0    0  501  503 -0.00000000000E+00 -0.00000000000E+00 -0.23802950666E+03  0.23802950666E+03  0.00000000000E+00 0.  1.
          6    2    1    2  501    0 -0.33768818235E+03 -0.17637453000E+03  0.70180928841E+03  0.81762573934E+03  0.17559695042E+03 0.  0.
         24    2    3    3    0    0 -0.19608916384E+03 -0.28432322301E+02  0.32865909850E+03  0.39194941501E+03  0.79675490418E+02 0.  0.
         -6    2    1    2    0  502  0.33768818235E+03  0.17637453000E+03  0.61770289029E+02  0.42201285142E+03  0.17069854958E+03 0.  0.
        -24    2    5    5    0    0  0.23067273166E+03  0.17114631212E+03  0.91174447105E+02  0.31080882515E+03  0.76081382095E+02 0.  0.
          5    1    3    3  501    0 -0.14159901850E+03 -0.14794220770E+03  0.37315018991E+03  0.42567632433E+03  0.47000000000E+01 0. -1.
        -13    1    4    4    0    0 -0.93834042019E+01  0.17595318900E+02  0.45386499616E+02  0.49573963620E+02  0.00000000000E+00 0.  1.
         14    1    4    4    0    0 -0.18670575964E+03 -0.46027641200E+02  0.28327259889E+03  0.34237545140E+03  0.00000000000E+00 0. -1.
         -5    1    5    5    0  502  0.10701545069E+03  0.52282178860E+01 -0.29404158076E+02  0.11120402627E+03  0.47000000000E+01 0.  1.
         11    1    6    6    0    0  0.20092194012E+03  0.12086510067E+03  0.51144000063E+02  0.23998688990E+03  0.00000000000E+00 0. -1.
        -12    1    6    6    0    0  0.29750791543E+02  0.50281211449E+02  0.40030447041E+02  0.70821935250E+02  0.00000000000E+00 0.  1.
</event>
<event>
12    1  0.1039610E+000  0.1980556E+03  0.7818608E-02  0.1151485E+00
         21   -1    0    0  503  502  0.00000000000E+00  0.00000000000E+00  0.22557880266E+04  0.22557880266E+04  0.00000000000E+00 0. -1.
         21   -1    0    0  501  503 -0.00000000000E+00 -0.00000000000E+00 -0.22806949897E+02  0.22806949897E+02  0.00000000000E+00 0.  1.
          6    2    1    2  501    0 -0.46558195327E+02  0.85582777141E+02  0.16728235616E+04  0.16844548651E+04  0.17192279403E+03 0.  0.
         24    2    3    3    0    0 -0.28627608571E+02  0.11336505922E+03  0.15704975911E+04  0.15768163248E+04  0.78840736059E+02 0.  0.
         -6    2    1    2    0  502  0.46558195327E+02 -0.85582777141E+02  0.56015751514E+03  0.59414011141E+03  0.17243535867E+03 0.  0.
        -24    2    5    5    0    0 -0.48123161326E+01 -0.83522030756E+02  0.23111968090E+03  0.26107681039E+03  0.88009692740E+02 0.  0.
          5    1    3    3  501    0 -0.17930586756E+02 -0.27782282083E+02  0.10232597045E+03  0.10763854034E+03  0.47000000000E+01 0. -1.
        -11    1    4    4    0    0  0.90365195672E+01  0.11290427718E+02  0.41405764962E+02  0.43858520450E+02  0.00000000000E+00 0.  1.
         12    1    4    4    0    0 -0.37664128138E+02  0.10207463151E+03  0.15290918262E+04  0.15329578043E+04  0.00000000000E+00 0. -1.
         -5    1    5    5    0  502  0.51370511459E+02 -0.20607463852E+01  0.32903783424E+03  0.33306330102E+03  0.47000000000E+01 0.  1.
         13    1    6    6    0    0 -0.32271928204E+02 -0.83968006749E+01  0.30862824909E+02  0.45436742543E+02  0.00000000000E+00 0. -1.
        -14    1    6    6    0    0  0.27459612071E+02 -0.75125230081E+02  0.20025685599E+03  0.21564006784E+03  0.00000000000E+00 0.  1.
</event>
<event>
12    1  0.1039610E+000  0.2385980E+03  0.7818608E-02  0.1120893E+00
         21   -1    0    0  503  502  0.00000000000E+00  0.00000000000E+00  0.16388410543E+03  0.16388410543E+03  0.00000000000E+00 0. -1.
         21   -1    0    0  501  503 -0.00000000000E+00 -0.00000000000E+00 -0.40278513916E+03  0.40278513916E+03  0.00000000000E+00 0. -1.
          6    2    1    2  501    0  0.16478889203E+03 -0.43513615221E+01 -0.12822403467E+02  0.23797401800E+03  0.17115170442E+03 0.  0.
         24    2    3    3    0    0  0.15257722241E+03 -0.49499361263E+02  0.12647985109E+02  0.18451097048E+03  0.90301335188E+02 0.  0.
         -6    2    1    2    0  502 -0.16478889203E+03  0.43513615221E+01 -0.22607863027E+03  0.32869522659E+03  0.17249548294E+03 0.  0.
        -24    2    5    5    0    0 -0.12602870040E+03  0.23736670225E+02 -0.86367043380E+02  0.18234099823E+03  0.96655628981E+02 0.  0.
          5    1    3    3  501    0  0.12211669624E+02  0.45147999741E+02 -0.25470388576E+02  0.53463047517E+02  0.47000000000E+01 0. -1.
        -11    1    4    4    0    0  0.10120124351E+03 -0.43807138407E+02  0.49654311022E+02  0.12093927264E+03  0.00000000000E+00 0.  1.
         12    1    4    4    0    0  0.51375978900E+02 -0.56922228562E+01 -0.37006325913E+02  0.63571697842E+02  0.00000000000E+00 0. -1.
         -5    1    5    5    0  502 -0.38760191629E+02 -0.19385308703E+02 -0.13971158689E+03  0.14635422836E+03  0.47000000000E+01 0.  1.
         13    1    6    6    0    0 -0.10537877553E+02 -0.97857079542E+01 -0.56676488297E+02  0.58472483009E+02  0.00000000000E+00 0. -1.
        -14    1    6    6    0    0 -0.11549082285E+03  0.33522378180E+02 -0.29690555082E+02  0.12386851522E+03  0.00000000000E+00 0.  1.
</event>
<event>
12    1  0.1039610E+000  0.6880567E+03  0.7818608E-02  0.9737900E-01
         21   -1    0    0  503  502  0.00000000000E+00  0.00000000000E+00  0.12939419080E+04  0.12939419080E+04  0.00000000000E+00 0. -1.
         21   -1    0    0  501  503 -0.00000000000E+00 -0.00000000000E+00 -0.36591982192E+03  0.36591982192E+03  0.00000000000E+00 0. -1.
          6    2    1    2  501    0 -0.22938627067E+03  0.62559295001E+03  0.47555377370E+03  0.83636335728E+03  0.17136998992E+03 0.  0.
         24    2    3    3    0    0 -0.16211048020E+03  0.45554788048E+03  0.41871601500E+03  0.64480663338E+03  0.81540260227E+02 0.  0.
         -6    2    1    2    0  502  0.22938627067E+03 -0.62559295001E+03  0.45246831237E+03  0.82349837263E+03  0.17157329555E+03 0.  0.
        -24    2    5    5    0    0  0.21463626985E+03 -0.36602000879E+03  0.27105074220E+03  0.50643355417E+03  0.54470769871E+02 0.  0.
          5    1    3    3  501    0 -0.67275790478E+02  0.17004506953E+03  0.56837758700E+02  0.19155672390E+03  0.47000000000E+01 0. -1.
        -13    1    4    4    0    0 -0.10302529433E+03  0.37787238167E+03  0.31735497263E+03  0.50409912393E+03  0.00000000000E+00 0.  1.
         14    1    4    4    0    0 -0.59085185868E+02  0.77675498812E+02  0.10136104237E+03  0.14070750945E+03  0.00000000000E+00 0. -1.
         -5    1    5    5    0  502  0.14750000823E+02 -0.25957294122E+03  0.18141757017E+03  0.31706481846E+03  0.47000000000E+01 0.  1.
         11    1    6    6    0    0  0.70672772117E+02 -0.12076843046E+03  0.59786135754E+02  0.15216450487E+03  0.00000000000E+00 0. -1.
        -12    1    6    6    0    0  0.14396349774E+03 -0.24525157834E+03  0.21126460644E+03  0.35426904930E+03  0.00000000000E+00 0.  1.
</event>
<event>
12    1  0.1039610E+000  0.2355875E+03  0.7818608E-02  0.1122897E+00
         21   -1    0    0  501  502  0.00000000000E+00  0.00000000000E+00  0.58241327826E+03  0.58241327826E+03  0.00000000000E+00 0. -1.
         21   -1    0    0  502  503 -0.00000000000E+00 -0.00000000000E+00 -0.10477065425E+03  0.10477065425E+03  0.00000000000E+00 0. -1.
         -6    2    1    2    0  503 -0.13588774853E+03 -0.84058329256E+02  0.34345356396E+03  0.41606000791E+03  0.17208804918E+03 0.  0.
        -24    2    3    3    0    0 -0.12611700176E+02 -0.67308297995E+02  0.20210257154E+03  0.22769934136E+03  0.79448591389E+02 0.  0.
          6    2    1    2  501    0  0.13588774853E+03  0.84058329256E+02  0.13418906005E+03  0.27112392460E+03  0.17311902188E+03 0.  0.
         24    2    5    5    0    0  0.53885055904E+02  0.98819833313E+02  0.12683499933E+03  0.18734734190E+03  0.79642644082E+02 0.  0.
          5    1    5    5  501    0  0.82002692625E+02 -0.14761504057E+02  0.73540607125E+01  0.83776582699E+02  0.47000000000E+01 0. -1.
        -11    1    6    6    0    0  0.61875569233E+02  0.10869141256E+03  0.11726262720E+03  0.17144367288E+03  0.00000000000E+00 0.  1.
         12    1    6    6    0    0 -0.79905133289E+01 -0.98715792489E+01  0.95723721310E+01  0.15903669021E+02  0.00000000000E+00 0. -1.
         -5    1    3    3    0  503 -0.12327604835E+03 -0.16750031261E+02  0.14135099242E+03  0.18836066655E+03  0.47000000000E+01 0.  1.
         11    1    4    4    0    0  0.16864198574E+02 -0.12912807371E+01  0.10651338416E+03  0.10784790032E+03  0.00000000000E+00 0. -1.
        -12    1    4    4    0    0 -0.29475898750E+02 -0.66017017258E+02  0.95589187379E+02  0.11985144104E+03  0.00000000000E+00 0.  1.
</event>
<event>
12    1  0.1039610E+000  0.2110292E+03  0.7818608E-02  0.1140834E+00
         21   -1    0    0  503  502  0.00000000000E+00  0.00000000000E+00  0.16573966708E+04  0.16573966708E+04  0.00000000000E+00 0. -1.
         21   -1    0    0  501  503 -0.00000000000E+00 -0.00000000000E+00 -0.46235699680E+02  0.46235699680E+02  0.00000000000E+00 0. -1.
          6    2    1    2  501    0 -0.12133588114E+03  0.17020355976E+02  0.13571564043E+04  0.13734026583E+04  0.17131627944E+03 0.  0.
         24    2    3    3    0    0 -0.43143707013E+02 -0.50915725541E+02  0.75667080993E+03  0.76403055008E+03  0.82086395290E+02 0.  0.
         -6    2    1    2    0  502  0.12133588114E+03 -0.17020355976E+02  0.25400456686E+03  0.33022971219E+03  0.17181750277E+03 0.  0.
        -24    2    5    5    0    0  0.95383543175E+02 -0.76432545986E+02  0.17897315314E+03  0.23095667853E+03  0.79810045842E+02 0.  0.
          5    1    3    3  501    0 -0.78192174128E+02  0.67936081517E+02  0.60048559434E+03  0.60937210822E+03  0.47000000000E+01 0. -1.
        -13    1    4    4    0    0 -0.25024977279E+02  0.39177904880E+01  0.51241620786E+03  0.51304187807E+03  0.00000000000E+00 0.  1.
         14    1    4    4    0    0 -0.18118729735E+02 -0.54833516029E+02  0.24425460206E+03  0.25098867201E+03  0.00000000000E+00 0. -1.
         -5    1    5    5    0  502  0.25952337966E+02  0.59412190010E+02  0.75031413713E+02  0.99273033657E+02  0.47000000000E+01 0.  1.
         13    1    6    6    0    0  0.60026380523E+01 -0.29579843366E+02  0.94976790456E+02  0.99657360604E+02  0.00000000000E+00 0. -1.
        -14    1    6    6    0    0  0.89380905123E+02 -0.46852702620E+02  0.83996362686E+02  0.13129931793E+03  0.00000000000E+00 0.  1.
</event>
<event>
12    1  0.1039610E+000  0.2537768E+03  0.7818608E-02  0.1111027E+00
         21   -1    0    0  503  502  0.00000000000E+00  0.00000000000E+00  0.15252529172E+04  0.15252529172E+04  0.00000000000E+00 0.  1.
         21   -1    0    0  501  503 -0.00000000000E+00 -0.00000000000E+00 -0.49096380824E+02  0.49096380824E+02  0.00000000000E+00 0.  1.
          6    2    1    2  501    0 -0.49784145168E+02 -0.18006272850E+03  0.44091141648E+03  0.50845290564E+03  0.17093985130E+03 0.  0.
         24    2    3    3    0    0  0.11702845164E+02 -0.72715075574E+02  0.30910464942E+03  0.32762347658E+03  0.79793604467E+02 0.  0.
         -6    2    1    2    0  502  0.49784145168E+02  0.18006272850E+03  0.10352451199E+04  0.10658963924E+04  0.17176033806E+03 0.  0.
        -24    2    5    5    0    0 -0.20628292957E+02  0.10056037874E+03  0.36976148083E+03  0.39197570053E+03  0.79896688619E+02 0.  0.
          5    1    3    3  501    0 -0.61486990332E+02 -0.10734765293E+03  0.13180676706E+03  0.18082942905E+03  0.47000000000E+01 0. -1.
        -13    1    4    4    0    0 -0.35229928093E+01 -0.66182535188E+02  0.30268365793E+03  0.30985470179E+03  0.00000000000E+00 0.  1.
         14    1    4    4    0    0  0.15225837973E+02 -0.65325403856E+01  0.64209914864E+01  0.17768774790E+02  0.00000000000E+00 0. -1.
         -5    1    5    5    0  502  0.70412438125E+02  0.79502349764E+02  0.66548363905E+03  0.67392069185E+03  0.47000000000E+01 0.  1.
         11    1    6    6    0    0 -0.87924883747E+01  0.41898981333E+02  0.28511609120E+03  0.28831236177E+03  0.00000000000E+00 0. -1.
        -12    1    6    6    0    0 -0.11835804583E+02  0.58661397404E+02  0.84645389631E+02  0.10366333875E+03  0.00000000000E+00 0.  1.
</event>
<event>
12    1  0.1039610E+000  0.2153757E+03  0.7818608E-02  0.1138154E+00
         21   -1    0    0  503  502  0.00000000000E+00  0.00000000000E+00  0.60792451747E+02  0.60792451747E+02  0.00000000000E+00 0.  1.
         21   -1    0    0  501  503 -0.00000000000E+00 -0.00000000000E+00 -0.76937567585E+03  0.76937567585E+03  0.00000000000E+00 0.  1.
          6    2    1    2  501    0  0.12281585014E+03  0.18055891774E+02 -0.28335196582E+03  0.35350440570E+03  0.17107682496E+03 0.  0.
         24    2    3    3    0    0  0.71843429116E+02  0.29995598089E+02 -0.27975161249E+03  0.30081857424E+03  0.78547028629E+02 0.  0.
         -6    2    1    2    0  502 -0.12281585014E+03 -0.18055891774E+02 -0.42523125828E+03  0.47666372190E+03  0.17600264907E+03 0.  0.
        -24    2    5    5    0    0 -0.83263598275E+02 -0.12711443708E+02 -0.42003303196E+03  0.43614144025E+03  0.81836424473E+02 0.  0.
          5    1    3    3  501    0  0.50972421026E+02 -0.11939706315E+02 -0.36003533301E+01  0.52685831456E+02  0.47000000000E+01 0. -1.
        -11    1    4    4    0    0  0.12395202702E+02 -0.22334640194E+02 -0.11781240409E+03  0.12054973978E+03  0.00000000000E+00 0.  1.
         12    1    4    4    0    0  0.59448226413E+02  0.52330238283E+02 -0.16193920840E+03  0.18026883446E+03  0.00000000000E+00 0. -1.
         -5    1    5    5    0  502 -0.39552251867E+02 -0.53444480662E+01 -0.51982263232E+01  0.40522281646E+02  0.47000000000E+01 0.  1.
         11    1    6    6    0    0 -0.11076941709E+02 -0.23295997762E+02 -0.31011221898E+02  0.40337303244E+02  0.00000000000E+00 0. -1.
        -12    1    6    6    0    0 -0.72186656565E+02  0.10584554054E+02 -0.38902181006E+03  0.39580413701E+03  0.00000000000E+00 0.  1.
</event>
<event>
12    1  0.1039610E+000  0.2045822E+03  0.7818608E-02  0.1146299E+00
         21   -1    0    0  501  502  0.00000000000E+00  0.00000000000E+00  0.33979593183E+02  0.33979593183E+02  0.00000000000E+00 0. -1.
         21   -1    0    0  502  503 -0.00000000000E+00 -0.00000000000E+00 -0.14227977463E+04  0.14227977463E+04  0.00000000000E+00 0. -1.
         -6    2    1    2    0  503 -0.62754163426E+02  0.86039041907E+02 -0.42269308720E+03  0.46959911579E+03  0.17467994111E+03 0.  0.
        -24    2    3    3    0    0 -0.67606764352E+02  0.12510670365E+03 -0.36380219868E+03  0.39860575920E+03  0.79449037879E+02 0.  0.
          6    2    1    2  501    0  0.62754163426E+02 -0.86039041907E+02 -0.96612506593E+03  0.98717822371E+03  0.17257578213E+03 0.  0.
         24    2    5    5    0    0  0.30904548976E+02 -0.12434170299E+03 -0.66102136540E+03  0.67799890703E+03  0.79481583784E+02 0.  0.
          5    1    5    5  501    0  0.31849614449E+02  0.38302661079E+02 -0.30510370053E+03  0.30917931668E+03  0.47000000000E+01 0. -1.
        -13    1    6    6    0    0  0.54155677870E+02 -0.94868857542E+02 -0.55172489606E+03  0.56243515049E+03  0.00000000000E+00 0.  1.
         14    1    6    6    0    0 -0.23251128894E+02 -0.29472845444E+02 -0.10929646934E+03  0.11556375653E+03  0.00000000000E+00 0. -1.
         -5    1    3    3    0  503  0.48526009266E+01 -0.39067661738E+02 -0.58890888519E+02  0.70993356590E+02  0.47000000000E+01 0.  1.
         11    1    4    4    0    0 -0.20940479226E+02 -0.70737327922E+01 -0.38630045214E+02  0.44506423796E+02  0.00000000000E+00 0. -1.
        -12    1    4    4    0    0 -0.46666285126E+02  0.13218043644E+03 -0.32517215347E+03  0.35409933540E+03  0.00000000000E+00 0.  1.
</event>
<event>
12    1  0.1039610E+000  0.2715852E+03  0.7818608E-02  0.1100660E+00
         21   -1    0    0  501  502  0.00000000000E+00  0.00000000000E+00  0.14286404036E+03  0.14286404036E+03  0.00000000000E+00 0.  1.
         21   -1    0    0  502  503 -0.00000000000E+00 -0.00000000000E+00 -0.65109056868E+03  0.65109056868E+03  0.00000000000E+00 0.  1.
         -6    2    1    2    0  503 -0.20767449879E+03  0.34684026175E+01 -0.70231702923E+02  0.27859260670E+03  0.17187385242E+03 0.  0.
        -24    2    3    3    0    0 -0.77812522837E+02  0.20426782453E+02 -0.91574223221E+02  0.14581718496E+03  0.80029812691E+02 0.  0.
          6    2    1    2  501    0  0.20767449879E+03 -0.34684026175E+01 -0.43799482540E+03  0.51536200235E+03  0.17497942487E+03 0.  0.
         24    2    5    5    0    0  0.10325247788E+03 -0.55240677192E+02 -0.31644198183E+03  0.34689387288E+03  0.80543308701E+02 0.  0.
          5    1    5    5  501    0  0.10442202091E+03  0.51772274575E+02 -0.12155284357E+03  0.16846812947E+03  0.47000000000E+01 0. -1.
        -13    1    6    6    0    0  0.83351766820E+02 -0.69228574232E+02 -0.19538863845E+03  0.22342075230E+03  0.00000000000E+00 0.  1.
         14    1    6    6    0    0  0.19900711057E+02  0.13987897040E+02 -0.12105334337E+03  0.12347312058E+03  0.00000000000E+00 0. -1.
         -5    1    3    3    0  503 -0.12986197595E+03 -0.16958379835E+02  0.21342520298E+02  0.13277542174E+03  0.47000000000E+01 0.  1.
         13    1    4    4    0    0 -0.75541531661E+02 -0.87533927341E+01 -0.38569923404E+02  0.85268891639E+02  0.00000000000E+00 0. -1.
        -14    1    4    4    0    0 -0.22709911758E+01  0.29180175187E+02 -0.53004299817E+02  0.60548293320E+02  0.00000000000E+00 0.  1.
</event>
<event>
12    1  0.1039610E+000  0.2761507E+03  0.7818608E-02  0.1097856E+00
         21   -1    0    0  503  502  0.00000000000E+00  0.00000000000E+00  0.23642485848E+03  0.23642485848E+03  0.00000000000E+00 0. -1.
         21   -1    0    0  501  503 -0.00000000000E+00 -0.00000000000E+00 -0.34548755635E+03  0.34548755635E+03  0.00000000000E+00 0. -1.
          6    2    1    2  501    0 -0.17471420095E+03  0.12594823547E+03  0.21095448286E+02  0.27662505149E+03  0.17230319538E+03 0.  0.
         24    2    3    3    0    0 -0.13448442771E+03  0.92744839971E+02  0.79517702522E+02  0.19816391514E+03  0.79108821311E+02 0.  0.
         -6    2    1    2    0  502  0.17471420095E+03 -0.12594823547E+03 -0.13015814616E+03  0.30528736333E+03  0.17283292848E+03 0.  0.
        -24    2    5    5    0    0  0.41425367076E+02 -0.60541693787E+01 -0.74556755216E+02  0.11752659801E+03  0.80629259497E+02 0.  0.
          5    1    3    3  501    0 -0.40229773239E+02  0.33203395499E+02 -0.58422254236E+02  0.78461136351E+02  0.47000000000E+01 0. -1.
        -11    1    4    4    0    0 -0.88290883750E+01  0.44035580675E+02  0.32476256233E+02  0.55423752903E+02  0.00000000000E+00 0.  1.
         12    1    4    4    0    0 -0.12565533934E+03  0.48709259295E+02  0.47041446288E+02  0.14274016223E+03  0.00000000000E+00 0. -1.
         -5    1    5    5    0  502  0.13328883388E+03 -0.11989406609E+03 -0.55601390940E+02  0.18776076532E+03  0.47000000000E+01 0.  1.
         11    1    6    6    0    0  0.40845276642E+01 -0.35735765063E+02 -0.55551742381E+02  0.66179485888E+02  0.00000000000E+00 0. -1.
        -12    1    6    6    0    0  0.37340839412E+02  0.29681595684E+02 -0.19005012835E+02  0.51347112121E+02  0.00000000000E+00 0.  1.
</event>
<event>
12    1  0.1039610E+000  0.2661317E+03  0.7818608E-02  0.1103528E+00
         21   -1    0    0  501  502  0.00000000000E+00  0.00000000000E+00  0.46747816287E+03  0.46747816287E+03  0.00000000000E+00 0. -1.
         21   -1    0    0  502  503 -0.00000000000E+00 -0.00000000000E+00 -0.15864479881E+03  0.15864479881E+03  0.00000000000E+00 0. -1.
         -6    2    1    2    0  503  0.11892768027E+03  0.16509453195E+03  0.87790843524E+02  0.28023791781E+03  0.17154025986E+03 0.  0.
        -24    2    3    3    0    0  0.88278777344E+01  0.21484783895E+02  0.16846606630E+02  0.85813379735E+02  0.80873979884E+02 0.  0.
          6    2    1    2  501    0 -0.11892768027E+03 -0.16509453195E+03  0.22104252053E+03  0.34588504387E+03  0.17139623706E+03 0.  0.
         24    2    5    5    0    0 -0.45306120767E+02 -0.19172837919E+02  0.12373775494E+03  0.15561265434E+03  0.80523436964E+02 0.  0.
          5    1    5    5  501    0 -0.73621559508E+02 -0.14592169403E+03  0.97304765592E+02  0.19027238954E+03  0.47000000000E+01 0. -1.
        -11    1    6    6    0    0 -0.23515102016E+02 -0.15176467391E+02 -0.18856387702E+01  0.28050683038E+02  0.00000000000E+00 0.  1.
         12    1    6    6    0    0 -0.21791018750E+02 -0.39963705277E+01  0.12562339371E+03  0.12756197130E+03  0.00000000000E+00 0. -1.
         -5    1    3    3    0  503  0.11009980254E+03  0.14360974805E+03  0.70944236893E+02  0.19442453807E+03  0.47000000000E+01 0.  1.
         13    1    4    4    0    0 -0.96955842206E+01  0.11306369868E+02  0.46823099914E+02  0.49134926870E+02  0.00000000000E+00 0. -1.
        -14    1    4    4    0    0  0.18523461955E+02  0.10178414027E+02 -0.29976493284E+02  0.36678452864E+02  0.00000000000E+00 0.  1.
</event>
<event>
12    1  0.1039610E+000  0.3020253E+03  0.7818608E-02  0.1084640E+00
         21   -1    0    0  501  502  0.00000000000E+00  0.00000000000E+00  0.16382205713E+03  0.16382205713E+03  0.00000000000E+00 0. -1.
         21   -1    0    0  502  503 -0.00000000000E+00 -0.00000000000E+00 -0.61029013000E+03  0.61029013000E+03  0.00000000000E+00 0. -1.
         -6    2    1    2    0  503  0.94533182964E+02  0.23049618339E+03 -0.34516812911E+03  0.45865051552E+03  0.17074614137E+03 0.  0.
        -24    2    3    3    0    0  0.12036729545E+03  0.11503749916E+03 -0.24628438633E+03  0.30438388362E+03  0.65357766407E+02 0.  0.
          6    2    1    2  501    0 -0.94533182964E+02 -0.23049618339E+03 -0.10129994375E+03  0.31546167161E+03  0.16489200833E+03 0.  0.
         24    2    5    5    0    0  0.13478335135E+02 -0.83889786869E+02 -0.35625127758E+02  0.12182491115E+03  0.79705692338E+02 0.  0.
          5    1    5    5  501    0 -0.10801151810E+03 -0.14660639652E+03 -0.65674815993E+02  0.19363676045E+03  0.47000000000E+01 0. -1.
        -11    1    6    6    0    0  0.35978007311E+02 -0.74679044686E+02 -0.46662264824E+02  0.95124884672E+02  0.00000000000E+00 0.  1.
         12    1    6    6    0    0 -0.22499672175E+02 -0.92107421824E+01  0.11037137066E+02  0.26700026483E+02  0.00000000000E+00 0. -1.
         -5    1    3    3    0  503 -0.25834112483E+02  0.11545868423E+03 -0.98883742781E+02  0.15426663190E+03  0.47000000000E+01 0.  1.
         11    1    4    4    0    0  0.58412382842E+02  0.73975190377E+02 -0.18661751937E+03  0.20907040393E+03  0.00000000000E+00 0. -1.
        -12    1    4    4    0    0  0.61954912605E+02  0.41062308782E+02 -0.59666866957E+02  0.95313479691E+02  0.00000000000E+00 0.  1.
</event>
<event>
12    1  0.1039610E+000  0.1889240E+03  0.7818608E-02  0.1159532E+00
         21   -1    0    0  501  502  0.00000000000E+00  0.00000000000E+00  0.30226269922E+03  0.30226269922E+03  0.00000000000E+00 0.  1.
         21   -1    0    0  502  503 -0.00000000000E+00 -0.00000000000E+00 -0.26564398019E+03  0.26564398019E+03  0.00000000000E+00 0.  1.
         -6    2    1    2    0  503  0.56738350506E+02  0.51960378467E+02  0.23014071587E+03  0.29775329642E+03  0.17254899327E+03 0.  0.
        -24    2    3    3    0    0  0.18459252919E+02  0.77121115178E+02  0.72010555639E+02  0.13305481568E+03  0.78928153580E+02 0.  0.
          6    2    1    2  501    0 -0.56738350506E+02 -0.51960378467E+02 -0.19352199683E+03  0.27015338299E+03  0.17208418211E+03 0.  0.
         24    2    5    5    0    0 -0.41787963723E+02 -0.80091951694E+02 -0.20009079542E+03  0.23728792099E+03  0.90045968248E+02 0.  0.
          5    1    5    5  501    0 -0.14950386783E+02  0.28131573227E+02  0.65687985924E+01  0.32865461995E+02  0.47000000000E+01 0. -1.
        -11    1    6    6    0    0 -0.54305167981E+02 -0.19702529110E+02 -0.13878655483E+03  0.15032946725E+03  0.00000000000E+00 0.  1.
         12    1    6    6    0    0  0.12517204258E+02 -0.60389422584E+02 -0.61304240597E+02  0.86958453744E+02  0.00000000000E+00 0. -1.
         -5    1    3    3    0  503  0.38279097587E+02 -0.25160736712E+02  0.15813016023E+03  0.16469848074E+03  0.47000000000E+01 0.  1.
         13    1    4    4    0    0  0.38595823042E+02  0.82421114987E+02  0.60153092404E+02  0.10909295247E+03  0.00000000000E+00 0. -1.
        -14    1    4    4    0    0 -0.20136570124E+02 -0.52999998083E+01  0.11857463235E+02  0.23961863214E+02  0.00000000000E+00 0.  1.
</event>
<event>
12    1  0.1039610E+000  0.2320350E+03  0.7818608E-02  0.1125330E+00
         21   -1    0    0  501  502  0.00000000000E+00  0.00000000000E+00  0.44939302888E+03  0.44939302888E+03  0.00000000000E+00 0.  1.
         21   -1    0    0  502  503 -0.00000000000E+00 -0.00000000000E+00 -0.12908641849E+03  0.12908641849E+03  0.00000000000E+00 0.  1.
         -6    2    1    2    0  503 -0.15337223668E+03 -0.21132910297E+02  0.80984901961E+02  0.24514009516E+03  0.17194612246E+03 0.  0.
        -24    2    3    3    0    0 -0.92215418677E+01 -0.25568794722E+02  0.47385692632E+02  0.96984444740E+02  0.80136000383E+02 0.  0.
          6    2    1    2  501    0  0.15337223668E+03  0.21132910297E+02  0.23932170843E+03  0.33333935220E+03  0.17283113353E+03 0.  0.
         24    2    5    5    0    0  0.13717704272E+03 -0.53914641722E+01  0.25381557258E+03  0.29872737672E+03  0.77259897659E+02 0.  0.
          5    1    5    5  501    0  0.16195193959E+02  0.26524374469E+02 -0.14493864148E+02  0.34611975475E+02  0.47000000000E+01 0. -1.
        -13    1    6    6    0    0  0.14909328804E+02  0.19342047392E+02  0.87403272416E+02  0.90750949922E+02  0.00000000000E+00 0.  1.
         14    1    6    6    0    0  0.12226771391E+03 -0.24733511564E+02  0.16641230016E+03  0.20797642680E+03  0.00000000000E+00 0. -1.
         -5    1    3    3    0  503 -0.14415069481E+03  0.44358844248E+01  0.33599209329E+02  0.14815565042E+03  0.47000000000E+01 0.  1.
         11    1    4    4    0    0 -0.33974848971E+02  0.11657246703E+02  0.67022619521E+01  0.36539048682E+02  0.00000000000E+00 0. -1.
        -12    1    4    4    0    0  0.24753307103E+02 -0.37226041425E+02  0.40683430680E+02  0.60445396058E+02  0.00000000000E+00 0.  1.
</event>
<event>
12    1  0.1039610E+000  0.4761644E+03  0.7818608E-02  0.1020241E+00
         21   -1    0    0  501  502  0.00000000000E+00  0.00000000000E+00  0.26662860690E+04  0.26662860690E+04  0.00000000000E+00 0. -1.
         21   -1    0    0  502  503 -0.00000000000E+00 -0.00000000000E+00 -0.10121027844E+03  0.10121027844E+03  0.00000000000E+00 0. -1.
         -6    2    1    2    0  503  0.24392608155E+03  0.37075330096E+03  0.72660126641E+03  0.86835940461E+03  0.17070650778E+03 0.  0.
        -24    2    3    3    0    0  0.78162183922E+02  0.20609337201E+03  0.29396640244E+03  0.37664243573E+03  0.82821939439E+02 0.  0.
          6    2    1    2  501    0 -0.24392608155E+03 -0.37075330096E+03  0.18384745242E+04  0.18991369429E+04  0.17255320410E+03 0.  0.
         24    2    5    5    0    0 -0.11285129400E+03 -0.27657976265E+03  0.13385755172E+04  0.13738081292E+04  0.79577515853E+02 0.  0.
          5    1    5    5  501    0 -0.13107478755E+03 -0.94173538316E+02  0.49989900695E+03  0.52532881360E+03  0.47000000000E+01 0. -1.
        -11    1    6    6    0    0 -0.49433966375E+02 -0.67900210924E+02  0.25418717732E+03  0.26770371082E+03  0.00000000000E+00 0.  1.
         12    1    6    6    0    0 -0.63417327629E+02 -0.20867955172E+03  0.10843883399E+04  0.11061044184E+04  0.00000000000E+00 0. -1.
         -5    1    3    3    0  503  0.16576389763E+03  0.16465992896E+03  0.43263486397E+03  0.49171696888E+03  0.47000000000E+01 0.  1.
         11    1    4    4    0    0  0.33266608627E+02  0.74353017449E+02  0.49453425065E+02  0.95292600468E+02  0.00000000000E+00 0. -1.
        -12    1    4    4    0    0  0.44895575295E+02  0.13174035456E+03  0.24451297737E+03  0.28134983526E+03  0.00000000000E+00 0.  1.
</event>
<event>
12    1  0.1039610E+000  0.1745812E+03  0.7818608E-02  0.1173205E+00
         21   -1    0    0  501  502  0.00000000000E+00  0.00000000000E+00  0.44762591089E+03  0.44762591089E+03  0.00000000000E+00 0.  1.
         21   -1    0    0  502  503 -0.00000000000E+00 -0.00000000000E+00 -0.68837690977E+02  0.68837690977E+02  0.00000000000E+00 0.  1.
         -6    2    1    2    0  503  0.52455526497E+01  0.32959527544E+02  0.16115931886E+03  0.23759404835E+03  0.17136148773E+03 0.  0.
        -24    2    3    3    0    0 -0.45622046845E+02 -0.17732335214E+02  0.13086876987E+03  0.15951213632E+03  0.76952451781E+02 0.  0.
          6    2    1    2  501    0 -0.52455526497E+01 -0.32959527544E+02  0.21762890106E+03  0.27886955352E+03  0.17114918354E+03 0.  0.
         24    2    5    5    0    0 -0.87945657815E+01  0.65134312441E+01  0.22445847413E+03  0.23837951724E+03  0.79519924884E+02 0.  0.
          5    1    5    5  501    0  0.35490131318E+01 -0.39472958788E+02 -0.68295730781E+01  0.40490036282E+02  0.47000000000E+01 0. -1.
        -13    1    6    6    0    0  0.10768184302E+02  0.39027190279E+02  0.14105147121E+03  0.14674669640E+03  0.00000000000E+00 0.  1.
         14    1    6    6    0    0 -0.19562750084E+02 -0.32513759035E+02  0.83407002922E+02  0.91632820834E+02  0.00000000000E+00 0. -1.
         -5    1    3    3    0  503  0.50867599494E+02  0.50691862757E+02  0.30290548986E+02  0.78081912029E+02  0.47000000000E+01 0.  1.
         11    1    4    4    0    0 -0.56031356224E+02 -0.35480415226E+02  0.75758788210E+02  0.10068647742E+03  0.00000000000E+00 0. -1.
        -12    1    4    4    0    0  0.10409309379E+02  0.17748080013E+02  0.55109981660E+02  0.58825658895E+02  0.00000000000E+00 0.  1.
</event>
<event>
12    1  0.1039610E+000  0.2947065E+03  0.7818608E-02  0.1087937E+00
         21   -1    0    0  503  502  0.00000000000E+00  0.00000000000E+00  0.25217721179E+03  0.25217721179E+03  0.00000000000E+00 0. -1.
         21   -1    0    0  501  503 -0.00000000000E+00 -0.00000000000E+00 -0.42048593010E+03  0.42048593010E+03  0.00000000000E+00 0. -1.
          6    2    1    2  501    0 -0.21732124023E+03 -0.10011914770E+03  0.59095164132E+02  0.30042067820E+03  0.17177887028E+03 0.  0.
         24    2    3    3    0    0 -0.12465941404E+03 -0.43356604244E+02  0.95246486837E+02  0.18580301592E+03  0.89616420541E+02 0.  0.
         -6    2    1    2    0  502  0.21732124023E+03  0.10011914770E+03 -0.22740388244E+03  0.37224246369E+03  0.17204522904E+03 0.  0.
        -24    2    5    5    0    0  0.93425947941E+02  0.70249749777E+02 -0.19544455678E+03  0.24076732201E+03  0.78146615287E+02 0.  0.
          5    1    3    3  501    0 -0.92661826190E+02 -0.56762543457E+02 -0.36151322705E+02  0.11461766228E+03  0.47000000000E+01 0. -1.
        -13    1    4    4    0    0 -0.96074180113E+02 -0.59946380526E+02  0.37540626544E+02  0.11930262052E+03  0.00000000000E+00 0.  1.
         14    1    4    4    0    0 -0.28585233922E+02  0.16589776282E+02  0.57705860293E+02  0.66500395395E+02  0.00000000000E+00 0. -1.
         -5    1    5    5    0  502  0.12389529229E+03  0.29869397924E+02 -0.31959325656E+02  0.13147514168E+03  0.47000000000E+01 0.  1.
         13    1    6    6    0    0 -0.90557473467E+01 -0.76441448003E+01 -0.15086754575E+02  0.19184620751E+02  0.00000000000E+00 0. -1.
        -14    1    6    6    0    0  0.10248169529E+03  0.77893894577E+02 -0.18035780221E+03  0.22158270126E+03  0.00000000000E+00 0.  1.
</event>
<event>
12    1  0.1039610E+000  0.1764244E+03  0.7818608E-02  0.1171367E+00
         21   -1    0    0  503  502  0.00000000000E+00  0.00000000000E+00  0.46895783498E+03  0.46895783498E+03  0.00000000000E+00 0.  1.
         21   -1    0    0  501  503 -0.00000000000E+00 -0.00000000000E+00 -0.14119300776E+03  0.14119300776E+03  0.00000000000E+00 0.  1.
          6    2    1    2  501    0  0.10302050700E+02  0.25039859493E+02  0.38604311609E+03  0.42435006318E+03  0.17409928727E+03 0.  0.
         24    2    3    3    0    0 -0.52244104182E+02  0.20447881019E+02  0.13394946121E+03  0.16453010900E+03  0.77331341319E+02 0.  0.
         -6    2    1    2    0  502 -0.10302050700E+02 -0.25039859493E+02 -0.58278288871E+02  0.18580077957E+03  0.17433428786E+03 0.  0.
        -24    2    5    5    0    0  0.46387450587E+02 -0.42998713304E+02 -0.71299745461E+02  0.12474450783E+03  0.80478901672E+02 0.  0.
          5    1    3    3  501    0  0.62546154882E+02  0.45919784736E+01  0.25209365488E+03  0.25981995418E+03  0.47000000000E+01 0. -1.
        -13    1    4    4    0    0 -0.35363753072E+01 -0.49225180946E+01 -0.93074563732E+01  0.11107019350E+02  0.00000000000E+00 0.  1.
         14    1    4    4    0    0 -0.48707728875E+02  0.25370399114E+02  0.14325691758E+03  0.15342308965E+03  0.00000000000E+00 0. -1.
         -5    1    5    5    0  502 -0.56689501287E+02  0.17958853812E+02  0.13021456589E+02  0.61056271735E+02  0.47000000000E+01 0.  1.
         11    1    6    6    0    0  0.23202369898E+02 -0.44163089997E+01 -0.75906862056E+02  0.79496575154E+02  0.00000000000E+00 0. -1.
        -12    1    6    6    0    0  0.23185080690E+02 -0.38582404305E+02  0.46071165955E+01  0.45247932680E+02  0.00000000000E+00 0.  1.
</event>
<event>
12    1  0.1039610E+000  0.2562636E+03  0.7818608E-02  0.1109595E+00
         21   -1    0    0  503  502  0.00000000000E+00  0.00000000000E+00  0.87354470446E+03  0.87354470446E+03  0.00000000000E+00 0. -1.
         21   -1    0    0  501  503 -0.00000000000E+00 -0.00000000000E+00 -0.11247020493E+03  0.11247020493E+03  0.00000000000E+00 0. -1.
          6    2    1    2  501    0 -0.18812948380E+03  0.58015911377E+01  0.66637490711E+03  0.71395136688E+03  0.17390996609E+03 0.  0.
         24    2    3    3    0    0 -0.19119116091E+03 -0.25361052098E+02  0.63780325835E+03  0.67130264693E+03  0.81590467839E+02 0.  0.
         -6    2    1    2    0  502  0.18812948380E+03 -0.58015911377E+01  0.94699592423E+02  0.27206354251E+03  0.17211681273E+03 0.  0.
        -24    2    5    5    0    0  0.87302042785E+02  0.42508939614E+02  0.24330160980E+01  0.12702805944E+03  0.81863005661E+02 0.  0.
          5    1    3    3  501    0  0.30616771113E+01  0.31162643236E+02  0.28571648767E+02  0.42648719951E+02  0.47000000000E+01 0. -1.
        -13    1    4    4    0    0 -0.58075803126E+02  0.23665987273E+02  0.13471059733E+03  0.14859280903E+03  0.00000000000E+00 0.  1.
         14    1    4    4    0    0 -0.13311535779E+03 -0.49027039371E+02  0.50309266102E+03  0.52270983790E+03  0.00000000000E+00 0. -1.
         -5    1    5    5    0  502  0.10082744102E+03 -0.48310530752E+02  0.92266576325E+02  0.14503548307E+03  0.47000000000E+01 0.  1.
         11    1    6    6    0    0  0.45779931765E+02 -0.21550564210E+02  0.29846332721E+01  0.50686655108E+02  0.00000000000E+00 0. -1.
        -12    1    6    6    0    0  0.41522111020E+02  0.64059503824E+02 -0.55161717411E+00  0.76341404331E+02  0.00000000000E+00 0.  1.
</event>
<event>
12    1  0.1039610E+000  0.1874953E+03  0.7818608E-02  0.1160777E+00
         21   -1    0    0  501  502  0.00000000000E+00  0.00000000000E+00  0.38971671716E+02  0.38971671716E+02  0.00000000000E+00 0.  1.
         21   -1    0    0  502  503 -0.00000000000E+00 -0.00000000000E+00 -0.17996785279E+04  0.17996785279E+04  0.00000000000E+00 0.  1.
         -6    2    1    2    0  503  0.73289132151E+02  0.54623215206E+01 -0.23100166884E+03  0.29751680267E+03  0.17249157376E+03 0.  0.
        -24    2    3    3    0    0  0.11416457439E+03 -0.64446004163E+01 -0.14193672969E+03  0.19868750563E+03  0.79092393679E+02 0.  0.
          6    2    1    2  501    0 -0.73289132151E+02 -0.54623215206E+01 -0.15297051874E+04  0.15411333970E+04  0.17231672332E+03 0.  0.
         24    2    5    5    0    0  0.23713562767E+02 -0.25417435705E+02 -0.78028628255E+03  0.78518464586E+03  0.80373293194E+02 0.  0.
          5    1    5    5  501    0 -0.97002694918E+02  0.19955114184E+02 -0.74941890481E+03  0.75594875110E+03  0.47000000000E+01 0. -1.
        -13    1    6    6    0    0  0.14222654550E+02 -0.47371786335E+02 -0.28056949714E+03  0.28489579282E+03  0.00000000000E+00 0.  1.
         14    1    6    6    0    0  0.94909082171E+01  0.21954350631E+02 -0.49971678541E+03  0.50028885304E+03  0.00000000000E+00 0. -1.
         -5    1    3    3    0  503 -0.40875442240E+02  0.11906921937E+02 -0.89064939148E+02  0.98829297042E+02  0.47000000000E+01 0.  1.
         13    1    4    4    0    0  0.93104562557E+02  0.14165962587E+02 -0.14055384188E+03  0.16918781437E+03  0.00000000000E+00 0. -1.
        -14    1    4    4    0    0  0.21060011833E+02 -0.20610563003E+02 -0.13828878138E+01  0.29499691260E+02  0.00000000000E+00 0.  1.
</event>
<event>
12    1  0.1039610E+000  0.2207649E+03  0.7818608E-02  0.1133322E+00
         21   -1    0    0  503  502  0.00000000000E+00  0.00000000000E+00  0.17686888119E+03  0.17686888119E+03  0.00000000000E+00 0.  1.
         21   -1    0    0  501  503 -0.00000000000E+00 -0.00000000000E+00 -0.27620454674E+03  0.27620454674E+03  0.00000000000E+00 0. -1.
          6    2    1    2  501    0 -0.13773002356E+03  0.14665468791E+02 -0.38210131408E+02  0.22400252830E+03  0.17185017655E+03 0.  0.
         24    2    3    3    0    0 -0.66710762275E+02  0.63936581748E+02 -0.57617799810E+02  0.13528879972E+03  0.80280982720E+02 0.  0.
         -6    2    1    2    0  502  0.13773002356E+03 -0.14665468791E+02 -0.61125534139E+02  0.22907089963E+03  0.17190843716E+03 0.  0.
        -24    2    5    5    0    0  0.13211087654E+03 -0.30634307635E+01 -0.10270236867E+03  0.18528842289E+03  0.79506948251E+02 0.  0.
          5    1    3    3  501    0 -0.71019261285E+02 -0.49271112957E+02  0.19407668402E+02  0.88713728579E+02  0.47000000000E+01 0. -1.
        -11    1    4    4    0    0  0.22198886552E+01 -0.10047369245E+01  0.15470628245E+02  0.15661345415E+02  0.00000000000E+00 0.  1.
         12    1    4    4    0    0 -0.68930650930E+02  0.64941318672E+02 -0.73088428055E+02  0.11962745431E+03  0.00000000000E+00 0. -1.
         -5    1    5    5    0  502  0.56191470180E+01 -0.11602038027E+02  0.41576834527E+02  0.43782476733E+02  0.47000000000E+01 0.  1.
         13    1    6    6    0    0  0.26084422218E+02 -0.23386056064E+02  0.17440997467E+01  0.35076296621E+02  0.00000000000E+00 0. -1.
        -14    1    6    6    0    0  0.10602645432E+03  0.20322625301E+02 -0.10444646841E+03  0.15021212627E+03  0.00000000000E+00 0.  1.
</event>
<event>
12    1  0.1039610E+000  0.2267543E+03  0.7818608E-02  0.1129133E+00
         21   -1    0    0  503  502  0.00000000000E+00  0.00000000000E+00  0.29401781331E+02  0.29401781331E+02  0.00000000000E+00 0.  1.
         21   -1    0    0  501  503 -0.00000000000E+00 -0.00000000000E+00 -0.20207811428E+04  0.20207811428E+04  0.00000000000E+00 0.  1.
          6    2    1    2  501    0 -0.57804008109E+02 -0.13492813429E+03 -0.13753204378E+04  0.13937180804E+04  0.17145517281E+03 0.  0.
         24    2    3    3    0    0  0.32351704847E+02 -0.90904870393E+02 -0.82895440764E+03  0.83819667736E+03  0.78089254874E+02 0.  0.
         -6    2    1    2    0  502  0.57804008109E+02  0.13492813429E+03 -0.61605892368E+03  0.65646484373E+03  0.17283109911E+03 0.  0.
        -24    2    5    5    0    0  0.65649424172E+01  0.90007177464E+02 -0.18717785943E+03  0.22217877269E+03  0.78635014539E+02 0.  0.
          5    1    3    3  501    0 -0.90155712956E+02 -0.44023263901E+02 -0.54636603018E+03  0.55552140308E+03  0.47000000000E+01 0. -1.
        -11    1    4    4    0    0 -0.26884753749E+01 -0.66889825806E+02 -0.29249473172E+03  0.30005773574E+03  0.00000000000E+00 0.  1.
         12    1    4    4    0    0  0.35040180222E+02 -0.24015044587E+02 -0.53645967592E+03  0.53813894162E+03  0.00000000000E+00 0. -1.
         -5    1    5    5    0  502  0.51239065692E+02  0.44920956831E+02 -0.42888106426E+03  0.43428607103E+03  0.47000000000E+01 0.  1.
         11    1    6    6    0    0  0.39455571114E+02  0.72248818978E+02 -0.12891703310E+03  0.15295827980E+03  0.00000000000E+00 0. -1.
        -12    1    6    6    0    0 -0.32890628697E+02  0.17758358486E+02 -0.58260826332E+02  0.69220492898E+02  0.00000000000E+00 0.  1.
</event>
<event>
12    1  0.1039610E+000  0.4396710E+03  0.7818608E-02  0.1030967E+00
         21   -1    0    0  501  502  0.00000000000E+00  0.00000000000E+00  0.18523566286E+04  0.18523566286E+04  0.00000000000E+00 0. -1.
         21   -1    0    0  502  503 -0.00000000000E+00 -0.00000000000E+00 -0.10406375549E+03  0.10406375549E+03  0.00000000000E+00 0. -1.
         -6    2    1    2    0  503  0.65237346212E+02  0.39802176399E+03  0.90168278626E+03  0.10031661847E+04  0.17502374425E+03 0.  0.
        -24    2    3    3    0    0  0.14146590716E+02  0.23339190634E+03  0.38408800121E+03  0.45760252491E+03  0.84879739372E+02 0.  0.
          6    2    1    2  501    0 -0.65237346212E+02 -0.39802176399E+03  0.84661008688E+03  0.95325419946E+03  0.17107803378E+03 0.  0.
         24    2    5    5    0    0 -0.98221130581E+02 -0.31151585097E+03  0.57220525729E+03  0.66361424449E+03  0.79218010052E+02 0.  0.
          5    1    5    5  501    0  0.32983784369E+02 -0.86505913026E+02  0.27440482958E+03  0.28963995498E+03  0.47000000000E+01 0. -1.
        -11    1    6    6    0    0 -0.66723052896E+02 -0.20526634802E+03  0.44717965509E+03  0.49654393898E+03  0.00000000000E+00 0.  1.
         12    1    6    6    0    0 -0.31498077685E+02 -0.10624950295E+03  0.12502560221E+03  0.16707030550E+03  0.00000000000E+00 0. -1.
         -5    1    3    3    0  503  0.51090755496E+02  0.16462985766E+03  0.51759478505E+03  0.54556365975E+03  0.47000000000E+01 0.  1.
         11    1    4    4    0    0 -0.57191866029E+01 -0.16109406097E+01 -0.10089443420E+01  0.60267896705E+01  0.00000000000E+00 0. -1.
        -12    1    4    4    0    0  0.19865777319E+02  0.23500284694E+03  0.38509694555E+03  0.45157573524E+03  0.00000000000E+00 0.  1.
</event>
<event>
12    1  0.1039610E+000  0.2661058E+03  0.7818608E-02  0.1103853E+00
         21   -1    0    0  501  502  0.00000000000E+00  0.00000000000E+00  0.16985612651E+03  0.16985612651E+03  0.00000000000E+00 0.  1.
         21   -1    0    0  502  503 -0.00000000000E+00 -0.00000000000E+00 -0.41971806695E+03  0.41971806695E+03  0.00000000000E+00 0.  1.
         -6    2    1    2    0  503 -0.15121137236E+03  0.13144205542E+03 -0.89381125016E+02  0.28071569092E+03  0.17512972494E+03 0.  0.
        -24    2    3    3    0    0 -0.62756747755E+02  0.14109284969E+03 -0.53625874702E+02  0.18470586659E+03  0.85993727044E+02 0.  0.
          6    2    1    2  501    0  0.15121137236E+03 -0.13144205542E+03 -0.16048081543E+03  0.30885850254E+03  0.17174862273E+03 0.  0.
         24    2    5    5    0    0  0.13752751410E+03 -0.11632229322E+03 -0.18984904403E+03  0.27279691582E+03  0.77011718129E+02 0.  0.
          5    1    5    5  501    0  0.13683858259E+02 -0.15119762197E+02  0.29368228601E+02  0.36061586722E+02  0.47000000000E+01 0. -1.
        -13    1    6    6    0    0  0.44820985572E+00  0.53917044427E+01 -0.27178433225E+02  0.27711705134E+02  0.00000000000E+00 0.  1.
         14    1    6    6    0    0  0.13707930424E+03 -0.12171399766E+03 -0.16267061080E+03  0.24508521069E+03  0.00000000000E+00 0. -1.
         -5    1    3    3    0  503 -0.88454624602E+02 -0.96507942765E+01 -0.35755250314E+02  0.96009824334E+02  0.47000000000E+01 0.  1.
         13    1    4    4    0    0 -0.75494872507E+02  0.14176043562E+03 -0.38957373970E+02  0.16526697755E+03  0.00000000000E+00 0. -1.
        -14    1    4    4    0    0  0.12738124751E+02 -0.66758593053E+00 -0.14668500732E+02  0.19438889034E+02  0.00000000000E+00 0.  1.
</event>
<event>
12    1  0.1039610E+000  0.3559253E+03  0.7818608E-02  0.1060222E+00
         21   -1    0    0  501  502  0.00000000000E+00  0.00000000000E+00  0.40481893217E+03  0.40481893217E+03  0.00000000000E+00 0.  1.
         21   -1    0    0  502  503 -0.00000000000E+00 -0.00000000000E+00 -0.31282700874E+03  0.31282700874E+03  0.00000000000E+00 0.  1.
         -6    2    1    2    0  503 -0.30904042104E+02 -0.30959595183E+03  0.44869693855E+02  0.35874244263E+03  0.17285293608E+03 0.  0.
        -24    2    3    3    0    0 -0.71334761415E+02 -0.22110909499E+03  0.75141001302E+02  0.25674730083E+03  0.79341832163E+02 0.  0.
          6    2    1    2  501    0  0.30904042104E+02  0.30959595183E+03  0.47122229574E+02  0.35890349829E+03  0.17258766861E+03 0.  0.
         24    2    5    5    0    0 -0.11133584854E+01  0.95584834971E+02  0.24453203680E+02  0.14127572705E+03  0.10110970102E+03 0.  0.
          5    1    5    5  501    0  0.32017400589E+02  0.21401111686E+03  0.22669025893E+02  0.21762777124E+03  0.47000000000E+01 0. -1.
        -13    1    6    6    0    0  0.71931995217E+00 -0.19665085931E+02 -0.84367995314E+01  0.21410572440E+02  0.00000000000E+00 0.  1.
         14    1    6    6    0    0 -0.18326784376E+01  0.11524992090E+03  0.32890003212E+02  0.11986515461E+03  0.00000000000E+00 0. -1.
         -5    1    3    3    0  503  0.40430719311E+02 -0.88486856836E+02 -0.30271307447E+02  0.10199514180E+03  0.47000000000E+01 0.  1.
         11    1    4    4    0    0 -0.35712366417E+02 -0.15753910070E+03  0.86112646596E+02  0.18305553603E+03  0.00000000000E+00 0. -1.
        -12    1    4    4    0    0 -0.35622394998E+02 -0.63569994287E+02 -0.10971645294E+02  0.73691764801E+02  0.00000000000E+00 0.  1.
</event>
<event>
12    1  0.1039610E+000  0.2361199E+03  0.7818608E-02  0.1122987E+00
         21   -1    0    0  501  502  0.00000000000E+00  0.00000000000E+00  0.21300180654E+03  0.21300180654E+03  0.00000000000E+00 0.  1.
         21   -1    0    0  502  503 -0.00000000000E+00 -0.00000000000E+00 -0.27305440194E+03  0.27305440194E+03  0.00000000000E+00 0. -1.
         -6    2    1    2    0  503  0.15146731678E+03 -0.44280479983E+02  0.26835607627E+02  0.23764001940E+03  0.17564031435E+03 0.  0.
        -24    2    3    3    0    0  0.57718063173E+02 -0.48922410962E+02 -0.45995530187E+02  0.11874117706E+03  0.79114481740E+02 0.  0.
          6    2    1    2  501    0 -0.15146731678E+03  0.44280479983E+02 -0.86888203024E+02  0.24841618908E+03  0.17104950807E+03 0.  0.
         24    2    5    5    0    0 -0.10220714637E+02  0.16129901752E+02 -0.47308930502E+02  0.98978354228E+02  0.84817114795E+02 0.  0.
          5    1    5    5  501    0 -0.14124660214E+03  0.28150578230E+02 -0.39579272523E+02  0.14943783485E+03  0.47000000000E+01 0. -1.
        -13    1    6    6    0    0 -0.38180740060E+02 -0.12121503379E+02 -0.41001058186E+01  0.40267985092E+02  0.00000000000E+00 0.  1.
         14    1    6    6    0    0  0.27960025423E+02  0.28251405132E+02 -0.43208824683E+02  0.58710369135E+02  0.00000000000E+00 0. -1.
         -5    1    3    3    0  503  0.93749253604E+02  0.46419309797E+01  0.72831137815E+02  0.11889884234E+03  0.47000000000E+01 0.  1.
         11    1    4    4    0    0 -0.14498210481E+02  0.72976833359E+01  0.18007000388E+00  0.16232273852E+02  0.00000000000E+00 0. -1.
        -12    1    4    4    0    0  0.72216273654E+02 -0.56220094298E+02 -0.46175600191E+02  0.10250890321E+03  0.00000000000E+00 0.  1.
</event>
<event>
12    1  0.1039610E+000  0.1875229E+03  0.7818608E-02  0.1161057E+00
         21   -1    0    0  501  502  0.00000000000E+00  0.00000000000E+00  0.53350664792E+03  0.53350664792E+03  0.00000000000E+00 0.  1.
         21   -1    0    0  502  503 -0.00000000000E+00 -0.00000000000E+00 -0.96396921664E+02  0.96396921664E+02  0.00000000000E+00 0.  1.
         -6    2    1    2    0  503 -0.73423467278E+02 -0.15311252810E+02  0.39658485704E+03  0.43805182847E+03  0.17024810009E+03 0.  0.
        -24    2    3    3    0    0 -0.73415517442E+02 -0.70941795060E+02  0.27173008955E+03  0.30128355635E+03  0.80696736447E+02 0.  0.
          6    2    1    2  501    0  0.73423467278E+02  0.15311252810E+02  0.40524869224E+02  0.19185174112E+03  0.17187025785E+03 0.  0.
         24    2    5    5    0    0  0.76425203531E+02 -0.44649935956E+02 -0.23117007841E+01  0.11795034527E+03  0.77926320794E+02 0.  0.
          5    1    5    5  501    0 -0.30017362530E+01  0.59961188766E+02  0.42836570008E+02  0.73901395851E+02  0.47000000000E+01 0. -1.
        -11    1    6    6    0    0 -0.88540502698E+01 -0.23725465448E+02  0.13549157432E+02  0.28720577711E+02  0.00000000000E+00 0.  1.
         12    1    6    6    0    0  0.85279253801E+02 -0.20924470507E+02 -0.15860858216E+02  0.89229767557E+02  0.00000000000E+00 0. -1.
         -5    1    3    3    0  503 -0.79498363441E-02  0.55630542249E+02  0.12485476748E+03  0.13676827212E+03  0.47000000000E+01 0.  1.
         13    1    4    4    0    0 -0.20849611599E+02 -0.48232348146E+02  0.21249791819E+03  0.21889822052E+03  0.00000000000E+00 0. -1.
        -14    1    4    4    0    0 -0.52565905843E+02 -0.22709446913E+02  0.59232171364E+02  0.82385335835E+02  0.00000000000E+00 0.  1.
</event>
<event>
12    1  0.1039610E+000  0.3681724E+03  0.7818608E-02  0.1055535E+00
         21   -1    0    0  501  502  0.00000000000E+00  0.00000000000E+00  0.39288281018E+03  0.39288281018E+03  0.00000000000E+00 0.  1.
         21   -1    0    0  502  503 -0.00000000000E+00 -0.00000000000E+00 -0.39266911785E+03  0.39266911785E+03  0.00000000000E+00 0.  1.
         -6    2    1    2    0  503  0.29208297231E+03 -0.14258019812E+03  0.13888819324E+03  0.39349823342E+03  0.17294320997E+03 0.  0.
        -24    2    3    3    0    0  0.13342289132E+03 -0.77665295026E+02  0.14064943939E+03  0.22199850184E+03  0.75282827002E+02 0.  0.
          6    2    1    2  501    0 -0.29208297231E+03  0.14258019812E+03 -0.13867450091E+03  0.39205369460E+03  0.16980549649E+03 0.  0.
         24    2    5    5    0    0 -0.19682954360E+03  0.22192219056E+02 -0.90283789559E+02  0.23102502595E+03  0.77375940291E+02 0.  0.
          5    1    5    5  501    0 -0.95253428709E+02  0.12038797906E+03 -0.48390711350E+02  0.16102866865E+03  0.47000000000E+01 0. -1.
        -11    1    6    6    0    0 -0.63399487757E+02  0.10368122906E+02  0.82027152822E+01  0.64763242340E+02  0.00000000000E+00 0.  1.
         12    1    6    6    0    0 -0.13343005585E+03  0.11824096150E+02 -0.98486504841E+02  0.16626178361E+03  0.00000000000E+00 0. -1.
         -5    1    3    3    0  503  0.15866008099E+03 -0.64914903093E+02 -0.17612461459E+01  0.17149973158E+03  0.47000000000E+01 0.  1.
         13    1    4    4    0    0  0.27913187773E+02 -0.28202474560E+00 -0.25403787133E+01  0.28029968135E+02  0.00000000000E+00 0. -1.
        -14    1    4    4    0    0  0.10550970355E+03 -0.77383270281E+02  0.14318981810E+03  0.19396853371E+03  0.00000000000E+00 0.  1.
</event>
<event>
12    1  0.1039610E+000  0.1843856E+03  0.7818608E-02  0.1165929E+00
         21   -1    0    0  501  502  0.00000000000E+00  0.00000000000E+00  0.57007064022E+02  0.57007064022E+02  0.00000000000E+00 0. -1.
         21   -1    0    0  502  503 -0.00000000000E+00 -0.00000000000E+00 -0.58720890229E+03  0.58720890229E+03  0.00000000000E+00 0. -1.
         -6    2    1    2    0  503 -0.29111536111E+02 -0.60116581457E+02 -0.21054268184E+03  0.27986828986E+03  0.17186201993E+03 0.  0.
        -24    2    3    3    0    0 -0.39509175434E+02 -0.47147854084E+02 -0.23154993740E+03  0.25267098155E+03  0.80270519619E+02 0.  0.
          6    2    1    2  501    0  0.29111536111E+02  0.60116581457E+02 -0.31965915643E+03  0.36434767645E+03  0.16157279519E+03 0.  0.
         24    2    5    5    0    0  0.28514853169E+02 -0.27519716898E+02 -0.13710650314E+03  0.16179388596E+03  0.76214412423E+02 0.  0.
          5    1    5    5  501    0  0.59668294182E+00  0.87636298355E+02 -0.18255265329E+03  0.20255379049E+03  0.47000000000E+01 0. -1.
        -11    1    6    6    0    0 -0.48428327955E+01  0.20356926953E+02 -0.12948206088E+02  0.24607184832E+02  0.00000000000E+00 0.  1.
         12    1    6    6    0    0  0.33357685964E+02 -0.47876643851E+02 -0.12415829706E+03  0.13718670113E+03  0.00000000000E+00 0. -1.
         -5    1    3    3    0  503  0.10397639324E+02 -0.12968727373E+02  0.21007255561E+02  0.27197308311E+02  0.47000000000E+01 0.  1.
         13    1    4    4    0    0 -0.21278400498E+02 -0.12456606920E+01 -0.65273845054E+01  0.22291898681E+02  0.00000000000E+00 0. -1.
        -14    1    4    4    0    0 -0.18230774936E+02 -0.45902193392E+02 -0.22502255289E+03  0.23037908287E+03  0.00000000000E+00 0.  1.
</event>
<event>
12    1  0.1039610E+000  0.1968743E+03  0.7818608E-02  0.1152551E+00
         21   -1    0    0  503  502  0.00000000000E+00  0.00000000000E+00  0.10860934880E+03  0.10860934880E+03  0.00000000000E+00 0. -1.
         21   -1    0    0  501  503 -0.00000000000E+00 -0.00000000000E+00 -0.65418222738E+03  0.65418222738E+03  0.00000000000E+00 0. -1.
          6    2    1    2  501    0 -0.90207884288E+01  0.95252527376E+02 -0.14872489386E+02  0.19675059785E+03  0.17127518273E+03 0.  0.
         24    2    3    3    0    0 -0.71387444740E+02  0.64593825081E+02  0.47704930301E+00  0.12542560795E+03  0.80391703857E+02 0.  0.
         -6    2    1    2    0  502  0.90207884288E+01 -0.95252527376E+02 -0.53070038919E+03  0.56604097834E+03  0.17206123176E+03 0.  0.
        -24    2    5    5    0    0 -0.14746096234E+01 -0.12762540827E+03 -0.33585467637E+03  0.36818977516E+03  0.80466934691E+02 0.  0.
          5    1    3    3  501    0  0.62366656311E+02  0.30658702295E+02 -0.15349538689E+02  0.71324989897E+02  0.47000000000E+01 0. -1.
        -11    1    4    4    0    0  0.25353823101E+01  0.49774769004E+02  0.35845245109E+01  0.49968035872E+02  0.00000000000E+00 0.  1.
         12    1    4    4    0    0 -0.73922827050E+02  0.14819056076E+02 -0.31074752079E+01  0.75457572080E+02  0.00000000000E+00 0. -1.
         -5    1    5    5    0  502  0.10495398052E+02  0.32372880889E+02 -0.19484571282E+03  0.19785120318E+03  0.47000000000E+01 0.  1.
         13    1    6    6    0    0 -0.62066014733E+01 -0.63983976288E+02 -0.71100097311E+02  0.95852464554E+02  0.00000000000E+00 0. -1.
        -14    1    6    6    0    0  0.47319918499E+01 -0.63641431978E+02 -0.26475457906E+03  0.27233731060E+03  0.00000000000E+00 0.  1.
</event>
<event>
12    1  0.1039610E+000  0.1921867E+03  0.7818608E-02  0.1156987E+00
         21   -1    0    0  503  502  0.00000000000E+00  0.00000000000E+00  0.78733403816E+02  0.78733403816E+02  0.00000000000E+00 0. -1.
         21   -1    0    0  501  503 -0.00000000000E+00 -0.00000000000E+00 -0.50170702290E+03  0.50170702290E+03  0.00000000000E+00 0. -1.
          6    2    1    2  501    0  0.67169863297E+02  0.51992033540E+02 -0.29009351591E+03  0.34678931664E+03  0.16998123448E+03 0.  0.
         24    2    3    3    0    0  0.24536651591E+02  0.18462302506E+02 -0.27775962163E+03  0.29096773881E+03  0.81048835481E+02 0.  0.
         -6    2    1    2    0  502 -0.67169863297E+02 -0.51992033540E+02 -0.13288010317E+03  0.23365111008E+03  0.17239709201E+03 0.  0.
        -24    2    5    5    0    0  0.40007510112E+02 -0.27204561812E+02 -0.26240622927E+02  0.80368766433E+02  0.58565171199E+02 0.  0.
          5    1    3    3  501    0  0.42633211707E+02  0.33529731034E+02 -0.12333894279E+02  0.55821577833E+02  0.47000000000E+01 0. -1.
        -11    1    4    4    0    0  0.12215543587E+02  0.31126399423E+02 -0.38240154851E+02  0.50797457507E+02  0.00000000000E+00 0.  1.
         12    1    4    4    0    0  0.12321108003E+02 -0.12664096917E+02 -0.23951946678E+03  0.24017028130E+03  0.00000000000E+00 0. -1.
         -5    1    5    5    0  502 -0.10717737341E+03 -0.24787471728E+02 -0.10663948025E+03  0.15328234364E+03  0.47000000000E+01 0.  1.
         13    1    6    6    0    0  0.44947743710E+01  0.15757557951E+02 -0.17454782090E+02  0.23941032706E+02  0.00000000000E+00 0. -1.
        -14    1    6    6    0    0  0.35512735741E+02 -0.42962119763E+02 -0.87858408376E+01  0.56427733727E+02  0.00000000000E+00 0.  1.
</event>
<event>
12    1  0.1039610E+000  0.3973792E+03  0.7818608E-02  0.1044721E+00
         21   -1    0    0  501  502  0.00000000000E+00  0.00000000000E+00  0.26872093324E+03  0.26872093324E+03  0.00000000000E+00 0. -1.
         21   -1    0    0  502  503 -0.00000000000E+00 -0.00000000000E+00 -0.68737082134E+03  0.68737082134E+03  0.00000000000E+00 0.  1.
         -6    2    1    2    0  503 -0.28818805950E+03 -0.21168272281E+03 -0.26691404506E+02  0.39793257895E+03  0.17255716022E+03 0.  0.
        -24    2    3    3    0    0 -0.19219326033E+03 -0.56407884528E+02 -0.16960553559E+02  0.21506088533E+03  0.76442300234E+02 0.  0.
          6    2    1    2  501    0  0.28818805950E+03  0.21168272281E+03 -0.39195848359E+03  0.55815917563E+03  0.17334439623E+03 0.  0.
         24    2    5    5    0    0  0.21834001705E+03  0.22930925480E+03 -0.32606705668E+03  0.46041863232E+03  0.73556061323E+02 0.  0.
          5    1    5    5  501    0  0.69848042458E+02 -0.17626531994E+02 -0.65891426907E+02  0.97740543303E+02  0.47000000000E+01 0. -1.
        -11    1    6    6    0    0  0.19407336327E+02  0.59322906892E+02 -0.77505999090E+02  0.99513978316E+02  0.00000000000E+00 0.  1.
         12    1    6    6    0    0  0.19893268072E+03  0.16998634791E+03 -0.24856105759E+03  0.36090465401E+03  0.00000000000E+00 0. -1.
         -5    1    3    3    0  503 -0.95994799169E+02 -0.15527483828E+03 -0.97308509473E+01  0.18287169363E+03  0.47000000000E+01 0.  1.
         13    1    4    4    0    0 -0.64918533971E+02 -0.55292269575E+02  0.69429077241E+01  0.85556151710E+02  0.00000000000E+00 0. -1.
        -14    1    4    4    0    0 -0.12727472636E+03 -0.11156149528E+01 -0.23903461283E+02  0.12950473362E+03  0.00000000000E+00 0.  1.
</event>
<event>
12    1  0.1039610E+000  0.1863688E+03  0.7818608E-02  0.1162120E+00
         21   -1    0    0  503  502  0.00000000000E+00  0.00000000000E+00  0.88070505255E+03  0.88070505255E+03  0.00000000000E+00 0. -1.
         21   -1    0    0  501  503 -0.00000000000E+00 -0.00000000000E+00 -0.39292098054E+02  0.39292098054E+02  0.00000000000E+00 0. -1.
          6    2    1    2  501    0 -0.44885949846E+02  0.55226073060E+02  0.45218607531E+03  0.48908646560E+03  0.17224591862E+03 0.  0.
         24    2    3    3    0    0 -0.57779673697E+02 -0.24938985104E+02  0.21229195984E+03  0.23578040308E+03  0.81019001452E+02 0.  0.
         -6    2    1    2    0  502  0.44885949846E+02 -0.55226073060E+02  0.38922687918E+03  0.43091068500E+03  0.17065106896E+03 0.  0.
        -24    2    5    5    0    0 -0.26048699405E+02 -0.57169994020E+02  0.30047821368E+03  0.31718329639E+03  0.79819444096E+02 0.  0.
          5    1    3    3  501    0  0.12893723851E+02  0.80165058164E+02  0.23989411548E+03  0.25330606251E+03  0.47000000000E+01 0. -1.
        -13    1    4    4    0    0 -0.67137186065E+02 -0.62527357781E-01  0.18853541601E+03  0.20013247801E+03  0.00000000000E+00 0.  1.
         14    1    4    4    0    0  0.93575123679E+01 -0.24876457746E+02  0.23756543823E+02  0.35647925075E+02  0.00000000000E+00 0. -1.
         -5    1    5    5    0  502  0.70934649251E+02  0.19439209597E+01  0.88748665498E+02  0.11372738861E+03  0.47000000000E+01 0.  1.
         13    1    6    6    0    0 -0.86487978578E+01  0.12865490517E+01  0.19607808848E+03  0.19627295712E+03  0.00000000000E+00 0. -1.
        -14    1    6    6    0    0 -0.17399901547E+02 -0.58456543072E+02  0.10440012520E+03  0.12091033927E+03  0.00000000000E+00 0.  1.
</event>
<event>
12    1  0.1039610E+000  0.4465166E+03  0.7818608E-02  0.1028780E+00
         21   -1    0    0  503  502  0.00000000000E+00  0.00000000000E+00  0.17663272473E+03  0.17663272473E+03  0.00000000000E+00 0.  1.
         21   -1    0    0  501  503 -0.00000000000E+00 -0.00000000000E+00 -0.11284746712E+04  0.11284746712E+04  0.00000000000E+00 0.  1.
          6    2    1    2  501    0 -0.40974153185E+03 -0.38515956248E+02 -0.46771944410E+03  0.64650913117E+03  0.17274540946E+03 0.  0.
         24    2    3    3    0    0 -0.19758186688E+03  0.98664238118E+01 -0.18730203413E+03  0.29153224185E+03  0.10379333124E+03 0.  0.
         -6    2    1    2    0  502  0.40974153185E+03  0.38515956248E+02 -0.48412250237E+03  0.65859826476E+03  0.17322088568E+03 0.  0.
        -24    2    5    5    0    0  0.95837704909E+02  0.59363955399E+02 -0.15216066549E+03  0.20122423535E+03  0.68039546485E+02 0.  0.
          5    1    3    3  501    0 -0.21215966497E+03 -0.48382380060E+02 -0.28041740996E+03  0.35497688932E+03  0.47000000000E+01 0. -1.
        -13    1    4    4    0    0 -0.80932414301E+01 -0.18786780244E+02  0.38950346020E+01  0.20823423430E+02  0.00000000000E+00 0.  1.
         14    1    4    4    0    0 -0.18948862545E+03  0.28653204056E+02 -0.19119706874E+03  0.27070881842E+03  0.00000000000E+00 0. -1.
         -5    1    5    5    0  502  0.31390382694E+03 -0.20847999151E+02 -0.33196183689E+03  0.45737402942E+03  0.47000000000E+01 0.  1.
         11    1    6    6    0    0  0.95131656322E+02  0.32389489090E+02 -0.96292955851E+02  0.13918133634E+03  0.00000000000E+00 0. -1.
        -12    1    6    6    0    0  0.70604858724E+00  0.26974466309E+02 -0.55867709639E+02  0.62042899010E+02  0.00000000000E+00 0.  1.
</event>
<event>
12    1  0.1039610E+000  0.1754908E+03  0.7818608E-02  0.1172379E+00
         21   -1    0    0  501  502  0.00000000000E+00  0.00000000000E+00  0.15424042087E+03  0.15424042087E+03  0.00000000000E+00 0. -1.
         21   -1    0    0  502  503 -0.00000000000E+00 -0.00000000000E+00 -0.20073395895E+03  0.20073395895E+03  0.00000000000E+00 0. -1.
         -6    2    1    2    0  503  0.31852502117E+02  0.19696776619E+02 -0.39523342202E+02  0.17934518977E+03  0.17088024348E+03 0.  0.
        -24    2    3    3    0    0 -0.55917454998E+01 -0.27478649958E+02  0.33777946371E+02  0.84356972294E+02  0.72033362356E+02 0.  0.
          6    2    1    2  501    0 -0.31852502117E+02 -0.19696776619E+02 -0.69701958745E+01  0.17562919006E+03  0.17144819588E+03 0.  0.
         24    2    5    5    0    0 -0.82773020944E+00  0.52087987794E+02 -0.15193583598E+02  0.96855444565E+02  0.80226482844E+02 0.  0.
          5    1    5    5  501    0 -0.31024771907E+02 -0.71784764413E+02  0.82233877234E+01  0.78773745495E+02  0.47000000000E+01 0. -1.
        -11    1    6    6    0    0 -0.17822285393E+02 -0.16638624794E+02  0.29792217563E+00  0.24383733292E+02  0.00000000000E+00 0.  1.
         12    1    6    6    0    0  0.16994555183E+02  0.68726612588E+02 -0.15491505774E+02  0.72471711273E+02  0.00000000000E+00 0. -1.
         -5    1    3    3    0  503  0.37444247616E+02  0.47175426577E+02 -0.73301288572E+02  0.94988217472E+02  0.47000000000E+01 0.  1.
         13    1    4    4    0    0  0.22481375019E+02 -0.11504173466E+01  0.39482745441E+02  0.45449123978E+02  0.00000000000E+00 0. -1.
        -14    1    4    4    0    0 -0.28073120519E+02 -0.26328232611E+02 -0.57047990702E+01  0.38907848316E+02  0.00000000000E+00 0.  1.
</event>
<event>
12    1  0.1039610E+000  0.2005947E+03  0.7818608E-02  0.1149757E+00
         21   -1    0    0  503  502  0.00000000000E+00  0.00000000000E+00  0.69685957418E+02  0.69685957418E+02  0.00000000000E+00 0.  1.
         21   -1    0    0  501  503 -0.00000000000E+00 -0.00000000000E+00 -0.63578815237E+03  0.63578815237E+03  0.00000000000E+00 0.  1.
          6    2    1    2  501    0 -0.28087584484E+02 -0.94978057712E+02 -0.39775145705E+03  0.44547104817E+03  0.17443763735E+03 0.  0.
         24    2    3    3    0    0 -0.90429910272E+01  0.13886234963E+02 -0.10805059263E+03  0.13536975568E+03  0.79846333519E+02 0.  0.
         -6    2    1    2    0  502  0.28087584484E+02  0.94978057712E+02 -0.16835073790E+03  0.26000306162E+03  0.17160966537E+03 0.  0.
        -24    2    5    5    0    0  0.32293756630E+02  0.32952196988E+01 -0.13850003028E+03  0.16337703295E+03  0.80349557052E+02 0.  0.
          5    1    3    3  501    0 -0.19044593457E+02 -0.10886429267E+03 -0.28970086442E+03  0.31010129249E+03  0.47000000000E+01 0. -1.
        -11    1    4    4    0    0 -0.22271526441E+02 -0.52596037419E+01  0.19193336670E+01  0.22964497888E+02  0.00000000000E+00 0.  1.
         12    1    4    4    0    0  0.13228535414E+02  0.19145838705E+02 -0.10996992630E+03  0.11240525779E+03  0.00000000000E+00 0. -1.
         -5    1    5    5    0  502 -0.42061721456E+01  0.91682838013E+02 -0.29850707622E+02  0.96626028666E+02  0.47000000000E+01 0.  1.
         11    1    6    6    0    0 -0.91897656069E+01  0.27178951239E+02 -0.93037140133E+02  0.97360446931E+02  0.00000000000E+00 0. -1.
        -12    1    6    6    0    0  0.41483522237E+02 -0.23883731540E+02 -0.45462890147E+02  0.66016586021E+02  0.00000000000E+00 0.  1.
</event>
<event>
12    1  0.1039610E+000  0.2349078E+03  0.7818608E-02  0.1123252E+00
         21   -1    0    0  501  502  0.00000000000E+00  0.00000000000E+00  0.12764944531E+03  0.12764944531E+03  0.00000000000E+00 0. -1.
         21   -1    0    0  502  503 -0.00000000000E+00 -0.00000000000E+00 -0.54392209416E+03  0.54392209416E+03  0.00000000000E+00 0. -1.
         -6    2    1    2    0  503  0.94397121222E+01 -0.15955476679E+03 -0.55914195088E+02  0.24147063069E+03  0.17214771709E+03 0.  0.
        -24    2    3    3    0    0  0.28601551313E+02 -0.11029915496E+03 -0.10095836380E+03  0.17186920460E+03  0.79765154954E+02 0.  0.
          6    2    1    2  501    0 -0.94397121222E+01  0.15955476679E+03 -0.36035845376E+03  0.43010090878E+03  0.17199344396E+03 0.  0.
         24    2    5    5    0    0  0.11380844652E+02  0.17702731637E+03 -0.35088442839E+03  0.40093530010E+03  0.78492282492E+02 0.  0.
          5    1    5    5  501    0 -0.20820556774E+02 -0.17472549577E+02 -0.94740253659E+01  0.29165608681E+02  0.47000000000E+01 0. -1.
        -13    1    6    6    0    0  0.58272894627E+01  0.13495755976E+03 -0.18111476155E+03  0.22594259689E+03  0.00000000000E+00 0.  1.
         14    1    6    6    0    0  0.55535551890E+01  0.42069756615E+02 -0.16976966684E+03  0.17499270321E+03  0.00000000000E+00 0. -1.
         -5    1    3    3    0  503 -0.19161839191E+02 -0.49255611839E+02  0.45044168716E+02  0.69601426092E+02  0.47000000000E+01 0.  1.
         11    1    4    4    0    0 -0.23609008781E+02 -0.46423940892E+02 -0.18616560085E+02  0.55309528049E+02  0.00000000000E+00 0. -1.
        -12    1    4    4    0    0  0.52210560094E+02 -0.63875214063E+02 -0.82341803719E+02  0.11655967655E+03  0.00000000000E+00 0.  1.
</event>
<event>
12    1  0.1039610E+000  0.2217757E+03  0.7818608E-02  0.1132592E+00
         21   -1    0    0  501  502  0.00000000000E+00  0.00000000000E+00  0.24058118431E+03  0.24058118431E+03  0.00000000000E+00 0. -1.
         21   -1    0    0  502  503 -0.00000000000E+00 -0.00000000000E+00 -0.20816477437E+03  0.20816477437E+03  0.00000000000E+00 0. -1.
         -6    2    1    2    0  503  0.98654349598E+02  0.98849590239E+02  0.46744293453E+02  0.22664841116E+03  0.17228044325E+03 0.  0.
        -24    2    3    3    0    0 -0.19776948394E+00  0.26317441588E+02  0.56520224591E+02  0.10356180399E+03  0.82691381739E+02 0.  0.
          6    2    1    2  501    0 -0.98654349598E+02 -0.98849590239E+02 -0.14327883516E+02  0.22209754752E+03  0.17209912894E+03 0.  0.
         24    2    5    5    0    0 -0.25876444082E+02  0.44651283545E+01  0.28270008239E+02  0.88653832824E+02  0.79817172206E+02 0.  0.
          5    1    5    5  501    0 -0.72777905516E+02 -0.10331471859E+03 -0.42597891756E+02  0.13344371469E+03  0.47000000000E+01 0. -1.
        -13    1    6    6    0    0 -0.10998738322E+02 -0.37160528592E+02  0.62027746022E+01  0.39247312553E+02  0.00000000000E+00 0.  1.
         14    1    6    6    0    0 -0.14877705760E+02  0.41625656946E+02  0.22067233637E+02  0.49406520271E+02  0.00000000000E+00 0. -1.
         -5    1    3    3    0  503  0.98852119082E+02  0.72532148651E+02 -0.97759311381E+01  0.12308660717E+03  0.47000000000E+01 0.  1.
         13    1    4    4    0    0  0.24119089653E+02 -0.21455237720E+02  0.14207986077E+02  0.35269314987E+02  0.00000000000E+00 0. -1.
        -14    1    4    4    0    0 -0.24316859137E+02  0.47772679308E+02  0.42312238515E+02  0.68292489006E+02  0.00000000000E+00 0.  1.
</event>
<event>
12    1  0.1039610E+000  0.2142080E+03  0.7818608E-02  0.1138411E+00
         21   -1    0    0  501  502  0.00000000000E+00  0.00000000000E+00  0.61900326825E+02  0.61900326825E+02  0.00000000000E+00 0. -1.
         21   -1    0    0  502  503 -0.00000000000E+00 -0.00000000000E+00 -0.13565603776E+04  0.13565603776E+04  0.00000000000E+00 0. -1.
         -6    2    1    2    0  503 -0.12968323782E+02 -0.12766665873E+03 -0.16932428845E+03  0.27304907332E+03  0.17151713793E+03 0.  0.
        -24    2    3    3    0    0  0.34992492231E+02 -0.11310850483E+02 -0.54837294022E+02  0.10284838037E+03  0.78855885499E+02 0.  0.
          6    2    1    2  501    0  0.12968323782E+02  0.12766665873E+03 -0.11253357623E+04  0.11454116311E+04  0.17064663356E+03 0.  0.
         24    2    5    5    0    0  0.13404183316E+02  0.80859534778E+02 -0.34195054503E+03  0.36061510621E+03  0.79969638513E+02 0.  0.
          5    1    5    5  501    0 -0.43585953453E+00  0.46807123952E+02 -0.78338521729E+03  0.78479652490E+03  0.47000000000E+01 0. -1.
        -11    1    6    6    0    0  0.13762949007E+02  0.76332193378E+01 -0.20247094093E+03  0.20308167501E+03  0.00000000000E+00 0.  1.
         12    1    6    6    0    0 -0.35876569067E+00  0.73226315440E+02 -0.13947960410E+03  0.15753343120E+03  0.00000000000E+00 0. -1.
         -5    1    3    3    0  503 -0.47960816012E+02 -0.11635580825E+03 -0.11448699443E+03  0.17020069295E+03  0.47000000000E+01 0.  1.
         13    1    4    4    0    0  0.77507460587E-02  0.21228368790E+02 -0.50612331428E+02  0.54883984860E+02  0.00000000000E+00 0. -1.
        -14    1    4    4    0    0  0.34984741485E+02 -0.32539219272E+02 -0.42249625933E+01  0.47964395509E+02  0.00000000000E+00 0.  1.
</event>
<event>
12    1  0.1039610E+000  0.2358210E+03  0.7818608E-02  0.1123338E+00
         21   -1    0    0  501  502  0.00000000000E+00  0.00000000000E+00  0.89485915366E+03  0.89485915366E+03  0.00000000000E+00 0.  1.
         21   -1    0    0  502  503 -0.00000000000E+00 -0.00000000000E+00 -0.63620724764E+02  0.63620724764E+02  0.00000000000E+00 0.  1.
         -6    2    1    2    0  503 -0.14423263494E+03 -0.72354346906E+02  0.32257899163E+03  0.39958573028E+03  0.17196902483E+03 0.  0.
        -24    2    3    3    0    0 -0.11047862300E+03 -0.88016440268E+02  0.14254765348E+03  0.21568900054E+03  0.79053725690E+02 0.  0.
          6    2    1    2  501    0  0.14423263494E+03  0.72354346906E+02  0.50865943727E+03  0.55889414815E+03  0.16610250213E+03 0.  0.
         24    2    5    5    0    0  0.15296636053E+03  0.39442780185E+02  0.48734812774E+03  0.51845022276E+03  0.79548698974E+02 0.  0.
          5    1    5    5  501    0 -0.87337255910E+01  0.32911566721E+02  0.21311309526E+02  0.40443925384E+02  0.47000000000E+01 0. -1.
        -13    1    6    6    0    0  0.54141904611E+02  0.52289971439E+02  0.17250058639E+03  0.18820743676E+03  0.00000000000E+00 0.  1.
         14    1    6    6    0    0  0.98824455919E+02 -0.12847191254E+02  0.31484754135E+03  0.33024278600E+03  0.00000000000E+00 0. -1.
         -5    1    3    3    0  503 -0.33754011943E+02  0.15662093363E+02  0.18003133815E+03  0.18389672974E+03  0.47000000000E+01 0.  1.
         11    1    4    4    0    0 -0.93106748418E+02 -0.68599281901E+02  0.14922491561E+03  0.18879301766E+03  0.00000000000E+00 0. -1.
        -12    1    4    4    0    0 -0.17371874579E+02 -0.19417158368E+02 -0.66772621341E+01  0.26895982880E+02  0.00000000000E+00 0.  1.
</event>
<event>
12    1  0.1039610E+000  0.2130834E+03  0.7818608E-02  0.1139382E+00
         21   -1    0    0  503  502  0.00000000000E+00  0.00000000000E+00  0.91143162541E+03  0.91143162541E+03  0.00000000000E+00 0. -1.
         21   -1    0    0  501  503 -0.00000000000E+00 -0.00000000000E+00 -0.79816917655E+02  0.79816917655E+02  0.00000000000E+00 0. -1.
          6    2    1    2  501    0 -0.50583889102E+02 -0.11607162152E+03  0.72035023172E+03  0.75086485919E+03  0.16988887328E+03 0.  0.
         24    2    3    3    0    0 -0.39807988286E+02 -0.20068553190E+02  0.18290177332E+03  0.20478277323E+03  0.80594682018E+02 0.  0.
         -6    2    1    2    0  502  0.50583889102E+02  0.11607162152E+03  0.11126447603E+03  0.24038368387E+03  0.17138605744E+03 0.  0.
        -24    2    5    5    0    0  0.91478664586E+02  0.90809611593E+02  0.48039720847E+02  0.16082231463E+03  0.83314287323E+02 0.  0.
          5    1    3    3  501    0 -0.10775900815E+02 -0.96003068332E+02  0.53744845840E+03  0.54608208596E+03  0.47000000000E+01 0. -1.
        -13    1    4    4    0    0 -0.44823899754E+02 -0.18458839583E+02  0.18991914735E+03  0.19600814595E+03  0.00000000000E+00 0.  1.
         14    1    4    4    0    0  0.50159114680E+01 -0.16097136072E+01 -0.70173740267E+01  0.87746272846E+01  0.00000000000E+00 0. -1.
         -5    1    5    5    0  502 -0.40894775485E+02  0.25262009929E+02  0.63224755181E+02  0.79561369240E+02  0.47000000000E+01 0.  1.
         13    1    6    6    0    0  0.79941910569E+02  0.63171449797E+02  0.70057640073E+02  0.12365037027E+03  0.00000000000E+00 0. -1.
        -14    1    6    6    0    0  0.11536754017E+02  0.27638161797E+02 -0.22017919225E+02  0.37171944363E+02  0.00000000000E+00 0.  1.
</event>
<event>
12    1  0.1039610E+000  0.2187305E+03  0.7818608E-02  0.1134938E+00
         21   -1    0    0  503  502  0.00000000000E+00  0.00000000000E+00  0.50678284690E+03  0.50678284690E+03  0.00000000000E+00 0. -1.
         21   -1    0    0  501  503 -0.00000000000E+00 -0.00000000000E+00 -0.18340025461E+03  0.18340025461E+03  0.00000000000E+00 0.  1.
          6    2    1    2  501    0 -0.26145966648E+00  0.13427652928E+03  0.40251072153E+03  0.45810250386E+03  0.17266374379E+03 0.  0.
         24    2    3    3    0    0 -0.48013606120E+02  0.49754658740E+02  0.24917801821E+03  0.27656126337E+03  0.98059243316E+02 0.  0.
         -6    2    1    2    0  502  0.26145966648E+00 -0.13427652928E+03 -0.79128129247E+02  0.23208059765E+03  0.17195897270E+03 0.  0.
        -24    2    5    5    0    0  0.52484034414E+02 -0.28960895399E+02 -0.26927772350E+02  0.10337338219E+03  0.79797518071E+02 0.  0.
          5    1    3    3  501    0  0.47752146454E+02  0.84521870540E+02  0.15333270332E+03  0.18154124049E+03  0.47000000000E+01 0. -1.
        -11    1    4    4    0    0  0.56588396680E+01  0.41166359333E+02  0.31347412728E+02  0.52051435060E+02  0.00000000000E+00 0.  1.
         12    1    4    4    0    0 -0.53672445788E+02  0.85882994068E+01  0.21783060548E+03  0.22450982831E+03  0.00000000000E+00 0. -1.
         -5    1    5    5    0  502 -0.52222574747E+02 -0.10531563388E+03 -0.52200356897E+02  0.12870721547E+03  0.47000000000E+01 0.  1.
         11    1    6    6    0    0  0.27417471681E+02 -0.25591323002E+02  0.25370634399E+02  0.45280267846E+02  0.00000000000E+00 0. -1.
        -12    1    6    6    0    0  0.25066562733E+02 -0.33695723972E+01 -0.52298406749E+02  0.58093114341E+02  0.00000000000E+00 0.  1.
</event>
<event>
12    1  0.1039610E+000  0.3164122E+03  0.7818608E-02  0.1077325E+00
         21   -1    0    0  503  502  0.00000000000E+00  0.00000000000E+00  0.10934498953E+03  0.10934498953E+03  0.00000000000E+00 0. -1.
         21   -1    0    0  501  503 -0.00000000000E+00 -0.00000000000E+00 -0.99492278711E+03  0.99492278711E+03  0.00000000000E+00 0. -1.
          6    2    1    2  501    0  0.17130916631E+03  0.20297224809E+03 -0.28665227130E+03  0.42694989763E+03  0.17196548051E+03 0.  0.
         24    2    3    3    0    0  0.56913985142E+02  0.15681882168E+03 -0.12058115087E+03  0.22002454083E+03  0.77715121352E+02 0.  0.
         -6    2    1    2    0  502 -0.17130916631E+03 -0.20297224809E+03 -0.59892552628E+03  0.67731787901E+03  0.17176483703E+03 0.  0.
        -24    2    5    5    0    0 -0.15383625066E+03 -0.16931405609E+03 -0.58823447584E+03  0.63763708731E+03  0.90710610950E+02 0.  0.
          5    1    3    3  501    0  0.11439518117E+03  0.46153426417E+02 -0.16607112043E+03  0.20692535680E+03  0.47000000000E+01 0. -1.
        -11    1    4    4    0    0  0.35276275375E+02  0.32702313840E+02 -0.68484506832E+02  0.83689811870E+02  0.00000000000E+00 0.  1.
         12    1    4    4    0    0  0.21637709768E+02  0.12411650784E+03 -0.52096644042E+02  0.13633472896E+03  0.00000000000E+00 0. -1.
         -5    1    5    5    0  502 -0.17472915652E+02 -0.33658192007E+02 -0.10691050439E+02  0.39680791701E+02  0.47000000000E+01 0.  1.
         11    1    6    6    0    0 -0.86283868114E+02 -0.31072120359E+02 -0.24002663544E+03  0.25694973882E+03  0.00000000000E+00 0. -1.
        -12    1    6    6    0    0 -0.67552382547E+02 -0.13824193573E+03 -0.34820784040E+03  0.38068734849E+03  0.00000000000E+00 0.  1.
</event>
<event>
12    1  0.1039610E+000  0.3819224E+03  0.7818608E-02  0.1050331E+00
         21   -1    0    0  501  502  0.00000000000E+00  0.00000000000E+00  0.18638627757E+03  0.18638627757E+03  0.00000000000E+00 0.  1.
         21   -1    0    0  502  503 -0.00000000000E+00 -0.00000000000E+00 -0.96205620888E+03  0.96205620888E+03  0.00000000000E+00 0. -1.
         -6    2    1    2    0  503 -0.33507840591E+03  0.65712098147E+02 -0.13774001021E+03  0.40492429267E+03  0.16851039858E+03 0.  0.
        -24    2    3    3    0    0 -0.21614141655E+03  0.77348382991E+02 -0.14755807966E+03  0.28492472996E+03  0.81907451238E+02 0.  0.
          6    2    1    2  501    0  0.33507840591E+03 -0.65712098147E+02 -0.63792992110E+03  0.74351819378E+03  0.17108215075E+03 0.  0.
         24    2    5    5    0    0  0.85970705224E+02  0.76401857401E+01 -0.25554948898E+03  0.28127141017E+03  0.79741647008E+02 0.  0.
          5    1    5    5  501    0  0.24910770069E+03 -0.73352283887E+02 -0.38238043212E+03  0.46224678361E+03  0.47000000000E+01 0. -1.
        -13    1    6    6    0    0  0.46079275114E+02 -0.16591504761E+02 -0.48133897505E+02  0.68669132179E+02  0.00000000000E+00 0.  1.
         14    1    6    6    0    0  0.39891430110E+02  0.24231690501E+02 -0.20741559147E+03  0.21260227799E+03  0.00000000000E+00 0. -1.
         -5    1    3    3    0  503 -0.11893698936E+03 -0.11636284844E+02  0.98180694515E+01  0.11999956271E+03  0.47000000000E+01 0.  1.
         11    1    4    4    0    0 -0.61301867581E+02  0.59230361367E+02 -0.72487368021E+02  0.11189536719E+03  0.00000000000E+00 0. -1.
        -12    1    4    4    0    0 -0.15483954897E+03  0.18118021624E+02 -0.75070711643E+02  0.17302936277E+03  0.00000000000E+00 0.  1.
</event>
<event>
12    1  0.1039610E+000  0.2008642E+03  0.7818608E-02  0.1149067E+00
         21   -1    0    0  501  502  0.00000000000E+00  0.00000000000E+00  0.39412587440E+02  0.39412587440E+02  0.00000000000E+00 0.  1.
         21   -1    0    0  502  503 -0.00000000000E+00 -0.00000000000E+00 -0.10899504787E+04  0.10899504787E+04  0.00000000000E+00 0.  1.
         -6    2    1    2    0  503  0.30055334984E+02  0.99372605692E+02 -0.38497589377E+03  0.43422676713E+03  0.17195408858E+03 0.  0.
        -24    2    3    3    0    0  0.33739128761E+02  0.12479970521E+03 -0.37870367403E+03  0.40736529905E+03  0.76267417169E+02 0.  0.
          6    2    1    2  501    0 -0.30055334984E+02 -0.99372605692E+02 -0.66556199745E+03  0.69513629897E+03  0.17164924638E+03 0.  0.
         24    2    5    5    0    0 -0.60895308160E+02 -0.81702832683E+02 -0.63475174967E+03  0.64786383139E+03  0.80213271256E+02 0.  0.
          5    1    5    5  501    0  0.30839973176E+02 -0.17669773010E+02 -0.30810247779E+02  0.47272467589E+02  0.47000000000E+01 0. -1.
        -13    1    6    6    0    0  0.42147987842E+01  0.13026400906E+02 -0.97199341938E+02  0.98158869811E+02  0.00000000000E+00 0.  1.
         14    1    6    6    0    0 -0.65110106944E+02 -0.94729233589E+02 -0.53755240773E+03  0.54970496157E+03  0.00000000000E+00 0. -1.
         -5    1    3    3    0  503 -0.36837937770E+01 -0.25427099518E+02 -0.62722197457E+01  0.26861468073E+02  0.47000000000E+01 0.  1.
         13    1    4    4    0    0 -0.14158919531E+02  0.52951773075E+02 -0.84245326633E+02  0.10050691684E+03  0.00000000000E+00 0. -1.
        -14    1    4    4    0    0  0.47898048292E+02  0.71847932135E+02 -0.29445834739E+03  0.30685838221E+03  0.00000000000E+00 0.  1.
</event>
<event>
12    1  0.1039610E+000  0.1976777E+03  0.7818608E-02  0.1151995E+00
         21   -1    0    0  501  502  0.00000000000E+00  0.00000000000E+00  0.12259582929E+03  0.12259582929E+03  0.00000000000E+00 0. -1.
         21   -1    0    0  502  503 -0.00000000000E+00 -0.00000000000E+00 -0.33382712165E+03  0.33382712165E+03  0.00000000000E+00 0. -1.
         -6    2    1    2    0  503  0.42627490879E+02 -0.87512814472E+02 -0.15707415213E+03  0.25146086756E+03  0.17054232018E+03 0.  0.
        -24    2    3    3    0    0 -0.39042620065E+02 -0.57725328955E+02 -0.69940737230E+02  0.12828772395E+03  0.81911498629E+02 0.  0.
          6    2    1    2  501    0 -0.42627490879E+02  0.87512814472E+02 -0.54157140236E+02  0.20496208338E+03  0.17204901659E+03 0.  0.
         24    2    5    5    0    0 -0.85311582643E+02  0.95634633508E+02 -0.50677700384E+02  0.16112041216E+03  0.83471603782E+02 0.  0.
          5    1    5    5  501    0  0.42684091765E+02 -0.81218190361E+01 -0.34794398518E+01  0.43841671226E+02  0.47000000000E+01 0. -1.
        -13    1    6    6    0    0 -0.34980303404E+02  0.76548115265E+02  0.41778424446E+01  0.84265591699E+02  0.00000000000E+00 0.  1.
         14    1    6    6    0    0 -0.50331279239E+02  0.19086518243E+02 -0.54855542829E+02  0.76854820457E+02  0.00000000000E+00 0. -1.
         -5    1    3    3    0  503  0.81670110943E+02 -0.29787485517E+02 -0.87133414897E+02  0.12317314361E+03  0.47000000000E+01 0.  1.
         11    1    4    4    0    0  0.92438105599E+01 -0.58433283690E+02 -0.41168153116E+02  0.72074360958E+02  0.00000000000E+00 0. -1.
        -12    1    4    4    0    0 -0.48286430625E+02  0.70795473477E+00 -0.28772584113E+02  0.56213362992E+02  0.00000000000E+00 0.  1.
</event>
<event>
12    1  0.1039610E+000  0.2767740E+03  0.7818608E-02  0.1097692E+00
         21   -1    0    0  501  502  0.00000000000E+00  0.00000000000E+00  0.73199838344E+02  0.73199838344E+02  0.00000000000E+00 0. -1.
         21   -1    0    0  502  503 -0.00000000000E+00 -0.00000000000E+00 -0.11663987668E+04  0.11663987668E+04  0.00000000000E+00 0. -1.
         -6    2    1    2    0  503 -0.20168276452E+03 -0.75167436332E+02 -0.75182642509E+03  0.80115342058E+03  0.17400502538E+03 0.  0.
        -24    2    3    3    0    0 -0.11835831763E+03 -0.16504294785E+01 -0.25173485872E+03  0.28884357439E+03  0.77773749457E+02 0.  0.
          6    2    1    2  501    0  0.20168276452E+03  0.75167436332E+02 -0.34137250332E+03  0.43844518452E+03  0.17138527596E+03 0.  0.
         24    2    5    5    0    0  0.13019399256E+03  0.89067775667E+02 -0.31399952833E+03  0.36050139894E+03  0.80510933962E+02 0.  0.
          5    1    5    5  501    0  0.71488771960E+02 -0.13900339334E+02 -0.27372974991E+02  0.77943785575E+02  0.47000000000E+01 0. -1.
        -13    1    6    6    0    0  0.13013138864E+03  0.64876810515E+02 -0.22205100660E+03  0.26542386552E+03  0.00000000000E+00 0.  1.
         14    1    6    6    0    0  0.62603912626E-01  0.24190965151E+02 -0.91948521725E+02  0.95077533422E+02  0.00000000000E+00 0. -1.
         -5    1    3    3    0  503 -0.83324446888E+02 -0.73517006854E+02 -0.50009156637E+03  0.51230984619E+03  0.47000000000E+01 0.  1.
         13    1    4    4    0    0 -0.87205160701E+02  0.12176857137E+02 -0.23483546909E+03  0.25080014642E+03  0.00000000000E+00 0. -1.
        -14    1    4    4    0    0 -0.31153156928E+02 -0.13827286616E+02 -0.16899389623E+02  0.38043427966E+02  0.00000000000E+00 0.  1.
</event>
<event>
12    1  0.1039610E+000  0.1975499E+03  0.7818608E-02  0.1152773E+00
         21   -1    0    0  503  502  0.00000000000E+00  0.00000000000E+00  0.27714959825E+04  0.27714959825E+04  0.00000000000E+00 0. -1.
         21   -1    0    0  501  503 -0.00000000000E+00 -0.00000000000E+00 -0.17759843928E+02  0.17759843928E+02  0.00000000000E+00 0.  1.
          6    2    1    2  501    0  0.96967184201E+02 -0.12539557297E+02  0.20497765222E+04  0.20592740843E+04  0.17165689118E+03 0.  0.
         24    2    3    3    0    0 -0.11260801557E+02 -0.16727122225E+02  0.66508168244E+03  0.67034186073E+03  0.81350867633E+02 0.  0.
         -6    2    1    2    0  502 -0.96967184201E+02  0.12539557297E+02  0.70395961636E+03  0.72998174205E+03  0.16659629931E+03 0.  0.
        -24    2    5    5    0    0 -0.10848615698E+03 -0.38763030975E+02  0.52546910284E+03  0.54384846798E+03  0.79884662227E+02 0.  0.
          5    1    3    3  501    0  0.10822798576E+03  0.41875649275E+01  0.13846948397E+04  0.13889322236E+04  0.47000000000E+01 0. -1.
        -11    1    4    4    0    0  0.12743896128E+02  0.17326561396E+01  0.15882428441E+02  0.20436744335E+02  0.00000000000E+00 0.  1.
         12    1    4    4    0    0 -0.24004697685E+02 -0.18459778364E+02  0.64919925400E+03  0.64990511640E+03  0.00000000000E+00 0. -1.
         -5    1    5    5    0  502  0.11518972779E+02  0.51302588272E+02  0.17849051352E+03  0.18613327407E+03  0.47000000000E+01 0.  1.
         13    1    6    6    0    0 -0.10218075044E+03 -0.71412693158E+01  0.45447693121E+03  0.46587679111E+03  0.00000000000E+00 0. -1.
        -14    1    6    6    0    0 -0.63054065361E+01 -0.31621761659E+02  0.70992171628E+02  0.77971676873E+02  0.00000000000E+00 0.  1.
</event>
<event>
12    1  0.1039610E+000  0.1784293E+03  0.7818608E-02  0.1171177E+00
         21   -1    0    0  501  502  0.00000000000E+00  0.00000000000E+00  0.12178640570E+04  0.12178640570E+04  0.00000000000E+00 0.  1.
         21   -1    0    0  502  503 -0.00000000000E+00 -0.00000000000E+00 -0.28594626083E+02  0.28594626083E+02  0.00000000000E+00 0.  1.
         -6    2    1    2    0  503  0.14972218361E+01 -0.41782917944E+02  0.36496951318E+03  0.40306827994E+03  0.16587115131E+03 0.  0.
        -24    2    3    3    0    0 -0.20723919968E+02 -0.71922334958E+02  0.15850202819E+03  0.19318003358E+03  0.81199318400E+02 0.  0.
          6    2    1    2  501    0 -0.14972218361E+01  0.41782917944E+02  0.82429991772E+03  0.84339040313E+03  0.17346170710E+03 0.  0.
         24    2    5    5    0    0 -0.74963256099E+01 -0.42392069396E+02  0.55155904157E+03  0.55785390237E+03  0.71626235493E+02 0.  0.
          5    1    5    5  501    0  0.59991037738E+01  0.84174987340E+02  0.27274087616E+03  0.28553650076E+03  0.47000000000E+01 0. -1.
        -13    1    6    6    0    0  0.27515603580E+02 -0.39409608685E+02  0.29254390097E+03  0.29646611896E+03  0.00000000000E+00 0.  1.
         14    1    6    6    0    0 -0.35011929190E+02 -0.29824607116E+01  0.25901514060E+03  0.26138778341E+03  0.00000000000E+00 0. -1.
         -5    1    3    3    0  503  0.22221141804E+02  0.30139417014E+02  0.20646748500E+03  0.20988824636E+03  0.47000000000E+01 0.  1.
         11    1    4    4    0    0 -0.11413094196E+02 -0.89665072337E+02  0.12884031417E+03  0.15738459414E+03  0.00000000000E+00 0. -1.
        -12    1    4    4    0    0 -0.93108257715E+01  0.17742737379E+02  0.29661714017E+02  0.35795439440E+02  0.00000000000E+00 0.  1.
</event>
<event>
12    1  0.1039610E+000  0.1850250E+03  0.7818608E-02  0.1165695E+00
         21   -1    0    0  503  502  0.00000000000E+00  0.00000000000E+00  0.41685462522E+03  0.41685462522E+03  0.00000000000E+00 0. -1.
         21   -1    0    0  501  503 -0.00000000000E+00 -0.00000000000E+00 -0.99438911675E+02  0.99438911675E+02  0.00000000000E+00 0. -1.
          6    2    1    2  501    0 -0.29546199680E+02  0.39213001654E+02  0.27669721165E+03  0.32684107458E+03  0.16689249139E+03 0.  0.
         24    2    3    3    0    0 -0.52322959848E+02 -0.16338335758E+02  0.23459922245E+03  0.25336276086E+03  0.78429969239E+02 0.  0.
         -6    2    1    2    0  502  0.29546199680E+02 -0.39213001654E+02  0.40718501895E+02  0.18945246231E+03  0.17839170851E+03 0.  0.
        -24    2    5    5    0    0 -0.76424358866E+00 -0.13742879969E+02  0.92957090061E+02  0.12373785082E+03  0.80502076469E+02 0.  0.
          5    1    3    3  501    0  0.22776760168E+02  0.55551337412E+02  0.42097989197E+02  0.73478313715E+02  0.47000000000E+01 0. -1.
        -11    1    4    4    0    0  0.70207618539E+01 -0.32830816713E+02  0.95754374438E+02  0.10146947249E+03  0.00000000000E+00 0.  1.
         12    1    4    4    0    0 -0.59343721702E+02  0.16492480955E+02  0.13884484801E+03  0.15189328837E+03  0.00000000000E+00 0. -1.
         -5    1    5    5    0  502  0.30310443269E+02 -0.25470121685E+02 -0.52238588166E+02  0.65714611491E+02  0.47000000000E+01 0.  1.
         13    1    6    6    0    0  0.15392497707E+02 -0.43357217600E+02  0.66506734068E+02  0.80869790280E+02  0.00000000000E+00 0. -1.
        -14    1    6    6    0    0 -0.16156741295E+02  0.29614337631E+02  0.26450355993E+02  0.42868060543E+02  0.00000000000E+00 0.  1.
</event>
<event>
12    1  0.1039610E+000  0.1900883E+03  0.7818608E-02  0.1158541E+00
         21   -1    0    0  501  502  0.00000000000E+00  0.00000000000E+00  0.18690732697E+03  0.18690732697E+03  0.00000000000E+00 0. -1.
         21   -1    0    0  502  503 -0.00000000000E+00 -0.00000000000E+00 -0.27273447779E+03  0.27273447779E+03  0.00000000000E+00 0. -1.
         -6    2    1    2    0  503 -0.69889269615E+02 -0.26192324791E+02  0.81712384563E+02  0.20625858543E+03  0.17405499816E+03 0.  0.
        -24    2    3    3    0    0 -0.80691060245E+02  0.38418481407E+02  0.61938466689E+02  0.13767044661E+03  0.84437854643E+02 0.  0.
          6    2    1    2  501    0  0.69889269615E+02  0.26192324791E+02 -0.16753953538E+03  0.25338321933E+03  0.17482280183E+03 0.  0.
         24    2    5    5    0    0  0.10187225897E+03  0.47914689709E+02 -0.84196402735E+02  0.16138897764E+03  0.79269119041E+02 0.  0.
          5    1    5    5  501    0 -0.31982989356E+02 -0.21722364918E+02 -0.83343132641E+02  0.91994241690E+02  0.47000000000E+01 0. -1.
        -11    1    6    6    0    0 -0.10544750242E+02  0.16436038733E+02 -0.45037166583E+01  0.20040423913E+02  0.00000000000E+00 0.  1.
         12    1    6    6    0    0  0.11241700921E+03  0.31478650976E+02 -0.79692686077E+02  0.14134855373E+03  0.00000000000E+00 0. -1.
         -5    1    3    3    0  503  0.10801790630E+02 -0.64610806198E+02  0.19773917874E+02  0.68588138818E+02  0.47000000000E+01 0.  1.
         11    1    4    4    0    0 -0.65758433064E+02 -0.52278144048E+01  0.76162305668E+01  0.66404130373E+02  0.00000000000E+00 0. -1.
        -12    1    4    4    0    0 -0.14932627181E+02  0.43646295812E+02  0.54322236122E+02  0.71266316236E+02  0.00000000000E+00 0.  1.
</event>
<event>
12    1  0.1039610E+000  0.3592954E+03  0.7818608E-02  0.1059545E+00
         21   -1    0    0  501  502  0.00000000000E+00  0.00000000000E+00  0.42040296414E+03  0.42040296414E+03  0.00000000000E+00 0. -1.
         21   -1    0    0  502  503 -0.00000000000E+00 -0.00000000000E+00 -0.69722808450E+03  0.69722808450E+03  0.00000000000E+00 0. -1.
         -6    2    1    2    0  503 -0.25167473189E+03  0.17923925353E+03  0.28211968096E+03  0.45682020539E+03  0.18337476650E+03 0.  0.
        -24    2    3    3    0    0 -0.95775314220E+02  0.10726148271E+03  0.57270330086E+02  0.17386305579E+03  0.79186709567E+02 0.  0.
          6    2    1    2  501    0  0.25167473189E+03 -0.17923925353E+03 -0.55894480132E+03  0.66081084326E+03  0.16966083510E+03 0.  0.
         24    2    5    5    0    0  0.19219210411E+03 -0.90113701497E+02 -0.46769509455E+03  0.51999129200E+03  0.81203190850E+02 0.  0.
          5    1    5    5  501    0  0.59482627771E+02 -0.89125552033E+02 -0.91249706773E+02  0.14081955126E+03  0.47000000000E+01 0. -1.
        -11    1    6    6    0    0  0.19144681599E+02 -0.43843088327E+02 -0.87972648081E+02  0.10013951287E+03  0.00000000000E+00 0.  1.
         12    1    6    6    0    0  0.17304742252E+03 -0.46270613170E+02 -0.37972244647E+03  0.41985177912E+03  0.00000000000E+00 0. -1.
         -5    1    3    3    0  503 -0.15589941767E+03  0.71977770816E+02  0.22484935087E+03  0.28295714960E+03  0.47000000000E+01 0.  1.
         13    1    4    4    0    0  0.74162560255E+01  0.19349608906E+02  0.28574365657E+02  0.35297345381E+02  0.00000000000E+00 0. -1.
        -14    1    4    4    0    0 -0.10319157025E+03  0.87911873808E+02  0.28695964428E+02  0.13856571041E+03  0.00000000000E+00 0.  1.
</event>
<event>
12    1  0.1039610E+000  0.4359100E+03  0.7818608E-02  0.1032099E+00
         21   -1    0    0  503  502  0.00000000000E+00  0.00000000000E+00  0.19930400390E+04  0.19930400390E+04  0.00000000000E+00 0. -1.
         21   -1    0    0  501  503 -0.00000000000E+00 -0.00000000000E+00 -0.95733688734E+02  0.95733688734E+02  0.00000000000E+00 0.  1.
          6    2    1    2  501    0 -0.12451486760E+03  0.38057086606E+03  0.10357116888E+04  0.11237064664E+04  0.17227705583E+03 0.  0.
         24    2    3    3    0    0 -0.34757688162E+02  0.30184554599E+03  0.79380767145E+03  0.85390344401E+03  0.81863556697E+02 0.  0.
         -6    2    1    2    0  502  0.12451486760E+03 -0.38057086606E+03  0.86159466150E+03  0.96506726136E+03  0.16932608153E+03 0.  0.
        -24    2    5    5    0    0  0.15042156595E+03 -0.33670108926E+03  0.69675852862E+03  0.79247306958E+03  0.80912593521E+02 0.  0.
          5    1    3    3  501    0 -0.89757179440E+02  0.78725320068E+02  0.24190401730E+03  0.26980302235E+03  0.47000000000E+01 0. -1.
        -11    1    4    4    0    0 -0.38063987164E+02  0.25220057727E+03  0.56736027315E+03  0.62205440103E+03  0.00000000000E+00 0.  1.
         12    1    4    4    0    0  0.33062990018E+01  0.49644968723E+02  0.22644739830E+03  0.23184904298E+03  0.00000000000E+00 0. -1.
         -5    1    5    5    0  502 -0.25906698346E+02 -0.43869776794E+02  0.16483613288E+03  0.17259419178E+03  0.47000000000E+01 0.  1.
         11    1    6    6    0    0  0.95501832348E+02 -0.13358409724E+03  0.35492982327E+03  0.39107606737E+03  0.00000000000E+00 0. -1.
        -12    1    6    6    0    0  0.54919733600E+02 -0.20311699202E+03  0.34182870534E+03  0.40139700221E+03  0.00000000000E+00 0.  1.
</event>
<event>
12    1  0.1039610E+000  0.1756630E+03  0.7818608E-02  0.1173419E+00
         21   -1    0    0  503  502  0.00000000000E+00  0.00000000000E+00  0.16543740924E+03  0.16543740924E+03  0.00000000000E+00 0.  1.
         21   -1    0    0  501  503 -0.00000000000E+00 -0.00000000000E+00 -0.42414712109E+03  0.42414712109E+03  0.00000000000E+00 0.  1.
          6    2    1    2  501    0 -0.13569745854E+02  0.33943584215E+02  0.93024351105E+02  0.19877380938E+03  0.17181732301E+03 0.  0.
         24    2    3    3    0    0 -0.70961829745E+02 -0.38171592854E+00  0.45882778567E+02  0.11681958201E+03  0.80658901453E+02 0.  0.
         -6    2    1    2    0  502  0.13569745854E+02 -0.33943584215E+02 -0.35173406295E+03  0.39081072094E+03  0.16637266497E+03 0.  0.
        -24    2    5    5    0    0 -0.52869647069E+02 -0.20092901520E+01 -0.17352918919E+03  0.19790385454E+03  0.79084254538E+02 0.  0.
          5    1    3    3  501    0  0.57392083890E+02  0.34325300143E+02  0.47141572538E+02  0.81954227374E+02  0.47000000000E+01 0. -1.
        -13    1    4    4    0    0 -0.42033679296E+02 -0.10211699109E+02 -0.17339245055E+02  0.46602128845E+02  0.00000000000E+00 0.  1.
         14    1    4    4    0    0 -0.28928150449E+02  0.98299831804E+01  0.63222023622E+02  0.70217453163E+02  0.00000000000E+00 0. -1.
         -5    1    5    5    0  502  0.66439392923E+02 -0.31934294063E+02 -0.17820487377E+03  0.19290686640E+03  0.47000000000E+01 0.  1.
         11    1    6    6    0    0  0.90199015775E+01 -0.21383541285E+02 -0.85324306357E+02  0.88424271089E+02  0.00000000000E+00 0. -1.
        -12    1    6    6    0    0 -0.61889548647E+02  0.19374251133E+02 -0.88204882829E+02  0.10947958346E+03  0.00000000000E+00 0.  1.
</event>
<event>
12    1  0.1039610E+000  0.2421487E+03  0.7818608E-02  0.1118723E+00
         21   -1    0    0  503  502  0.00000000000E+00  0.00000000000E+00  0.34474653012E+03  0.34474653012E+03  0.00000000000E+00 0. -1.
         21   -1    0    0  501  503 -0.00000000000E+00 -0.00000000000E+00 -0.46527471046E+03  0.46527471046E+03  0.00000000000E+00 0. -1.
          6    2    1    2  501    0  0.63151118310E+02 -0.15414823985E+03 -0.38377466109E+03  0.45378296163E+03  0.17574482119E+03 0.  0.
         24    2    3    3    0    0  0.90573657134E+01 -0.75589311009E+02 -0.32064287412E+03  0.33930435272E+03  0.80745348101E+02 0.  0.
         -6    2    1    2    0  502 -0.63151118310E+02  0.15414823985E+03  0.26324648075E+03  0.35623827896E+03  0.17279252928E+03 0.  0.
        -24    2    5    5    0    0 -0.12663000823E+02  0.79361254244E+02  0.53780778208E+02  0.12811525565E+03  0.84039195377E+02 0.  0.
          5    1    3    3  501    0  0.54093752596E+02 -0.78558928840E+02 -0.63131786968E+02  0.11447860890E+03  0.47000000000E+01 0. -1.
        -11    1    4    4    0    0  0.35258115870E+02 -0.48491566803E+02 -0.10964712942E+03  0.12496823506E+03  0.00000000000E+00 0.  1.
         12    1    4    4    0    0 -0.26200750157E+02 -0.27097744206E+02 -0.21099574471E+03  0.21433611766E+03  0.00000000000E+00 0. -1.
         -5    1    5    5    0  502 -0.50488117487E+02  0.74786985605E+02  0.20946570254E+03  0.22812302331E+03  0.47000000000E+01 0.  1.
         11    1    6    6    0    0 -0.10979959583E+02  0.38454336685E+02  0.72731135284E+02  0.83000684106E+02  0.00000000000E+00 0. -1.
        -12    1    6    6    0    0 -0.16830412398E+01  0.40906917559E+02 -0.18950357076E+02  0.45114571541E+02  0.00000000000E+00 0.  1.
</event>
<event>
12    1  0.1039610E+000  0.1895716E+03  0.7818608E-02  0.1159378E+00
         21   -1    0    0  501  502  0.00000000000E+00  0.00000000000E+00  0.39949883673E+03  0.39949883673E+03  0.00000000000E+00 0. -1.
         21   -1    0    0  502  503 -0.00000000000E+00 -0.00000000000E+00 -0.17270436219E+03  0.17270436219E+03  0.00000000000E+00 0. -1.
         -6    2    1    2    0  503  0.50820866805E+02  0.59433912562E+02  0.31238563888E+03  0.36420502464E+03  0.17013336571E+03 0.  0.
        -24    2    3    3    0    0  0.14266809984E+02 -0.88769940111E+01  0.25986408246E+03  0.27048638767E+03  0.73151908193E+02 0.  0.
          6    2    1    2  501    0 -0.50820866805E+02 -0.59433912562E+02 -0.85591164340E+02  0.20799817427E+03  0.17269117703E+03 0.  0.
         24    2    5    5    0    0 -0.68088714544E+02 -0.98343145972E+02 -0.50516001764E+02  0.15264057281E+03  0.80248555286E+02 0.  0.
          5    1    5    5  501    0  0.17267847739E+02  0.38909233410E+02 -0.35075162576E+02  0.55357601464E+02  0.47000000000E+01 0. -1.
        -11    1    6    6    0    0 -0.56095906364E+02 -0.67060749933E+02  0.52476814241E+01  0.87586717330E+02  0.00000000000E+00 0.  1.
         12    1    6    6    0    0 -0.11992808180E+02 -0.31282396039E+02 -0.55763683188E+02  0.65053855479E+02  0.00000000000E+00 0. -1.
         -5    1    3    3    0  503  0.36554056820E+02  0.68310906573E+02  0.52521556425E+02  0.93718636973E+02  0.47000000000E+01 0.  1.
         11    1    4    4    0    0  0.25654460932E+02 -0.17492153543E+02  0.42398215249E+02  0.52552216486E+02  0.00000000000E+00 0. -1.
        -12    1    4    4    0    0 -0.11387650948E+02  0.86151595321E+01  0.21746586721E+03  0.21793417118E+03  0.00000000000E+00 0.  1.
</event>
<event>
12    1  0.1039610E+000  0.2317712E+03  0.7818608E-02  0.1125416E+00
         21   -1    0    0  501  502  0.00000000000E+00  0.00000000000E+00  0.32532561287E+03  0.32532561287E+03  0.00000000000E+00 0. -1.
         21   -1    0    0  502  503 -0.00000000000E+00 -0.00000000000E+00 -0.45893660973E+03  0.45893660973E+03  0.00000000000E+00 0. -1.
         -6    2    1    2    0  503 -0.15458035117E+03  0.37003422397E+01 -0.38059443712E+03  0.44556069457E+03  0.17252080884E+03 0.  0.
        -24    2    3    3    0    0 -0.15724213386E+03 -0.49887886763E+01 -0.39217919327E+03  0.43010486532E+03  0.80222807647E+02 0.  0.
          6    2    1    2  501    0  0.15458035117E+03 -0.37003422397E+01  0.24698344026E+03  0.33870152803E+03  0.17265320103E+03 0.  0.
         24    2    5    5    0    0  0.15237722795E+03  0.32460401796E+02  0.13942122984E+03  0.22510499520E+03  0.83435497533E+02 0.  0.
          5    1    5    5  501    0  0.22031232140E+01 -0.36160744036E+02  0.10756221042E+03  0.11359653283E+03  0.47000000000E+01 0. -1.
        -11    1    6    6    0    0  0.11538657219E+03 -0.11499929488E+02  0.71863596540E+02  0.13642098786E+03  0.00000000000E+00 0.  1.
         12    1    6    6    0    0  0.36990655761E+02  0.43960331284E+02  0.67557633303E+02  0.88684007339E+02  0.00000000000E+00 0. -1.
         -5    1    3    3    0  503  0.26617826869E+01  0.86891309160E+01  0.11584756143E+02  0.15455829258E+02  0.47000000000E+01 0.  1.
         11    1    4    4    0    0 -0.54839510045E+00  0.82941117906E+00  0.39486665536E+01  0.40719316843E+01  0.00000000000E+00 0. -1.
        -12    1    4    4    0    0 -0.15669373876E+03 -0.58181998553E+01 -0.39612785982E+03  0.42603293363E+03  0.00000000000E+00 0.  1.
</event>
<event>
12    1  0.1039610E+000  0.3276048E+03  0.7818608E-02  0.1072359E+00
         21   -1    0    0  503  502  0.00000000000E+00  0.00000000000E+00  0.13166567844E+03  0.13166567844E+03  0.00000000000E+00 0. -1.
         21   -1    0    0  501  503 -0.00000000000E+00 -0.00000000000E+00 -0.81668482988E+03  0.81668482988E+03  0.00000000000E+00 0. -1.
          6    2    1    2  501    0  0.15019228238E+03 -0.23548194347E+03 -0.38055398674E+03  0.50214167124E+03  0.17121756271E+03 0.  0.
         24    2    3    3    0    0  0.11292652006E+03 -0.80893961272E+02 -0.11185176417E+03  0.18987711081E+03  0.65163395853E+02 0.  0.
         -6    2    1    2    0  502 -0.15019228238E+03  0.23548194347E+03 -0.30446516469E+03  0.44620883709E+03  0.16850466580E+03 0.  0.
        -24    2    5    5    0    0 -0.41738757290E+02  0.33160994935E+02 -0.86673755942E+02  0.12974221792E+03  0.80491786521E+02 0.  0.
          5    1    3    3  501    0  0.37265762316E+02 -0.15458798220E+03 -0.26870222258E+03  0.31226456043E+03  0.47000000000E+01 0. -1.
        -11    1    4    4    0    0  0.87234392401E+02 -0.90508089151E+02 -0.87122858233E+02  0.15294425732E+03  0.00000000000E+00 0.  1.
         12    1    4    4    0    0  0.25692127660E+02  0.96141278784E+01 -0.24728905935E+02  0.36932853495E+02  0.00000000000E+00 0. -1.
         -5    1    5    5    0  502 -0.10845352509E+03  0.20232094853E+03 -0.21779140875E+03  0.31646661916E+03  0.47000000000E+01 0.  1.
         13    1    6    6    0    0 -0.42509890952E+02  0.11504028135E+02 -0.96404505473E+02  0.10598708491E+03  0.00000000000E+00 0. -1.
        -14    1    6    6    0    0  0.77113366134E+00  0.21656966800E+02  0.97307495306E+01  0.23755133015E+02  0.00000000000E+00 0.  1.
</event>
<event>
12    1  0.1039610E+000  0.3302759E+03  0.7818608E-02  0.1071148E+00
         21   -1    0    0  503  502  0.00000000000E+00  0.00000000000E+00  0.11882562176E+04  0.11882562176E+04  0.00000000000E+00 0.  1.
         21   -1    0    0  501  503 -0.00000000000E+00 -0.00000000000E+00 -0.96982847194E+02  0.96982847194E+02  0.00000000000E+00 0.  1.
          6    2    1    2  501    0  0.28090027253E+03  0.33548169788E+01  0.69985517592E+03  0.77387302032E+03  0.17368352371E+03 0.  0.
         24    2    3    3    0    0  0.23266980083E+03  0.12328293911E+02  0.39529573671E+03  0.46535196155E+03  0.77501649069E+02 0.  0.
         -6    2    1    2    0  502 -0.28090027253E+03 -0.33548169788E+01  0.39141819443E+03  0.51136604443E+03  0.17137914271E+03 0.  0.
        -24    2    5    5    0    0 -0.11072926381E+03  0.54547760724E+02  0.20006782326E+03  0.24878665593E+03  0.81432414943E+02 0.  0.
          5    1    3    3  501    0  0.48230471692E+02 -0.89734769319E+01  0.30455943921E+03  0.30852105877E+03  0.47000000000E+01 0. -1.
        -11    1    4    4    0    0  0.89348161489E+02 -0.28662369107E+02  0.12046987040E+03  0.15270106430E+03  0.00000000000E+00 0.  1.
         12    1    4    4    0    0  0.14332163935E+03  0.40990663018E+02  0.27482586631E+03  0.31265089725E+03  0.00000000000E+00 0. -1.
         -5    1    5    5    0  502 -0.17017100872E+03 -0.57902577703E+02  0.19135037118E+03  0.26257938850E+03  0.47000000000E+01 0.  1.
         13    1    6    6    0    0 -0.11627889964E+03  0.26600153029E+02  0.16504094367E+03  0.20363414186E+03  0.00000000000E+00 0. -1.
        -14    1    6    6    0    0  0.55496358301E+01  0.27947607695E+02  0.35026879586E+02  0.45152514075E+02  0.00000000000E+00 0.  1.
</event>
<event>
12    1  0.1039610E+000  0.2383064E+03  0.7818608E-02  0.1120932E+00
         21   -1    0    0  501  502  0.00000000000E+00  0.00000000000E+00  0.36056939726E+03  0.36056939726E+03  0.00000000000E+00 0. -1.
         21   -1    0    0  502  503 -0.00000000000E+00 -0.00000000000E+00 -0.25536101562E+03  0.25536101562E+03  0.00000000000E+00 0. -1.
         -6    2    1    2    0  503  0.10510727806E+03  0.12692097745E+03 -0.13806181868E+03  0.27541063345E+03  0.17214376789E+03 0.  0.
        -24    2    3    3    0    0  0.93126520954E+02  0.72450264479E+02 -0.16087945477E+03  0.21496783712E+03  0.80046126072E+02 0.  0.
          6    2    1    2  501    0 -0.10510727806E+03 -0.12692097745E+03  0.24327020033E+03  0.34051977943E+03  0.17209548336E+03 0.  0.
         24    2    5    5    0    0 -0.75032915166E+02 -0.15704027377E+03  0.17358660784E+03  0.25873021789E+03  0.80730596946E+02 0.  0.
          5    1    5    5  501    0 -0.30074362896E+02  0.30119296318E+02  0.69683592490E+02  0.81789561538E+02  0.47000000000E+01 0. -1.
        -11    1    6    6    0    0 -0.82771587407E+02 -0.10649530425E+03  0.15203166825E+03  0.20323880944E+03  0.00000000000E+00 0.  1.
         12    1    6    6    0    0  0.77386722407E+01 -0.50544969514E+02  0.21554939590E+02  0.55491408451E+02  0.00000000000E+00 0. -1.
         -5    1    3    3    0  503  0.11980757108E+02  0.54470712969E+02  0.22817636087E+02  0.60442796335E+02  0.47000000000E+01 0.  1.
         11    1    4    4    0    0  0.10703324751E+02  0.50659019890E+02 -0.91146526869E+02  0.10482646048E+03  0.00000000000E+00 0. -1.
        -12    1    4    4    0    0  0.82423196204E+02  0.21791244589E+02 -0.69732927902E+02  0.11014137663E+03  0.00000000000E+00 0.  1.
</event>
<event>
12    1  0.1039610E+000  0.2774553E+03  0.7818608E-02  0.1097174E+00
         21   -1    0    0  503  502  0.00000000000E+00  0.00000000000E+00  0.22337684920E+03  0.22337684920E+03  0.00000000000E+00 0.  1.
         21   -1    0    0  501  503 -0.00000000000E+00 -0.00000000000E+00 -0.50561689551E+03  0.50561689551E+03  0.00000000000E+00 0. -1.
          6    2    1    2  501    0 -0.50787460163E+02  0.21134822437E+03  0.65166374782E+02  0.28438979453E+03  0.17141604584E+03 0.  0.
         24    2    3    3    0    0  0.31109645822E+02  0.75898476833E+02  0.48498235300E+02  0.12516138327E+03  0.81147422544E+02 0.  0.
         -6    2    1    2    0  502  0.50787460163E+02 -0.21134822437E+03 -0.34740642109E+03  0.44460395019E+03  0.17243553304E+03 0.  0.
        -24    2    5    5    0    0  0.52582116142E+02 -0.35511489486E+02 -0.13354013580E+03  0.16768761605E+03  0.79121576611E+02 0.  0.
          5    1    3    3  501    0 -0.81897105985E+02  0.13544974754E+03  0.16668139482E+02  0.15922841126E+03  0.47000000000E+01 0. -1.
        -13    1    4    4    0    0  0.19620417753E+02  0.90640380983E+02  0.51733466408E+02  0.10619317777E+03  0.00000000000E+00 0.  1.
         14    1    4    4    0    0  0.11489228070E+02 -0.14741904151E+02 -0.32352311075E+01  0.18968205501E+02  0.00000000000E+00 0. -1.
         -5    1    5    5    0  502 -0.17946559796E+01 -0.17583673489E+03 -0.21386628529E+03  0.27691633413E+03  0.47000000000E+01 0.  1.
         11    1    6    6    0    0  0.17562121189E+02  0.70630313994E+01  0.41439449998E+01  0.19377481605E+02  0.00000000000E+00 0. -1.
        -12    1    6    6    0    0  0.35019994953E+02 -0.42574520885E+02 -0.13768408080E+03  0.14831013445E+03  0.00000000000E+00 0.  1.
</event>
<event>
12    1  0.1039610E+000  0.3582109E+03  0.7818608E-02  0.1059426E+00
         21   -1    0    0  503  502  0.00000000000E+00  0.00000000000E+00  0.68510817496E+03  0.68510817496E+03  0.00000000000E+00 0.  1.
         21   -1    0    0  501  503 -0.00000000000E+00 -0.00000000000E+00 -0.21952676340E+03  0.21952676340E+03  0.00000000000E+00 0.  1.
          6    2    1    2  501    0  0.29319201797E+03 -0.11246104173E+03  0.40831712423E+03  0.54317393984E+03  0.17235431433E+03 0.  0.
         24    2    3    3    0    0  0.22929365969E+03 -0.35898769224E+02  0.33058919838E+03  0.41664922991E+03  0.10219128485E+03 0.  0.
         -6    2    1    2    0  502 -0.29319201797E+03  0.11246104173E+03  0.57264287329E+02  0.36146099852E+03  0.16960486296E+03 0.  0.
        -24    2    5    5    0    0 -0.62607062119E+02  0.63000973359E+02  0.30266924298E+02  0.12404434401E+03  0.81130424032E+02 0.  0.
          5    1    3    3  501    0  0.63898358280E+02 -0.76562272510E+02  0.77727925859E+02  0.12652470992E+03  0.47000000000E+01 0. -1.
        -13    1    4    4    0    0 -0.89680221681E+01 -0.40930094691E+01  0.31104677877E+02  0.32629421294E+02  0.00000000000E+00 0.  1.
         14    1    4    4    0    0  0.23826168185E+03 -0.31805759755E+02  0.29948452050E+03  0.38401980862E+03  0.00000000000E+00 0. -1.
         -5    1    5    5    0  502 -0.23058495585E+03  0.49460068375E+02  0.26997363031E+02  0.23741665451E+03  0.47000000000E+01 0.  1.
         11    1    6    6    0    0 -0.59462776558E+02  0.23708209612E+01  0.12815362701E+02  0.60874264753E+02  0.00000000000E+00 0. -1.
        -12    1    6    6    0    0 -0.31442855608E+01  0.60630152397E+02  0.17451561597E+02  0.63170079259E+02  0.00000000000E+00 0.  1.
</event>
<event>
12    1  0.1039610E+000  0.1787869E+03  0.7818608E-02  0.1169114E+00
         21   -1    0    0  501  502  0.00000000000E+00  0.00000000000E+00  0.10148848100E+03  0.10148848100E+03  0.00000000000E+00 0.  1.
         21   -1    0    0  502  503 -0.00000000000E+00 -0.00000000000E+00 -0.43823235913E+03  0.43823235913E+03  0.00000000000E+00 0.  1.
         -6    2    1    2    0  503 -0.70877649209E+01  0.46711858206E+02 -0.24511203117E+02  0.17992369986E+03  0.17187060419E+03 0.  0.
        -24    2    3    3    0    0 -0.40665232347E+02 -0.14633901372E+02 -0.52195267921E+02  0.10456292770E+03  0.79631951281E+02 0.  0.
          6    2    1    2  501    0  0.70877649209E+01 -0.46711858206E+02 -0.31223267501E+03  0.35979714026E+03  0.17243115926E+03 0.  0.
         24    2    5    5    0    0 -0.58432190046E+02 -0.66927234301E+01 -0.17607446096E+03  0.20341445291E+03  0.83163155730E+02 0.  0.
          5    1    5    5  501    0  0.65519954967E+02 -0.40019134776E+02 -0.13615821406E+03  0.15638268735E+03  0.47000000000E+01 0. -1.
        -13    1    6    6    0    0 -0.73290405699E+02  0.84033810258E+01 -0.98880339744E+02  0.12336702140E+03  0.00000000000E+00 0.  1.
         14    1    6    6    0    0  0.14858215653E+02 -0.15096104456E+02 -0.77194121215E+02  0.80047431516E+02  0.00000000000E+00 0. -1.
         -5    1    3    3    0  503  0.33577467426E+02  0.61345759578E+02  0.27684064804E+02  0.75360772163E+02  0.47000000000E+01 0.  1.
         11    1    4    4    0    0 -0.10031840888E+02  0.31143003525E+02 -0.32362178478E+02  0.46019942373E+02  0.00000000000E+00 0. -1.
        -12    1    4    4    0    0 -0.30633391459E+02 -0.45776904897E+02 -0.19833089443E+02  0.58542985328E+02  0.00000000000E+00 0.  1.
</event>
<event>
12    1  0.1039610E+000  0.2139299E+03  0.7818608E-02  0.1138635E+00
         21   -1    0    0  503  502  0.00000000000E+00  0.00000000000E+00  0.31068719582E+03  0.31068719582E+03  0.00000000000E+00 0. -1.
         21   -1    0    0  501  503 -0.00000000000E+00 -0.00000000000E+00 -0.15729202459E+03  0.15729202459E+03  0.00000000000E+00 0. -1.
          6    2    1    2  501    0 -0.10405289456E+03  0.73345826442E+02  0.16123594255E+02  0.21379528321E+03  0.17100244943E+03 0.  0.
         24    2    3    3    0    0 -0.10851614958E+03  0.16852530483E+02 -0.31762616496E+02  0.13945422919E+03  0.79867738971E+02 0.  0.
         -6    2    1    2    0  502  0.10405289456E+03 -0.73345826442E+02  0.13727157697E+03  0.25418393721E+03  0.17192839488E+03 0.  0.
        -24    2    5    5    0    0  0.10171909552E+02 -0.41473860845E+01  0.10244063904E+03  0.13237528509E+03  0.83117164412E+02 0.  0.
          5    1    3    3  501    0  0.44632550197E+01  0.56493295959E+02  0.47886210751E+02  0.74341054027E+02  0.47000000000E+01 0. -1.
        -11    1    4    4    0    0 -0.13212662540E+02 -0.98235910432E+01  0.21488372488E+02  0.27070787661E+02  0.00000000000E+00 0.  1.
         12    1    4    4    0    0 -0.95303487037E+02  0.26676121526E+02 -0.53250988985E+02  0.11238344152E+03  0.00000000000E+00 0. -1.
         -5    1    5    5    0  502  0.93880985006E+02 -0.69198440358E+02  0.34830937938E+02  0.12180865212E+03  0.47000000000E+01 0.  1.
         11    1    6    6    0    0 -0.36722553526E+02 -0.38452055591E+01  0.43653198514E+02  0.57174585995E+02  0.00000000000E+00 0. -1.
        -12    1    6    6    0    0  0.46894463078E+02 -0.30218052540E+00  0.58787440523E+02  0.75200699090E+02  0.00000000000E+00 0.  1.
</event>
<event>
12    1  0.1039610E+000  0.2289291E+03  0.7818608E-02  0.1128131E+00
         21   -1    0    0  503  502  0.00000000000E+00  0.00000000000E+00  0.17427681310E+03  0.17427681310E+03  0.00000000000E+00 0. -1.
         21   -1    0    0  501  503 -0.00000000000E+00 -0.00000000000E+00 -0.32370730774E+03  0.32370730774E+03  0.00000000000E+00 0. -1.
          6    2    1    2  501    0 -0.28946764701E+02 -0.14364597813E+03 -0.16328047649E+01  0.22893492991E+03  0.17588761713E+03 0.  0.
         24    2    3    3    0    0 -0.70221535905E+02 -0.74748281898E+02  0.42390988170E+02  0.13722515056E+03  0.80717881018E+02 0.  0.
         -6    2    1    2    0  502  0.28946764701E+02  0.14364597813E+03 -0.14779768987E+03  0.26904919093E+03  0.17050286740E+03 0.  0.
        -24    2    5    5    0    0  0.59914607276E+02  0.81664494430E+02 -0.15256098624E+03  0.19943963277E+03  0.79009257561E+02 0.  0.
          5    1    3    3  501    0  0.41274771204E+02 -0.68897696231E+02 -0.44023792935E+02  0.91709779349E+02  0.47000000000E+01 0. -1.
        -11    1    4    4    0    0 -0.77397614793E+02 -0.71231881870E+02  0.12080316808E+02  0.10587873169E+03  0.00000000000E+00 0.  1.
         12    1    4    4    0    0  0.71760788872E+01 -0.35164000278E+01  0.30310671362E+02  0.31346418867E+02  0.00000000000E+00 0. -1.
         -5    1    5    5    0  502 -0.30967842575E+02  0.61981483698E+02  0.47632963712E+01  0.69609558162E+02  0.47000000000E+01 0.  1.
         13    1    6    6    0    0  0.23294650840E+02  0.76908467220E+02 -0.13810620102E+03  0.15978384101E+03  0.00000000000E+00 0. -1.
        -14    1    6    6    0    0  0.36619956436E+02  0.47560272100E+01 -0.14454785223E+02  0.39655791759E+02  0.00000000000E+00 0.  1.
</event>
<event>
12    1  0.1039610E+000  0.2084742E+03  0.7818608E-02  0.1142982E+00
         21   -1    0    0  503  502  0.00000000000E+00  0.00000000000E+00  0.79407351676E+02  0.79407351676E+02  0.00000000000E+00 0.  1.
         21   -1    0    0  501  503 -0.00000000000E+00 -0.00000000000E+00 -0.72142003115E+03  0.72142003115E+03  0.00000000000E+00 0.  1.
          6    2    1    2  501    0  0.10670265258E+03  0.49828581398E+02 -0.12223297757E+03  0.24079843849E+03  0.17080586518E+03 0.  0.
         24    2    3    3    0    0  0.78029364693E+02 -0.34160732399E+02 -0.79195361324E+02  0.14205286298E+03  0.81557177691E+02 0.  0.
         -6    2    1    2    0  502 -0.10670265258E+03 -0.49828581398E+02 -0.51977970191E+03  0.56002894434E+03  0.17202655723E+03 0.  0.
        -24    2    5    5    0    0 -0.48897695542E+02  0.44952895001E+01 -0.12444993821E+03  0.15679178327E+03  0.81759916352E+02 0.  0.
          5    1    3    3  501    0  0.28673287883E+02  0.83989313797E+02 -0.43037616243E+02  0.98745575506E+02  0.47000000000E+01 0. -1.
        -11    1    4    4    0    0  0.20426441338E+02  0.42217206736E+01 -0.69003754297E+02  0.72087311909E+02  0.00000000000E+00 0.  1.
         12    1    4    4    0    0  0.57602923354E+02 -0.38382453072E+02 -0.10191607027E+02  0.69965551070E+02  0.00000000000E+00 0. -1.
         -5    1    5    5    0  502 -0.57804957034E+02 -0.54323870898E+02 -0.39532976370E+03  0.40323716108E+03  0.47000000000E+01 0.  1.
         13    1    6    6    0    0  0.17724537407E+00 -0.19425166588E+02 -0.90368292693E+02  0.92432661095E+02  0.00000000000E+00 0. -1.
        -14    1    6    6    0    0 -0.49074940916E+02  0.23920456088E+02 -0.34081645518E+02  0.64359122170E+02  0.00000000000E+00 0.  1.
</event>
<event>
12    1  0.1039610E+000  0.3232550E+03  0.7818608E-02  0.1074245E+00
         21   -1    0    0  501  502  0.00000000000E+00  0.00000000000E+00  0.39891691559E+03  0.39891691559E+03  0.00000000000E+00 0.  1.
         21   -1    0    0  502  503 -0.00000000000E+00 -0.00000000000E+00 -0.26712958417E+03  0.26712958417E+03  0.00000000000E+00 0.  1.
         -6    2    1    2    0  503  0.17734266243E+03  0.20796466895E+03  0.11498158438E+03  0.34309554318E+03  0.17260956970E+03 0.  0.
        -24    2    3    3    0    0  0.17147709188E+03  0.23057361516E+03  0.11531307897E+03  0.31926763400E+03  0.77885370200E+02 0.  0.
          6    2    1    2  501    0 -0.17734266243E+03 -0.20796466895E+03  0.16805747042E+02  0.32295095658E+03  0.17121671581E+03 0.  0.
         24    2    5    5    0    0 -0.18556631136E+03 -0.15977158699E+03  0.51994826750E+02  0.26253106845E+03  0.79102995977E+02 0.  0.
          5    1    5    5  501    0  0.82236489305E+01 -0.48193081961E+02 -0.35189079708E+02  0.60419888128E+02  0.47000000000E+01 0. -1.
        -11    1    6    6    0    0 -0.90254589663E+02 -0.55133629636E+02 -0.13413152847E+02  0.10660919633E+03  0.00000000000E+00 0.  1.
         12    1    6    6    0    0 -0.95311721698E+02 -0.10463795735E+03  0.65407979597E+02  0.15592187212E+03  0.00000000000E+00 0. -1.
         -5    1    3    3    0  503  0.58655705527E+01 -0.22608946215E+02 -0.33149459275E+00  0.23827909173E+02  0.47000000000E+01 0.  1.
         11    1    4    4    0    0  0.10003802070E+02 -0.11286214581E+01  0.17873169612E+02  0.20513411082E+02  0.00000000000E+00 0. -1.
        -12    1    4    4    0    0  0.16147328981E+03  0.23170223662E+03  0.97439909362E+02  0.29875422292E+03  0.00000000000E+00 0.  1.
</event>
<event>
12    1  0.1039610E+000  0.1790109E+03  0.7818608E-02  0.1169438E+00
         21   -1    0    0  501  502  0.00000000000E+00  0.00000000000E+00  0.65852989332E+02  0.65852989332E+02  0.00000000000E+00 0.  1.
         21   -1    0    0  502  503 -0.00000000000E+00 -0.00000000000E+00 -0.56895772400E+03  0.56895772400E+03  0.00000000000E+00 0.  1.
         -6    2    1    2    0  503  0.40081438771E+02  0.30929552767E+02 -0.37927185706E+03  0.41939484163E+03  0.17170245386E+03 0.  0.
        -24    2    3    3    0    0 -0.39635092070E+02  0.35892938074E+02 -0.19465366018E+03  0.21818517709E+03  0.82797829418E+02 0.  0.
          6    2    1    2  501    0 -0.40081438771E+02 -0.30929552767E+02 -0.12383287761E+03  0.21541587170E+03  0.16883796147E+03 0.  0.
         24    2    5    5    0    0  0.31896265918E+02 -0.98384816595E+01 -0.10940813635E+03  0.13889276138E+03  0.78783826781E+02 0.  0.
          5    1    5    5  501    0 -0.71977704690E+02 -0.21091071108E+02 -0.14424741254E+02  0.76523110320E+02  0.47000000000E+01 0. -1.
        -13    1    6    6    0    0  0.35965420487E+02 -0.22080337227E+02 -0.16853321487E+02  0.45443230607E+02  0.00000000000E+00 0.  1.
         14    1    6    6    0    0 -0.40691545691E+01  0.12241855567E+02 -0.92554814864E+02  0.93449530770E+02  0.00000000000E+00 0. -1.
         -5    1    3    3    0  503  0.79716530841E+02 -0.49633853063E+01 -0.18461819689E+03  0.20120966454E+03  0.47000000000E+01 0.  1.
         13    1    4    4    0    0  0.57093855916E+01  0.10514285689E+02  0.41799878835E+01  0.12673578267E+02  0.00000000000E+00 0. -1.
        -14    1    4    4    0    0 -0.45344477662E+02  0.25378652384E+02 -0.19883364806E+03  0.20551159883E+03  0.00000000000E+00 0.  1.
</event>
<event>
12    1  0.1039610E+000  0.2562655E+03  0.7818608E-02  0.1109696E+00
         21   -1    0    0  501  502  0.00000000000E+00  0.00000000000E+00  0.22415661278E+03  0.22415661278E+03  0.00000000000E+00 0.  1.
         21   -1    0    0  502  503 -0.00000000000E+00 -0.00000000000E+00 -0.33092125858E+03  0.33092125858E+03  0.00000000000E+00 0. -1.
         -6    2    1    2    0  503 -0.12713887740E+03  0.13752045252E+03 -0.14980841996E+03  0.29522254805E+03  0.17215580494E+03 0.  0.
        -24    2    3    3    0    0 -0.82562184377E+02  0.16453341747E+03 -0.12958340714E+03  0.23911619386E+03  0.80603566977E+02 0.  0.
          6    2    1    2  501    0  0.12713887740E+03 -0.13752045252E+03  0.43043774161E+02  0.25985532331E+03  0.17491670461E+03 0.  0.
         24    2    5    5    0    0  0.10998160720E+03 -0.16665046727E+03  0.16130376356E+02  0.21638866182E+03  0.81826229031E+02 0.  0.
          5    1    5    5  501    0  0.17157270199E+02  0.29130014750E+02  0.26913397806E+02  0.43466661494E+02  0.47000000000E+01 0. -1.
        -13    1    6    6    0    0  0.21638035965E+02 -0.44527153414E+02  0.40173816429E+02  0.63755843010E+02  0.00000000000E+00 0.  1.
         14    1    6    6    0    0  0.88343571238E+02 -0.12212331385E+03 -0.24043440073E+02  0.15263281881E+03  0.00000000000E+00 0. -1.
         -5    1    3    3    0  503 -0.44576693025E+02 -0.27012964947E+02 -0.20225012825E+02  0.56106354186E+02  0.47000000000E+01 0.  1.
         13    1    4    4    0    0 -0.77481545450E+02  0.10477879295E+03 -0.12228167676E+03  0.17870308842E+03  0.00000000000E+00 0. -1.
        -14    1    4    4    0    0 -0.50806389270E+01  0.59754624518E+02 -0.73017303730E+01  0.60413105446E+02  0.00000000000E+00 0.  1.
</event>
<event>
12    1  0.1039610E+000  0.2142448E+03  0.7818608E-02  0.1138301E+00
         21   -1    0    0  503  502  0.00000000000E+00  0.00000000000E+00  0.80628932082E+03  0.80628932082E+03  0.00000000000E+00 0. -1.
         21   -1    0    0  501  503 -0.00000000000E+00 -0.00000000000E+00 -0.62192775802E+02  0.62192775802E+02  0.00000000000E+00 0. -1.
          6    2    1    2  501    0 -0.25874636034E+02 -0.12420234789E+03  0.24462675370E+03  0.32500172456E+03  0.17230250240E+03 0.  0.
         24    2    3    3    0    0 -0.70003443820E+02 -0.11101494805E+03  0.23051723101E+03  0.27660309006E+03  0.78398181118E+02 0.  0.
         -6    2    1    2    0  502  0.25874636034E+02  0.12420234789E+03  0.49946979132E+03  0.54348037206E+03  0.17264160091E+03 0.  0.
        -24    2    5    5    0    0 -0.16866001393E+02  0.42351686098E+02  0.38987629613E+03  0.40009586414E+03  0.77427688210E+02 0.  0.
          5    1    3    3  501    0  0.44128807786E+02 -0.13187399841E+02  0.14109522694E+02  0.48398634504E+02  0.47000000000E+01 0. -1.
        -13    1    4    4    0    0 -0.12284784010E+02  0.32363875858E+01 -0.25664376927E+00  0.12706533311E+02  0.00000000000E+00 0.  1.
         14    1    4    4    0    0 -0.57718659811E+02 -0.11425133563E+03  0.23077387478E+03  0.26389655675E+03  0.00000000000E+00 0. -1.
         -5    1    5    5    0  502  0.42740637428E+02  0.81850661789E+02  0.10959349519E+03  0.14338450791E+03  0.47000000000E+01 0.  1.
         13    1    6    6    0    0  0.28876928583E+02  0.22011215905E+01  0.13021113913E+03  0.13339288847E+03  0.00000000000E+00 0. -1.
        -14    1    6    6    0    0 -0.45742929976E+02  0.40150564507E+02  0.25966515700E+03  0.26670297567E+03  0.00000000000E+00 0.  1.
</event>
<event>
12    1  0.1039610E+000  0.1732090E+03  0.7818608E-02  0.1175510E+00
         21   -1    0    0  501  502  0.00000000000E+00  0.00000000000E+00  0.38601440740E+02  0.38601440740E+02  0.00000000000E+00 0. -1.
         21   -1    0    0  502  503 -0.00000000000E+00 -0.00000000000E+00 -0.90665418071E+03  0.90665418071E+03  0.00000000000E+00 0. -1.
         -6    2    1    2    0  503 -0.78777550417E+01 -0.58923239606E+01 -0.61982915173E+03  0.64257377965E+03  0.16916295826E+03 0.  0.
        -24    2    3    3    0    0 -0.22541576564E+02 -0.59122747556E+02 -0.27596170040E+03  0.29427014811E+03  0.80227414439E+02 0.  0.
          6    2    1    2  501    0  0.78777550417E+01  0.58923239606E+01 -0.24822358824E+03  0.30268184180E+03  0.17292937603E+03 0.  0.
         24    2    5    5    0    0 -0.66322272173E+01  0.54414867835E+02 -0.22792543610E+03  0.24791796841E+03  0.80674347587E+02 0.  0.
          5    1    5    5  501    0  0.14509982259E+02 -0.48522543874E+02 -0.20298152139E+02  0.54763873397E+02  0.47000000000E+01 0. -1.
        -11    1    6    6    0    0 -0.41681058714E+02  0.35373849782E+02 -0.16076557614E+03  0.16980633197E+03  0.00000000000E+00 0.  1.
         12    1    6    6    0    0  0.35048831497E+02  0.19041018052E+02 -0.67159859958E+02  0.78111636440E+02  0.00000000000E+00 0. -1.
         -5    1    3    3    0  503  0.14663821522E+02  0.53230423595E+02 -0.34386745133E+03  0.34830363153E+03  0.47000000000E+01 0.  1.
         11    1    4    4    0    0 -0.48404451401E+02 -0.18556104821E+02 -0.17344293828E+03  0.18102423258E+03  0.00000000000E+00 0. -1.
        -12    1    4    4    0    0  0.25862874837E+02 -0.40566642735E+02 -0.10251876213E+03  0.11324591554E+03  0.00000000000E+00 0.  1.
</event>
<event>
12    1  0.1039610E+000  0.2825621E+03  0.7818608E-02  0.1094562E+00
         21   -1    0    0  501  502  0.00000000000E+00  0.00000000000E+00  0.89468078574E+02  0.89468078574E+02  0.00000000000E+00 0. -1.
         21   -1    0    0  502  503 -0.00000000000E+00 -0.00000000000E+00 -0.14004930476E+04  0.14004930476E+04  0.00000000000E+00 0. -1.
         -6    2    1    2    0  503  0.21946960637E+03 -0.30467206713E+02 -0.20552337825E+03  0.34940117959E+03  0.17534584821E+03 0.  0.
        -24    2    3    3    0    0  0.98312641242E+02 -0.69215921364E+01 -0.22477522493E+02  0.12858161190E+03  0.79465137234E+02 0.  0.
          6    2    1    2  501    0 -0.21946960637E+03  0.30467206713E+02 -0.11055015908E+04  0.11405599466E+04  0.17218613689E+03 0.  0.
         24    2    5    5    0    0 -0.44575117880E+02 -0.18317739521E+02 -0.27219474818E+03  0.28768807051E+03  0.79699211168E+02 0.  0.
          5    1    5    5  501    0 -0.17489448849E+03  0.48784946234E+02 -0.83330684262E+03  0.85287187610E+03  0.47000000000E+01 0. -1.
        -13    1    6    6    0    0 -0.38868360178E+02 -0.44627552621E+02 -0.23112172583E+03  0.23857833101E+03  0.00000000000E+00 0.  1.
         14    1    6    6    0    0 -0.57067577013E+01  0.26309813100E+02 -0.41073022349E+02  0.49109739499E+02  0.00000000000E+00 0. -1.
         -5    1    3    3    0  503  0.12115696513E+03 -0.23545614577E+02 -0.18304585575E+03  0.22081956769E+03  0.47000000000E+01 0.  1.
         11    1    4    4    0    0  0.60634674354E+02  0.34973734767E+02 -0.16525701017E+02  0.71922351545E+02  0.00000000000E+00 0. -1.
        -12    1    4    4    0    0  0.37677966888E+02 -0.41895326903E+02 -0.59518214755E+01  0.56659260356E+02  0.00000000000E+00 0.  1.
</event>
<event>
12    1  0.1039610E+000  0.3233192E+03  0.7818608E-02  0.1074183E+00
         21   -1    0    0  503  502  0.00000000000E+00  0.00000000000E+00  0.17841822241E+03  0.17841822241E+03  0.00000000000E+00 0.  1.
         21   -1    0    0  501  503 -0.00000000000E+00 -0.00000000000E+00 -0.93799368747E+03  0.93799368747E+03  0.00000000000E+00 0.  1.
          6    2    1    2  501    0  0.14788654810E+03  0.22961673816E+03 -0.37223601666E+02  0.32500332366E+03  0.17218387356E+03 0.  0.
         24    2    3    3    0    0  0.98362384805E+02  0.23969260059E+03 -0.41665088573E+02  0.27405253800E+03  0.79000711740E+02 0.  0.
         -6    2    1    2    0  502 -0.14788654810E+03 -0.22961673816E+03 -0.72235186339E+03  0.79140858622E+03  0.17303484692E+03 0.  0.
        -24    2    5    5    0    0 -0.11979055516E+03 -0.15138652541E+03 -0.33471909502E+03  0.39493588335E+03  0.81668979458E+02 0.  0.
          5    1    3    3  501    0  0.49524163297E+02 -0.10075862423E+02  0.44414869070E+01  0.50950785664E+02  0.47000000000E+01 0. -1.
        -11    1    4    4    0    0 -0.12670638539E+02  0.28295557406E+02 -0.12763253650E+02  0.33527366339E+02  0.00000000000E+00 0.  1.
         12    1    4    4    0    0  0.11103302334E+03  0.21139704318E+03 -0.28901834923E+02  0.24052517166E+03  0.00000000000E+00 0. -1.
         -5    1    5    5    0  502 -0.28095992938E+02 -0.78230212754E+02 -0.38763276837E+03  0.39647270287E+03  0.47000000000E+01 0.  1.
         11    1    6    6    0    0 -0.17646118588E+02 -0.60318416867E+02 -0.54909526090E+02  0.83455095531E+02  0.00000000000E+00 0. -1.
        -12    1    6    6    0    0 -0.10214443658E+03 -0.91068108544E+02 -0.27980956893E+03  0.31148078782E+03  0.00000000000E+00 0.  1.
</event>
<event>
12    1  0.1039610E+000  0.3182886E+03  0.7818608E-02  0.1077449E+00
         21   -1    0    0  503  502  0.00000000000E+00  0.00000000000E+00  0.77806765590E+03  0.77806765590E+03  0.00000000000E+00 0.  1.
         21   -1    0    0  501  503 -0.00000000000E+00 -0.00000000000E+00 -0.14698691985E+03  0.14698691985E+03  0.00000000000E+00 0.  1.
          6    2    1    2  501    0  0.25861681196E+03 -0.70671692767E+02  0.48357964989E+03  0.57424948100E+03  0.15503562509E+03 0.  0.
         24    2    3    3    0    0  0.24817185439E+03 -0.88284067134E+02  0.38708271927E+03  0.47549199779E+03  0.82923233086E+02 0.  0.
         -6    2    1    2    0  502 -0.25861681196E+03  0.70671692767E+02  0.14750108616E+03  0.35080509475E+03  0.17155320020E+03 0.  0.
        -24    2    5    5    0    0 -0.24734216978E+03  0.98344580225E+02  0.16275999825E+03  0.31692544518E+03  0.55687658999E+02 0.  0.
          5    1    3    3  501    0  0.10444957570E+02  0.17612374367E+02  0.96496930622E+02  0.98757483205E+02  0.47000000000E+01 0. -1.
        -13    1    4    4    0    0  0.17532338532E+02  0.81937394426E+01  0.64685040447E+02  0.67517958486E+02  0.00000000000E+00 0.  1.
         14    1    4    4    0    0  0.23063951586E+03 -0.96477806577E+02  0.32239767882E+03  0.40797403931E+03  0.00000000000E+00 0. -1.
         -5    1    5    5    0  502 -0.11274642184E+02 -0.27672887458E+02 -0.15258912093E+02  0.33879649569E+02  0.47000000000E+01 0.  1.
         13    1    6    6    0    0 -0.15519649087E+03  0.40668836765E+02  0.11894880044E+03  0.19972161172E+03  0.00000000000E+00 0. -1.
        -14    1    6    6    0    0 -0.92145678904E+02  0.57675743460E+02  0.43811197812E+02  0.11720383346E+03  0.00000000000E+00 0.  1.
</event>
<event>
12    1  0.1039610E+000  0.2092388E+03  0.7818608E-02  0.1142176E+00
         21   -1    0    0  501  502  0.00000000000E+00  0.00000000000E+00  0.84541707023E+03  0.84541707023E+03  0.00000000000E+00 0. -1.
         21   -1    0    0  502  503 -0.00000000000E+00 -0.00000000000E+00 -0.52876421116E+02  0.52876421116E+02  0.00000000000E+00 0.  1.
         -6    2    1    2    0  503 -0.11418730988E+03 -0.36611847395E+02  0.46102201107E+03  0.50628269933E+03  0.17146926210E+03 0.  0.
        -24    2    3    3    0    0 -0.88780914055E+02 -0.80149276675E+02  0.25741148544E+03  0.29647247831E+03  0.85611332821E+02 0.  0.
          6    2    1    2  501    0  0.11418730988E+03  0.36611847395E+02  0.33151863805E+03  0.39201079202E+03  0.17143128238E+03 0.  0.
         24    2    5    5    0    0 -0.14808080166E+01  0.18297678879E+02  0.20008836783E+03  0.21591272788E+03  0.79031343612E+02 0.  0.
          5    1    5    5  501    0  0.11566811789E+03  0.18314168517E+02  0.13143027021E+03  0.17609806414E+03  0.47000000000E+01 0. -1.
        -13    1    6    6    0    0  0.23883695826E+01 -0.13212912229E+02  0.10738705624E+00  0.13427467774E+02  0.00000000000E+00 0.  1.
         14    1    6    6    0    0 -0.38691775992E+01  0.31510591108E+02  0.19998098078E+03  0.20248526011E+03  0.00000000000E+00 0. -1.
         -5    1    3    3    0  503 -0.25406395821E+02  0.43537429279E+02  0.20361052564E+03  0.20981022102E+03  0.47000000000E+01 0.  1.
         11    1    4    4    0    0 -0.41100337618E+02 -0.62070900807E+02  0.22263039126E+03  0.23474736547E+03  0.00000000000E+00 0. -1.
        -12    1    4    4    0    0 -0.47680576437E+02 -0.18078375868E+02  0.34781094173E+02  0.61725112841E+02  0.00000000000E+00 0.  1.
</event>
<event>
12    1  0.1344233E+000  0.1988148E+03  0.7818608E-02  0.1150825E+00
         21   -1    0    0  501  502  0.00000000000E+00  0.00000000000E+00  0.36459704172E+03  0.36459704172E+03  0.00000000000E+00 0. -1.
         21   -1    0    0  502  503 -0.00000000000E+00 -0.00000000000E+00 -0.54247932436E+03  0.54247932436E+03  0.00000000000E+00 0. -1.
         -6    2    1    2    0  503 -0.96128248498E+02  0.27527800494E+02  0.31683490697E+03  0.37404772116E+03  0.17183980758E+03 0.  0.
        -24    2    3    3    0    0 -0.11505170652E+02  0.33671370133E+02  0.25355982179E+03  0.26810134247E+03  0.79496015563E+02 0.  0.
          6    2    1    2  501    0  0.96128248498E+02 -0.27527800494E+02 -0.49471718961E+03  0.53302864492E+03  0.17139433668E+03 0.  0.
         24    2    5    5    0    0  0.33807528575E+02  0.16689508523E+02 -0.10737008643E+03  0.13818828365E+03  0.78397561146E+02 0.  0.
          5    1    5    5  501    0  0.62320719923E+02 -0.44217309017E+02 -0.38734710317E+03  0.39484036127E+03  0.47000000000E+01 0. -1.
        -11    1    6    6    0    0  0.59331382804E+02  0.10691545317E+02 -0.67879397493E+02  0.90786203416E+02  0.00000000000E+00 0.  1.
         12    1    6    6    0    0 -0.25523854229E+02  0.59979632055E+01 -0.39490688941E+02  0.47402080232E+02  0.00000000000E+00 0. -1.
         -5    1    3    3    0  503 -0.84623077845E+02 -0.61435696393E+01  0.63275085178E+02  0.10594637868E+03  0.47000000000E+01 0.  1.
         13    1    4    4    0    0 -0.44614555707E+02  0.89457333381E+01  0.14339217784E+03  0.15043869646E+03  0.00000000000E+00 0. -1.
        -14    1    4    4    0    0  0.33109385055E+02  0.24725636795E+02  0.11016764395E+03  0.11766264601E+03  0.00000000000E+00 0.  1.
</event>
<event>
12    1  0.1039610E+000  0.2440527E+03  0.7818608E-02  0.1117290E+00
         21   -1    0    0  501  502  0.00000000000E+00  0.00000000000E+00  0.51901485271E+02  0.51901485271E+02  0.00000000000E+00 0.  1.
         21   -1    0    0  502  503 -0.00000000000E+00 -0.00000000000E+00 -0.25606140767E+04  0.25606140767E+04  0.00000000000E+00 0.  1.
         -6    2    1    2    0  503 -0.69445675383E+02  0.15912774631E+03 -0.28352449282E+03  0.37409602327E+03  0.17151488309E+03 0.  0.
        -24    2    3    3    0    0 -0.43503942454E+02  0.94908355804E+02 -0.27429961566E+03  0.30406537296E+03  0.79468754045E+02 0.  0.
          6    2    1    2  501    0  0.69445675383E+02 -0.15912774631E+03 -0.22251880986E+04  0.22384195387E+04  0.17004592201E+03 0.  0.
         24    2    5    5    0    0  0.21239728030E+02 -0.44430542079E+02 -0.14691973790E+04  0.14722450677E+04  0.80866566224E+02 0.  0.
          5    1    5    5  501    0  0.48205947353E+02 -0.11469720423E+03 -0.75599071953E+03  0.76617447102E+03  0.47000000000E+01 0. -1.
        -13    1    6    6    0    0 -0.12481836419E+02  0.80455535553E+01 -0.65495321564E+02  0.67157756954E+02  0.00000000000E+00 0.  1.
         14    1    6    6    0    0  0.33721564449E+02 -0.52476095634E+02 -0.14037020575E+04  0.14050873107E+04  0.00000000000E+00 0. -1.
         -5    1    3    3    0  503 -0.25941732930E+02  0.64219390503E+02 -0.92248771581E+01  0.70030650308E+02  0.47000000000E+01 0.  1.
         13    1    4    4    0    0 -0.29367028237E+02  0.99070257747E+02 -0.17156762085E+03  0.20028176862E+03  0.00000000000E+00 0. -1.
        -14    1    4    4    0    0 -0.14136914217E+02 -0.41619019432E+01 -0.10273199481E+03  0.10378360433E+03  0.00000000000E+00 0.  1.
</event>
<event>
12    1  0.1039610E+000  0.1842585E+03  0.7818608E-02  0.1163949E+00
         21   -1    0    0  501  502  0.00000000000E+00  0.00000000000E+00  0.13110363515E+03  0.13110363515E+03  0.00000000000E+00 0. -1.
         21   -1    0    0  502  503 -0.00000000000E+00 -0.00000000000E+00 -0.43290117112E+03  0.43290117112E+03  0.00000000000E+00 0. -1.
         -6    2    1    2    0  503 -0.63735515378E+02 -0.17940000738E+02  0.28694414807E+02  0.18561860143E+03  0.17101706409E+03 0.  0.
        -24    2    3    3    0    0 -0.29876194749E+02 -0.54157243651E+02 -0.33096213175E+02  0.10625668371E+03  0.79809331873E+02 0.  0.
          6    2    1    2  501    0  0.63735515378E+02  0.17940000738E+02 -0.33049195077E+03  0.37838620484E+03  0.17195095503E+03 0.  0.
         24    2    5    5    0    0  0.32499265863E+02  0.34764522430E+01 -0.53369914384E+02  0.99094940073E+02  0.76832098663E+02 0.  0.
          5    1    5    5  501    0  0.31236249515E+02  0.14463548495E+02 -0.27712203639E+03  0.27929126476E+03  0.47000000000E+01 0. -1.
        -13    1    6    6    0    0  0.42123986762E+02 -0.24454831322E+02 -0.49246818041E+02  0.69265562315E+02  0.00000000000E+00 0.  1.
         14    1    6    6    0    0 -0.96247208985E+01  0.27931283565E+02 -0.41230963427E+01  0.29829377758E+02  0.00000000000E+00 0. -1.
         -5    1    3    3    0  503 -0.33859320629E+02  0.36217242913E+02  0.61790627982E+02  0.79361917719E+02  0.47000000000E+01 0.  1.
         13    1    4    4    0    0  0.25715925532E+02 -0.76057254003E+01 -0.17698874399E+02  0.32131075921E+02  0.00000000000E+00 0. -1.
        -14    1    4    4    0    0 -0.55592120281E+02 -0.46551518251E+02 -0.15397338776E+02  0.74125607790E+02  0.00000000000E+00 0.  1.
</event>
<event>
12    1  0.1039610E+000  0.3584565E+03  0.7818608E-02  0.1059206E+00
         21   -1    0    0  501  502  0.00000000000E+00  0.00000000000E+00  0.31485910085E+03  0.31485910085E+03  0.00000000000E+00 0.  1.
         21   -1    0    0  502  503 -0.00000000000E+00 -0.00000000000E+00 -0.45068297300E+03  0.45068297300E+03  0.00000000000E+00 0.  1.
         -6    2    1    2    0  503  0.21913146038E+02 -0.31322528163E+03  0.49921049482E+02  0.36181911294E+03  0.17271565155E+03 0.  0.
        -24    2    3    3    0    0  0.60231124155E+02 -0.28417311933E+03  0.70328810952E+02  0.30937044938E+03  0.79886064088E+02 0.  0.
          6    2    1    2  501    0 -0.21913146038E+02  0.31322528163E+03 -0.18574492163E+03  0.40372296090E+03  0.17291844965E+03 0.  0.
         24    2    5    5    0    0  0.43378528279E+02  0.10738723550E+03 -0.52481369012E+02  0.14992467796E+03  0.79431731087E+02 0.  0.
          5    1    5    5  501    0 -0.65291674317E+02  0.20583804613E+03 -0.13326355262E+03  0.25379828295E+03  0.47000000000E+01 0. -1.
        -13    1    6    6    0    0  0.19979820114E+02 -0.83200535895E+01 -0.27098687858E+01  0.21811920877E+02  0.00000000000E+00 0.  1.
         14    1    6    6    0    0  0.23398708165E+02  0.11570728909E+03 -0.49771500226E+02  0.12811275708E+03  0.00000000000E+00 0. -1.
         -5    1    3    3    0  503 -0.38317978117E+02 -0.29052162300E+02 -0.20407761470E+02  0.52448663562E+02  0.47000000000E+01 0.  1.
         11    1    4    4    0    0  0.62618800922E+02 -0.16999620415E+03  0.13110139594E+02  0.18163617320E+03  0.00000000000E+00 0. -1.
        -12    1    4    4    0    0 -0.23876767677E+01 -0.11417691518E+03  0.57218671359E+02  0.12773427618E+03  0.00000000000E+00 0.  1.
</event>
<event>
12    1  0.1039610E+000  0.1829607E+03  0.7818608E-02  0.1165315E+00
         21   -1    0    0  503  502  0.00000000000E+00  0.00000000000E+00  0.36514354218E+02  0.36514354218E+02  0.00000000000E+00 0.  1.
         21   -1    0    0  501  503 -0.00000000000E+00 -0.00000000000E+00 -0.10079913174E+04  0.10079913174E+04  0.00000000000E+00 0.  1.
          6    2    1    2  501    0  0.88012080949E+01 -0.60578207291E+02 -0.32421449922E+03  0.37227634516E+03  0.17241651660E+03 0.  0.
         24    2    3    3    0    0 -0.26941134539E+02 -0.67872882289E+02 -0.31698141814E+03  0.33479121741E+03  0.79217339815E+02 0.  0.
         -6    2    1    2    0  502 -0.88012080949E+01  0.60578207291E+02 -0.64726246398E+03  0.67222932648E+03  0.17086951056E+03 0.  0.
        -24    2    5    5    0    0  0.34256910519E+01  0.87287096562E+02 -0.29152081479E+03  0.31524603164E+03  0.82249026874E+02 0.  0.
          5    1    3    3  501    0  0.35742342634E+02  0.72946749971E+01 -0.72330810791E+01  0.37485127746E+02  0.47000000000E+01 0. -1.
        -11    1    4    4    0    0  0.78078253762E+01 -0.36706765883E+02 -0.25201942593E+03  0.25479823360E+03  0.00000000000E+00 0.  1.
         12    1    4    4    0    0 -0.34748959915E+02 -0.31166116406E+02 -0.64961992211E+02  0.79992983811E+02  0.00000000000E+00 0. -1.
         -5    1    5    5    0  502 -0.12226899147E+02 -0.26708889271E+02 -0.35574164919E+03  0.35698329484E+03  0.47000000000E+01 0.  1.
         11    1    6    6    0    0 -0.38928165457E+02  0.51318630641E+02 -0.15535569646E+03  0.16817965495E+03  0.00000000000E+00 0. -1.
        -12    1    6    6    0    0  0.42353856509E+02  0.35968465922E+02 -0.13616511833E+03  0.14706637668E+03  0.00000000000E+00 0.  1.
</event>
<event>
12    1  0.1039610E+000  0.2248144E+03  0.7818608E-02  0.1130555E+00
         21   -1    0    0  503  502  0.00000000000E+00  0.00000000000E+00  0.91505051552E+02  0.91505051552E+02  0.00000000000E+00 0.  1.
         21   -1    0    0  501  503 -0.00000000000E+00 -0.00000000000E+00 -0.66254735592E+03  0.66254735592E+03  0.00000000000E+00 0.  1.
          6    2    1    2  501    0 -0.10872495198E+03 -0.93276762333E+02 -0.13038866568E+03  0.25988978860E+03  0.17326231127E+03 0.  0.
         24    2    3    3    0    0 -0.43310752793E+02 -0.11736841373E+03 -0.61688281574E+02  0.16190377991E+03  0.82196253058E+02 0.  0.
         -6    2    1    2    0  502  0.10872495198E+03  0.93276762333E+02 -0.44065363869E+03  0.49416261888E+03  0.17175387924E+03 0.  0.
        -24    2    5    5    0    0  0.13916116730E+02  0.18473636314E+02 -0.79251379306E+02  0.11308794642E+03  0.77286279247E+02 0.  0.
          5    1    3    3  501    0 -0.65414199183E+02  0.24091651396E+02 -0.68700384110E+02  0.97986008688E+02  0.47000000000E+01 0. -1.
        -11    1    4    4    0    0  0.62388613583E+01  0.75553877792E+01 -0.18166851671E+02  0.20640779423E+02  0.00000000000E+00 0.  1.
         12    1    4    4    0    0 -0.49549614152E+02 -0.12492380151E+03 -0.43521429903E+02  0.14126300049E+03  0.00000000000E+00 0. -1.
         -5    1    5    5    0  502  0.94808835246E+02  0.74803126019E+02 -0.36140225938E+03  0.38107467246E+03  0.47000000000E+01 0.  1.
         11    1    6    6    0    0  0.30921387782E+02  0.35851438097E+02 -0.74566494935E+02  0.88326779647E+02  0.00000000000E+00 0. -1.
        -12    1    6    6    0    0 -0.17005271051E+02 -0.17377801782E+02 -0.46848843704E+01  0.24761166772E+02  0.00000000000E+00 0.  1.
</event>
<event>
12    1  0.1039610E+000  0.2833476E+03  0.7818608E-02  0.1094064E+00
         21   -1    0    0  503  502  0.00000000000E+00  0.00000000000E+00  0.68460052161E+03  0.68460052161E+03  0.00000000000E+00 0.  1.
         21   -1    0    0  501  503 -0.00000000000E+00 -0.00000000000E+00 -0.12504615953E+03  0.12504615953E+03  0.00000000000E+00 0.  1.
          6    2    1    2  501    0 -0.18630584090E+03 -0.12406547439E+03  0.17580097824E+03  0.33345443353E+03  0.17373476049E+03 0.  0.
         24    2    3    3    0    0 -0.35479759273E+02 -0.30505734959E+02  0.10628583619E+03  0.14278095159E+03  0.83068092424E+02 0.  0.
         -6    2    1    2    0  502  0.18630584090E+03  0.12406547439E+03  0.38375338383E+03  0.47619224761E+03  0.17143596118E+03 0.  0.
        -24    2    5    5    0    0  0.83533799984E+02  0.13039759421E+03  0.29504336431E+03  0.34020053573E+03  0.68588551314E+02 0.  0.
          5    1    3    3  501    0 -0.15082608163E+03 -0.93559739430E+02  0.69515142053E+02  0.19067348194E+03  0.47000000000E+01 0. -1.
        -11    1    4    4    0    0 -0.45879862899E+02 -0.52691368180E+02  0.69232424071E+02  0.98358886955E+02  0.00000000000E+00 0.  1.
         12    1    4    4    0    0  0.10400103626E+02  0.22185633221E+02  0.37053412118E+02  0.44422064634E+02  0.00000000000E+00 0. -1.
         -5    1    5    5    0  502  0.10277204092E+03 -0.63321198222E+01  0.88710019529E+02  0.13599171188E+03  0.47000000000E+01 0.  1.
         11    1    6    6    0    0  0.64606698116E+02  0.95548013038E+02  0.14650649672E+03  0.18646072460E+03  0.00000000000E+00 0. -1.
        -12    1    6    6    0    0  0.18927101868E+02  0.34849581174E+02  0.14853686758E+03  0.15373981113E+03  0.00000000000E+00 0.  1.
</event>
<event>
12    1  0.1039610E+000  0.2483590E+03  0.7818608E-02  0.1114481E+00
         21   -1    0    0  503  502  0.00000000000E+00  0.00000000000E+00  0.44687594147E+03  0.44687594147E+03  0.00000000000E+00 0.  1.
         21   -1    0    0  501  503 -0.00000000000E+00 -0.00000000000E+00 -0.29460913665E+03  0.29460913665E+03  0.00000000000E+00 0. -1.
          6    2    1    2  501    0 -0.16145446624E+03  0.76283177966E+02 -0.19449115360E+03  0.31545046489E+03  0.17261378583E+03 0.  0.
         24    2    3    3    0    0 -0.11443480806E+02  0.22193095335E+02 -0.44134727153E+02  0.96228710118E+02  0.81783884578E+02 0.  0.
         -6    2    1    2    0  502  0.16145446624E+03 -0.76283177966E+02  0.34675795842E+03  0.42603461324E+03  0.17139936417E+03 0.  0.
        -24    2    5    5    0    0  0.40846424009E+02  0.73367478833E+01  0.68088578666E+02  0.11104682766E+03  0.77285737138E+02 0.  0.
          5    1    3    3  501    0 -0.15001098544E+03  0.54090082632E+02 -0.15035642644E+03  0.21922175477E+03  0.47000000000E+01 0. -1.
        -13    1    4    4    0    0 -0.44745425111E+02  0.15097536931E+01 -0.14414711492E+02  0.47034203852E+02  0.00000000000E+00 0.  1.
         14    1    4    4    0    0  0.33301944305E+02  0.20683341641E+02 -0.29720015661E+02  0.49194506267E+02  0.00000000000E+00 0. -1.
         -5    1    5    5    0  502  0.12060804223E+03 -0.83619925850E+02  0.27866937975E+03  0.31498778558E+03  0.47000000000E+01 0.  1.
         13    1    6    6    0    0  0.34220814992E+02 -0.14656237576E+01  0.84558105301E+02  0.91232041542E+02  0.00000000000E+00 0. -1.
        -14    1    6    6    0    0  0.66256090166E+01  0.88023716409E+01 -0.16469526635E+02  0.19814786119E+02  0.00000000000E+00 0.  1.
</event>
<event>
12    1  0.1039610E+000  0.1938074E+03  0.7818608E-02  0.1156356E+00
         21   -1    0    0  501  502  0.00000000000E+00  0.00000000000E+00  0.61321026853E+03  0.61321026853E+03  0.00000000000E+00 0. -1.
         21   -1    0    0  502  503 -0.00000000000E+00 -0.00000000000E+00 -0.86743270044E+02  0.86743270044E+02  0.00000000000E+00 0. -1.
         -6    2    1    2    0  503 -0.86481574813E+02 -0.15904977708E+02  0.45681690379E+03  0.49401069390E+03  0.16623131775E+03 0.  0.
        -24    2    3    3    0    0 -0.25150914059E+01  0.39988187290E+02  0.26527226446E+03  0.27747927566E+03  0.70851911208E+02 0.  0.
          6    2    1    2  501    0  0.86481574813E+02  0.15904977708E+02  0.69650094688E+02  0.20594284466E+03  0.17271157599E+03 0.  0.
         24    2    5    5    0    0  0.11131174397E+03 -0.89596063817E+01  0.91535494296E+02  0.16427936475E+03  0.78347840263E+02 0.  0.
          5    1    5    5  501    0 -0.24830169161E+02  0.24864584089E+02 -0.21885399608E+02  0.41663479914E+02  0.47000000000E+01 0. -1.
        -13    1    6    6    0    0  0.22252621376E+02 -0.35875449661E+02  0.18939626005E+02  0.46270254804E+02  0.00000000000E+00 0.  1.
         14    1    6    6    0    0  0.89059122599E+02  0.26915843279E+02  0.72595868292E+02  0.11800910995E+03  0.00000000000E+00 0. -1.
         -5    1    3    3    0  503 -0.83966483407E+02 -0.55893164998E+02  0.19154463934E+03  0.21653141825E+03  0.47000000000E+01 0.  1.
         11    1    4    4    0    0  0.17112896717E+02  0.39730260421E+02  0.78097570147E+02  0.89278078441E+02  0.00000000000E+00 0. -1.
        -12    1    4    4    0    0 -0.19627988122E+02  0.25792686956E+00  0.18717469431E+03  0.18820119722E+03  0.00000000000E+00 0.  1.
</event>
<event>
12    1  0.1039610E+000  0.2028644E+03  0.7818608E-02  0.1147637E+00
         21   -1    0    0  503  502  0.00000000000E+00  0.00000000000E+00  0.23964421874E+03  0.23964421874E+03  0.00000000000E+00 0.  1.
         21   -1    0    0  501  503 -0.00000000000E+00 -0.00000000000E+00 -0.19688273449E+03  0.19688273449E+03  0.00000000000E+00 0.  1.
          6    2    1    2  501    0 -0.97955386350E+02 -0.43212292382E+02  0.10115299138E+03  0.22542623414E+03  0.17065315539E+03 0.  0.
         24    2    3    3    0    0  0.11654777196E+02 -0.15899023858E+01  0.61660593596E+02  0.10161770946E+03  0.79911003319E+02 0.  0.
         -6    2    1    2    0  502  0.97955386350E+02  0.43212292382E+02 -0.58391507126E+02  0.21110071909E+03  0.17231188458E+03 0.  0.
        -24    2    5    5    0    0  0.24737618680E+02  0.36447230950E+02  0.30529217984E+02  0.95620881403E+02  0.79189452502E+02 0.  0.
          5    1    3    3  501    0 -0.10961016355E+03 -0.41622389996E+02  0.39492397783E+02  0.12380852468E+03  0.47000000000E+01 0. -1.
        -11    1    4    4    0    0 -0.53792661134E+01 -0.27769650884E+02 -0.43238105632E+01  0.28614425591E+02  0.00000000000E+00 0.  1.
         12    1    4    4    0    0  0.17034043310E+02  0.26179748498E+02  0.65984404159E+02  0.73003283865E+02  0.00000000000E+00 0. -1.
         -5    1    5    5    0  502  0.73217767670E+02  0.67650614318E+01 -0.88920725110E+02  0.11547983769E+03  0.47000000000E+01 0.  1.
         11    1    6    6    0    0  0.47014656135E+02  0.46492609797E+02  0.20756689001E+02  0.69302098060E+02  0.00000000000E+00 0. -1.
        -12    1    6    6    0    0 -0.22277037455E+02 -0.10045378847E+02  0.97725289832E+01  0.26318783343E+02  0.00000000000E+00 0.  1.
</event>
<event>
12    1  0.1039610E+000  0.1873913E+03  0.7818608E-02  0.1160878E+00
         21   -1    0    0  503  502  0.00000000000E+00  0.00000000000E+00  0.42796506421E+02  0.42796506421E+02  0.00000000000E+00 0.  1.
         21   -1    0    0  501  503 -0.00000000000E+00 -0.00000000000E+00 -0.99967483612E+03  0.99967483612E+03  0.00000000000E+00 0.  1.
          6    2    1    2  501    0 -0.20896728418E+02 -0.72090496614E+02 -0.25748015506E+03  0.31845175896E+03  0.17170259047E+03 0.  0.
         24    2    3    3    0    0  0.28194184113E+02  0.14703124460E+02 -0.13032770207E+03  0.15679506515E+03  0.81168273614E+02 0.  0.
         -6    2    1    2    0  502  0.20896728418E+02  0.72090496614E+02 -0.69939817464E+03  0.72401958358E+03  0.17150171358E+03 0.  0.
        -24    2    5    5    0    0  0.65296733276E+01 -0.17082880313E+02 -0.47660213545E+03  0.48356487162E+03  0.79692710586E+02 0.  0.
          5    1    3    3  501    0 -0.49090912531E+02 -0.86793621074E+02 -0.12715245299E+03  0.16165669381E+03  0.47000000000E+01 0. -1.
        -11    1    4    4    0    0  0.49206261266E+02  0.18828645851E+01 -0.40810497009E+02  0.63955437555E+02  0.00000000000E+00 0.  1.
         12    1    4    4    0    0 -0.21012077153E+02  0.12820259875E+02 -0.89517205065E+02  0.92839627597E+02  0.00000000000E+00 0. -1.
         -5    1    5    5    0  502  0.14367055090E+02  0.89173376927E+02 -0.22279603919E+03  0.24045471196E+03  0.47000000000E+01 0.  1.
         11    1    6    6    0    0  0.34299962389E+02  0.12046125725E+02 -0.14319901604E+03  0.14774151333E+03  0.00000000000E+00 0. -1.
        -12    1    6    6    0    0 -0.27770289061E+02 -0.29129006039E+02 -0.33340311940E+03  0.33582335829E+03  0.00000000000E+00 0.  1.
</event>
<event>
12    1  0.1039610E+000  0.4930857E+03  0.7818608E-02  0.1015615E+00
         21   -1    0    0  503  502  0.00000000000E+00  0.00000000000E+00  0.44934712500E+03  0.44934712500E+03  0.00000000000E+00 0.  1.
         21   -1    0    0  501  503 -0.00000000000E+00 -0.00000000000E+00 -0.65409594429E+03  0.65409594429E+03  0.00000000000E+00 0.  1.
          6    2    1    2  501    0 -0.13768276495E+03 -0.44116535707E+03  0.12723391709E+03  0.50901387718E+03  0.17124030327E+03 0.  0.
         24    2    3    3    0    0 -0.30734632702E+02 -0.18194846564E+03  0.10933132779E+01  0.20149990721E+03  0.80939208540E+02 0.  0.
         -6    2    1    2    0  502  0.13768276495E+03  0.44116535707E+03 -0.33198273639E+03  0.59442919210E+03  0.17190145761E+03 0.  0.
        -24    2    5    5    0    0  0.25006748160E+02  0.28878026069E+03 -0.17294362514E+03  0.34697691132E+03  0.80399646139E+02 0.  0.
          5    1    3    3  501    0 -0.10694813224E+03 -0.25921689143E+03  0.12614060381E+03  0.30751396997E+03  0.47000000000E+01 0. -1.
        -11    1    4    4    0    0 -0.11462188901E+02 -0.43210107742E+01  0.18280513550E+02  0.22005228564E+02  0.00000000000E+00 0.  1.
         12    1    4    4    0    0 -0.19272443802E+02 -0.17762745486E+03 -0.17187200272E+02  0.17949467865E+03  0.00000000000E+00 0. -1.
         -5    1    5    5    0  502  0.11267601679E+03  0.15238509638E+03 -0.15903911124E+03  0.24745228078E+03  0.47000000000E+01 0.  1.
         11    1    6    6    0    0  0.72878749715E+01  0.12369811327E+03 -0.12054587212E+03  0.17287464717E+03  0.00000000000E+00 0. -1.
        -12    1    6    6    0    0  0.17718873189E+02  0.16508214742E+03 -0.52397753022E+02  0.17410226416E+03  0.00000000000E+00 0.  1.
</event>
<event>
12    1  0.1039610E+000  0.1771122E+03  0.7818608E-02  0.1171373E+00
         21   -1    0    0  501  502  0.00000000000E+00  0.00000000000E+00  0.14053082017E+03  0.14053082017E+03  0.00000000000E+00 0.  1.
         21   -1    0    0  502  503 -0.00000000000E+00 -0.00000000000E+00 -0.21946848621E+03  0.21946848621E+03  0.00000000000E+00 0.  1.
         -6    2    1    2    0  503  0.30177090069E+02  0.38137708231E+01 -0.38492665118E+02  0.17832784605E+03  0.17144659167E+03 0.  0.
        -24    2    3    3    0    0  0.56519651087E+02  0.54240315543E+02 -0.20950587808E+01  0.11062524137E+03  0.78083749697E+02 0.  0.
          6    2    1    2  501    0 -0.30177090069E+02 -0.38137708231E+01 -0.40445000917E+02  0.18167146033E+03  0.17448071466E+03 0.  0.
         24    2    5    5    0    0 -0.29760222494E+01 -0.61502498094E+02 -0.55317293885E+02  0.11601201743E+03  0.81285738016E+02 0.  0.
          5    1    5    5  501    0 -0.27201067819E+02  0.57688727271E+02  0.14872292968E+02  0.65659442906E+02  0.47000000000E+01 0. -1.
        -11    1    6    6    0    0  0.30363892728E+02 -0.61005998132E+02 -0.31735180249E+02  0.75171932628E+02  0.00000000000E+00 0.  1.
         12    1    6    6    0    0 -0.33339914977E+02 -0.49649996188E+00 -0.23582113636E+02  0.40840084800E+02  0.00000000000E+00 0. -1.
         -5    1    3    3    0  503 -0.26342561018E+02 -0.50426544720E+02 -0.36397606338E+02  0.67702604680E+02  0.47000000000E+01 0.  1.
         13    1    4    4    0    0  0.54460961271E+02  0.22839792280E+02  0.29515981538E+02  0.66021553906E+02  0.00000000000E+00 0. -1.
        -14    1    4    4    0    0  0.20586898158E+01  0.31400523264E+02 -0.31611040319E+02  0.44603687460E+02  0.00000000000E+00 0.  1.
</event>
<event>
12    1  0.1039610E+000  0.2192858E+03  0.7818608E-02  0.1134661E+00
         21   -1    0    0  503  502  0.00000000000E+00  0.00000000000E+00  0.81482139226E+03  0.81482139226E+03  0.00000000000E+00 0. -1.
         21   -1    0    0  501  503 -0.00000000000E+00 -0.00000000000E+00 -0.78019419267E+02  0.78019419267E+02  0.00000000000E+00 0.  1.
          6    2    1    2  501    0 -0.24775211717E+02 -0.13330003199E+03  0.59157812505E+03  0.63091278286E+03  0.17234718418E+03 0.  0.
         24    2    3    3    0    0  0.55092419098E+01 -0.45325252016E+02  0.12382541617E+03  0.15397316749E+03  0.79311237547E+02 0.  0.
         -6    2    1    2    0  502  0.24775211717E+02  0.13330003199E+03  0.14522384794E+03  0.26192802867E+03  0.17068572449E+03 0.  0.
        -24    2    5    5    0    0 -0.50439364140E+02  0.60739140416E+02  0.67503268401E+02  0.13160192272E+03  0.80802241212E+02 0.  0.
          5    1    3    3  501    0 -0.30284453627E+02 -0.87974779974E+02  0.46775270888E+03  0.47693961537E+03  0.47000000000E+01 0. -1.
        -13    1    4    4    0    0  0.34875756033E+02  0.21708225860E+01  0.57337516672E+02  0.67146270542E+02  0.00000000000E+00 0.  1.
         14    1    4    4    0    0 -0.29366514124E+02 -0.47496074602E+02  0.66487899497E+02  0.86826896949E+02  0.00000000000E+00 0. -1.
         -5    1    5    5    0  502  0.75214575857E+02  0.72560891573E+02  0.77720579544E+02  0.13032610595E+03  0.47000000000E+01 0.  1.
         11    1    6    6    0    0 -0.83070494909E+01  0.48251218674E+02  0.72383824601E+02  0.87387672120E+02  0.00000000000E+00 0. -1.
        -12    1    6    6    0    0 -0.42132314649E+02  0.12487921743E+02 -0.48805561999E+01  0.44214250598E+02  0.00000000000E+00 0.  1.
</event>
<event>
12    1  0.1039610E+000  0.1748659E+03  0.7818608E-02  0.1173201E+00
         21   -1    0    0  501  502  0.00000000000E+00  0.00000000000E+00  0.69841828341E+02  0.69841828341E+02  0.00000000000E+00 0.  1.
         21   -1    0    0  502  503 -0.00000000000E+00 -0.00000000000E+00 -0.45465965026E+03  0.45465965026E+03  0.00000000000E+00 0.  1.
         -6    2    1    2    0  503  0.62400355038E+01 -0.32881935959E+02 -0.13648718323E+03  0.22078090925E+03  0.17028006034E+03 0.  0.
        -24    2    3    3    0    0 -0.27231720228E+02 -0.19724088919E+02 -0.29274695586E+02  0.10759921958E+03  0.97928432958E+02 0.  0.
          6    2    1    2  501    0 -0.62400355038E+01  0.32881935959E+02 -0.24833063868E+03  0.30372056934E+03  0.17163309232E+03 0.  0.
         24    2    5    5    0    0  0.23325859353E+02  0.57660159188E+01 -0.25393291031E+03  0.26294201241E+03  0.63868899286E+02 0.  0.
          5    1    5    5  501    0 -0.29565894857E+02  0.27115920040E+02  0.56022716291E+01  0.40778556935E+02  0.47000000000E+01 0. -1.
        -11    1    6    6    0    0  0.23558818717E+02 -0.14900778381E+02 -0.44623928128E+02  0.52615074810E+02  0.00000000000E+00 0.  1.
         12    1    6    6    0    0 -0.23295936399E+00  0.20666794300E+02 -0.20930898218E+03  0.21032693760E+03  0.00000000000E+00 0. -1.
         -5    1    3    3    0  503  0.33471755732E+02 -0.13157847040E+02 -0.10721248765E+03  0.11318168968E+03  0.47000000000E+01 0.  1.
         11    1    4    4    0    0  0.21895332078E+02  0.25985656239E+02  0.97185016058E+00  0.33994181704E+02  0.00000000000E+00 0. -1.
        -12    1    4    4    0    0 -0.49127052306E+02 -0.45709745158E+02 -0.30246545746E+02  0.73605037873E+02  0.00000000000E+00 0.  1.
</event>
<event>
12    1  0.1039610E+000  0.5185911E+03  0.7818608E-02  0.1009056E+00
         21   -1    0    0  501  502  0.00000000000E+00  0.00000000000E+00  0.39939393963E+03  0.39939393963E+03  0.00000000000E+00 0. -1.
         21   -1    0    0  502  503 -0.00000000000E+00 -0.00000000000E+00 -0.71663411220E+03  0.71663411220E+03  0.00000000000E+00 0.  1.
         -6    2    1    2    0  503  0.19674464246E+03 -0.44763767098E+03 -0.20930569203E+02  0.51901334938E+03  0.17276813736E+03 0.  0.
        -24    2    3    3    0    0  0.27832009578E+02 -0.12624556984E+03  0.22065092853E+02  0.15336997506E+03  0.79516767208E+02 0.  0.
          6    2    1    2  501    0 -0.19674464246E+03  0.44763767098E+03 -0.29630960336E+03  0.59701470245E+03  0.17186982015E+03 0.  0.
         24    2    5    5    0    0 -0.17220178597E+03  0.24046977519E+03 -0.14571990785E+03  0.33968177559E+03  0.81671593910E+02 0.  0.
          5    1    5    5  501    0 -0.24542856482E+02  0.20716789580E+03 -0.15058969552E+03  0.25733292686E+03  0.47000000000E+01 0. -1.
        -11    1    6    6    0    0  0.16369082192E+01  0.45152039694E+02 -0.17386896648E+02  0.48411675576E+02  0.00000000000E+00 0.  1.
         12    1    6    6    0    0 -0.17383869419E+03  0.19531773549E+03 -0.12833301120E+03  0.29127010001E+03  0.00000000000E+00 0. -1.
         -5    1    3    3    0  503  0.16891263288E+03 -0.32139210114E+03 -0.42995662056E+02  0.36564337431E+03  0.47000000000E+01 0.  1.
         11    1    4    4    0    0  0.33839871699E+02 -0.73708529860E+02 -0.22552001267E+02  0.84182403457E+02  0.00000000000E+00 0. -1.
        -12    1    4    4    0    0 -0.60078621203E+01 -0.52537039979E+02  0.44617094120E+02  0.69187571606E+02  0.00000000000E+00 0.  1.
</event>
<event>
12    1  0.1039610E+000  0.1946899E+03  0.7818608E-02  0.1154470E+00
         21   -1    0    0  503  502  0.00000000000E+00  0.00000000000E+00  0.13625114216E+03  0.13625114216E+03  0.00000000000E+00 0. -1.
         21   -1    0    0  501  503 -0.00000000000E+00 -0.00000000000E+00 -0.27980498481E+03  0.27980498481E+03  0.00000000000E+00 0. -1.
          6    2    1    2  501    0  0.79362730841E+02  0.42373146689E+02 -0.92466373390E+02  0.21553232245E+03  0.17265637899E+03 0.  0.
         24    2    3    3    0    0  0.52934460679E+02 -0.70092984838E+01 -0.12007790176E+03  0.15290991549E+03  0.78176418246E+02 0.  0.
         -6    2    1    2    0  502 -0.79362730841E+02 -0.42373146689E+02 -0.51087469267E+02  0.20052380452E+03  0.17177293168E+03 0.  0.
        -24    2    5    5    0    0 -0.49919060752E+02 -0.95810985713E+02 -0.40234730757E+02  0.13837556013E+03  0.76533028635E+02 0.  0.
          5    1    3    3  501    0  0.26428270162E+02  0.49382445172E+02  0.27611528372E+02  0.62622406964E+02  0.47000000000E+01 0. -1.
        -11    1    4    4    0    0  0.30998792001E+02 -0.41455685612E+02 -0.51022154207E+02  0.72682592105E+02  0.00000000000E+00 0.  1.
         12    1    4    4    0    0  0.21935668677E+02  0.34446387129E+02 -0.69055747555E+02  0.80227323381E+02  0.00000000000E+00 0. -1.
         -5    1    5    5    0  502 -0.29443670089E+02  0.53437839025E+02 -0.10852738510E+02  0.62148244393E+02  0.47000000000E+01 0.  1.
         11    1    6    6    0    0 -0.41603375378E+02 -0.63750505788E+01 -0.73649269249E+01  0.42728494723E+02  0.00000000000E+00 0. -1.
        -12    1    6    6    0    0 -0.83156853745E+01 -0.89435935135E+02 -0.32869803832E+02  0.95647065405E+02  0.00000000000E+00 0.  1.
</event>
<event>
12    1  0.1039610E+000  0.2310837E+03  0.7818608E-02  0.1126157E+00
         21   -1    0    0  503  502  0.00000000000E+00  0.00000000000E+00  0.11189674387E+03  0.11189674387E+03  0.00000000000E+00 0.  1.
         21   -1    0    0  501  503 -0.00000000000E+00 -0.00000000000E+00 -0.50067125433E+03  0.50067125433E+03  0.00000000000E+00 0.  1.
          6    2    1    2  501    0 -0.10062137455E+03 -0.11389798352E+03 -0.12427104599E+03  0.26237944985E+03  0.17407547549E+03 0.  0.
         24    2    3    3    0    0 -0.49063406439E+02 -0.99061645585E+02 -0.15136809913E+03  0.20209113185E+03  0.75551946750E+02 0.  0.
         -6    2    1    2    0  502  0.10062137455E+03  0.11389798352E+03 -0.26450346447E+03  0.35018854834E+03  0.17196663923E+03 0.  0.
        -24    2    5    5    0    0  0.10779404653E+03  0.13191614814E+03 -0.27072676304E+03  0.32928589481E+03  0.78197146254E+02 0.  0.
          5    1    3    3  501    0 -0.51557968109E+02 -0.14836337934E+02  0.27097053144E+02  0.60288318005E+02  0.47000000000E+01 0. -1.
        -11    1    4    4    0    0 -0.25212866149E+02 -0.50989184456E+02 -0.20187232239E+02  0.60358180029E+02  0.00000000000E+00 0.  1.
         12    1    4    4    0    0 -0.23850540290E+02 -0.48072461129E+02 -0.13118086690E+03  0.14173295182E+03  0.00000000000E+00 0. -1.
         -5    1    5    5    0  502 -0.71726719865E+01 -0.18018164624E+02  0.62232985709E+01  0.20902653538E+02  0.47000000000E+01 0.  1.
         13    1    6    6    0    0  0.33339145477E+02 -0.11457174606E+01 -0.66716880520E+02  0.74591912671E+02  0.00000000000E+00 0. -1.
        -14    1    6    6    0    0  0.74454901057E+02  0.13306186560E+03 -0.20400988252E+03  0.25469398213E+03  0.00000000000E+00 0.  1.
</event>
<event>
12    1  0.1039610E+000  0.2203150E+03  0.7818608E-02  0.1134711E+00
         21   -1    0    0  501  502  0.00000000000E+00  0.00000000000E+00  0.44787959186E+02  0.44787959186E+02  0.00000000000E+00 0.  1.
         21   -1    0    0  502  503 -0.00000000000E+00 -0.00000000000E+00 -0.13389244976E+04  0.13389244976E+04  0.00000000000E+00 0.  1.
         -6    2    1    2    0  503  0.18294298468E+02 -0.12687544061E+03 -0.32255885495E+03  0.38746855684E+03  0.17220803944E+03 0.  0.
        -24    2    3    3    0    0 -0.45377755123E+02 -0.43951668989E+02 -0.21257582997E+03  0.23565011892E+03  0.79696958499E+02 0.  0.
          6    2    1    2  501    0 -0.18294298468E+02  0.12687544061E+03 -0.97157768347E+03  0.99624389996E+03  0.17918329830E+03 0.  0.
         24    2    5    5    0    0 -0.21684520728E+02 -0.77772783383E+01 -0.33901212917E+03  0.34947955430E+03  0.81706980412E+02 0.  0.
          5    1    5    5  501    0  0.33902222597E+01  0.13465271895E+03 -0.63256555430E+03  0.64676434566E+03  0.47000000000E+01 0. -1.
        -13    1    6    6    0    0 -0.50662693078E+02 -0.61911123434E+01 -0.26708757172E+03  0.27192059376E+03  0.00000000000E+00 0.  1.
         14    1    6    6    0    0  0.28978172350E+02 -0.15861659950E+01 -0.71924557455E+02  0.77558960543E+02  0.00000000000E+00 0. -1.
         -5    1    3    3    0  503  0.63672053591E+02 -0.82923771620E+02 -0.10998302498E+03  0.15181843792E+03  0.47000000000E+01 0.  1.
         11    1    4    4    0    0  0.99514787277E+00 -0.11005050876E+02  0.39820674837E+01  0.11745566207E+02  0.00000000000E+00 0. -1.
        -12    1    4    4    0    0 -0.46372902996E+02 -0.32946618113E+02 -0.21655789745E+03  0.22390455272E+03  0.00000000000E+00 0.  1.
</event>
<event>
12    1  0.1039610E+000  0.2783494E+03  0.7818608E-02  0.1096750E+00
         21   -1    0    0  503  502  0.00000000000E+00  0.00000000000E+00  0.43026744628E+02  0.43026744628E+02  0.00000000000E+00 0.  1.
         21   -1    0    0  501  503 -0.00000000000E+00 -0.00000000000E+00 -0.18768155802E+04  0.18768155802E+04  0.00000000000E+00 0.  1.
          6    2    1    2  501    0 -0.11902162975E+02  0.21833322122E+03 -0.71273956188E+03  0.76475365416E+03  0.17040954055E+03 0.  0.
         24    2    3    3    0    0 -0.41236377225E+02  0.59303968108E+02 -0.37488777140E+03  0.39016491727E+03  0.80438933891E+02 0.  0.
         -6    2    1    2    0  502  0.11902162975E+02 -0.21833322122E+03 -0.11210492737E+04  0.11550886707E+04  0.17224199861E+03 0.  0.
        -24    2    5    5    0    0 -0.14814707487E+02 -0.39771523964E+02 -0.23694230198E+03  0.25272217178E+03  0.76977866704E+02 0.  0.
          5    1    3    3  501    0  0.29334214250E+02  0.15902925312E+03 -0.33785179048E+03  0.37458873689E+03  0.47000000000E+01 0. -1.
        -11    1    4    4    0    0 -0.58122349374E+02  0.18431398720E+02 -0.17127492194E+03  0.18180490323E+03  0.00000000000E+00 0.  1.
         12    1    4    4    0    0  0.16885972149E+02  0.40872569387E+02 -0.20361284946E+03  0.20836001404E+03  0.00000000000E+00 0. -1.
         -5    1    5    5    0  502  0.26716870462E+02 -0.17856169726E+03 -0.88410697172E+03  0.90236649891E+03  0.47000000000E+01 0.  1.
         13    1    6    6    0    0  0.23522312037E+02 -0.42941424432E+02 -0.14553222512E+03  0.15354769176E+03  0.00000000000E+00 0. -1.
        -14    1    6    6    0    0 -0.38337019524E+02  0.31699004682E+01 -0.91410076863E+02  0.99174480019E+02  0.00000000000E+00 0.  1.
</event>
<event>
12    1  0.1039610E+000  0.1887566E+03  0.7818608E-02  0.1159821E+00
         21   -1    0    0  503  502  0.00000000000E+00  0.00000000000E+00  0.26633576708E+03  0.26633576708E+03  0.00000000000E+00 0. -1.
         21   -1    0    0  501  503 -0.00000000000E+00 -0.00000000000E+00 -0.13309162419E+03  0.13309162419E+03  0.00000000000E+00 0. -1.
          6    2    1    2  501    0 -0.44720599428E+02  0.60585557112E+02  0.63367556767E+02  0.19910926256E+03  0.17308526640E+03 0.  0.
         24    2    3    3    0    0 -0.90046720521E+02  0.13005095526E+02  0.31728017873E+02  0.12602364155E+03  0.81226514909E+02 0.  0.
         -6    2    1    2    0  502  0.44720599428E+02 -0.60585557112E+02  0.69876586124E+02  0.20031812872E+03  0.17197114194E+03 0.  0.
        -24    2    5    5    0    0  0.89075982201E+02 -0.71265200217E+02  0.67917627389E+02  0.15441189518E+03  0.78847764057E+02 0.  0.
          5    1    3    3  501    0  0.45326121093E+02  0.47580461586E+02  0.31639538894E+02  0.73085621017E+02  0.47000000000E+01 0. -1.
        -13    1    4    4    0    0 -0.47860308417E+02 -0.98552280944E+01  0.54255443348E+02  0.73016352795E+02  0.00000000000E+00 0.  1.
         14    1    4    4    0    0 -0.42186412104E+02  0.22860323620E+02 -0.22527425475E+02  0.53007288751E+02  0.00000000000E+00 0. -1.
         -5    1    5    5    0  502 -0.44355382773E+02  0.10679643105E+02  0.19589587348E+01  0.45906233533E+02  0.47000000000E+01 0.  1.
         13    1    6    6    0    0  0.58291122089E+02 -0.66939983555E+02  0.10846143097E+02  0.89422900495E+02  0.00000000000E+00 0. -1.
        -14    1    6    6    0    0  0.30784860113E+02 -0.43252166617E+01  0.57071484292E+02  0.64988994689E+02  0.00000000000E+00 0.  1.
</event>
<event>
12    1  0.1039610E+000  0.1821845E+03  0.7818608E-02  0.1167511E+00
         21   -1    0    0  501  502  0.00000000000E+00  0.00000000000E+00  0.81614755404E+02  0.81614755404E+02  0.00000000000E+00 0. -1.
         21   -1    0    0  502  503 -0.00000000000E+00 -0.00000000000E+00 -0.40176874137E+03  0.40176874137E+03  0.00000000000E+00 0. -1.
         -6    2    1    2    0  503  0.41268019463E+02 -0.37321690995E+02 -0.11602681409E+03  0.20977957380E+03  0.16567827241E+03 0.  0.
        -24    2    3    3    0    0 -0.36373070105E+01  0.21297986125E+02 -0.88189770786E+02  0.13072423957E+03  0.94045504536E+02 0.  0.
          6    2    1    2  501    0 -0.41268019463E+02  0.37321690995E+02 -0.20412717187E+03  0.27360392297E+03  0.17347981530E+03 0.  0.
         24    2    5    5    0    0 -0.47943911950E+02  0.50398996179E+02 -0.47880652595E+02  0.11659867389E+03  0.80399106658E+02 0.  0.
          5    1    5    5  501    0  0.66758924862E+01 -0.13077305184E+02 -0.15624651928E+03  0.15700524908E+03  0.47000000000E+01 0. -1.
        -13    1    6    6    0    0  0.22472654819E+02  0.11838204141E+02 -0.62243671675E+01  0.26151597246E+02  0.00000000000E+00 0.  1.
         14    1    6    6    0    0 -0.70416566768E+02  0.38560792038E+02 -0.41656285427E+02  0.90447076645E+02  0.00000000000E+00 0. -1.
         -5    1    3    3    0  503  0.44905326474E+02 -0.58619677120E+02 -0.27837043304E+02  0.79055334237E+02  0.47000000000E+01 0.  1.
         11    1    4    4    0    0  0.13582938855E+02  0.23057161776E+02  0.11800379703E+02  0.29246844244E+02  0.00000000000E+00 0. -1.
        -12    1    4    4    0    0 -0.17220245866E+02 -0.17591756505E+01 -0.99990150488E+02  0.10147739532E+03  0.00000000000E+00 0.  1.
</event>
<event>
12    1  0.1039610E+000  0.4600097E+03  0.7818608E-02  0.1024841E+00
         21   -1    0    0  503  502  0.00000000000E+00  0.00000000000E+00  0.80238431874E+03  0.80238431874E+03  0.00000000000E+00 0.  1.
         21   -1    0    0  501  503 -0.00000000000E+00 -0.00000000000E+00 -0.30635534077E+03  0.30635534077E+03  0.00000000000E+00 0.  1.
          6    2    1    2  501    0  0.96103959107E+02  0.41579420924E+03  0.45620611118E+03  0.64786798897E+03  0.17172105249E+03 0.  0.
         24    2    3    3    0    0  0.34770600529E+02  0.10134618672E+03  0.89644835861E+02  0.16101215990E+03  0.80054199237E+02 0.  0.
         -6    2    1    2    0  502 -0.96103959107E+02 -0.41579420924E+03  0.39822866787E+02  0.46087167054E+03  0.16939905722E+03 0.  0.
        -24    2    5    5    0    0 -0.72669509138E+02 -0.42113831444E+03  0.35464226953E+02  0.43599556459E+03  0.78715205015E+02 0.  0.
          5    1    3    3  501    0  0.61333358577E+02  0.31444802252E+03  0.36656127532E+03  0.48685582907E+03  0.47000000000E+01 0. -1.
        -13    1    4    4    0    0  0.10125758575E+02  0.10569445902E+03  0.83925153652E+02  0.13534135018E+03  0.00000000000E+00 0.  1.
         14    1    4    4    0    0  0.24644841955E+02 -0.43482722990E+01  0.57196822092E+01  0.25670809717E+02  0.00000000000E+00 0. -1.
         -5    1    5    5    0  502 -0.23434449968E+02  0.53441052011E+01  0.43586398335E+01  0.24876105944E+02  0.47000000000E+01 0.  1.
         11    1    6    6    0    0 -0.65909102839E+02 -0.27438645017E+03  0.55896342416E+02  0.28767400816E+03  0.00000000000E+00 0. -1.
        -12    1    6    6    0    0 -0.67604062988E+01 -0.14675186427E+03 -0.20432115463E+02  0.14832155644E+03  0.00000000000E+00 0.  1.
</event>
<event>
12    1  0.1039610E+000  0.3189293E+03  0.7818608E-02  0.1076153E+00
         21   -1    0    0  503  502  0.00000000000E+00  0.00000000000E+00  0.50305069452E+03  0.50305069452E+03  0.00000000000E+00 0. -1.
         21   -1    0    0  501  503 -0.00000000000E+00 -0.00000000000E+00 -0.20222235172E+03  0.20222235172E+03  0.00000000000E+00 0. -1.
          6    2    1    2  501    0  0.19202832203E+03 -0.18908546452E+03  0.14351792573E+03  0.34965742527E+03  0.17039580595E+03 0.  0.
         24    2    3    3    0    0  0.21253847051E+03 -0.14966067759E+03  0.10858511320E+03  0.29293554759E+03  0.80309329287E+02 0.  0.
         -6    2    1    2    0  502 -0.19202832203E+03  0.18908546452E+03  0.15731041707E+03  0.35561562097E+03  0.17055120405E+03 0.  0.
        -24    2    5    5    0    0 -0.25172454476E+02  0.35616216892E+02  0.65108875860E+02  0.11083632301E+03  0.78379572679E+02 0.  0.
          5    1    3    3  501    0 -0.20510148487E+02 -0.39424786936E+02  0.34932812522E+02  0.56721877672E+02  0.47000000000E+01 0. -1.
        -11    1    4    4    0    0  0.19387250834E+03 -0.14805209182E+03  0.11909023828E+03  0.27145617738E+03  0.00000000000E+00 0.  1.
         12    1    4    4    0    0  0.18665962175E+02 -0.16085857700E+01 -0.10505125078E+02  0.21479370219E+02  0.00000000000E+00 0. -1.
         -5    1    5    5    0  502 -0.16685586755E+03  0.15346924763E+03  0.92201541210E+02  0.24477929795E+03  0.47000000000E+01 0.  1.
         11    1    6    6    0    0 -0.73242725417E+01 -0.64128549170E+01  0.64438392834E+02  0.65169595268E+02  0.00000000000E+00 0. -1.
        -12    1    6    6    0    0 -0.17848181934E+02  0.42029071809E+02  0.67048302594E+00  0.45666727745E+02  0.00000000000E+00 0.  1.
</event>
<event>
12    1  0.1039610E+000  0.4863708E+03  0.7818608E-02  0.1017479E+00
         21   -1    0    0  503  502  0.00000000000E+00  0.00000000000E+00  0.22296195197E+03  0.22296195197E+03  0.00000000000E+00 0.  1.
         21   -1    0    0  501  503 -0.00000000000E+00 -0.00000000000E+00 -0.18826816442E+04  0.18826816442E+04  0.00000000000E+00 0.  1.
          6    2    1    2  501    0 -0.21547256617E+03 -0.40105170733E+03 -0.15270631769E+04  0.16026473441E+04  0.17113054769E+03 0.  0.
         24    2    3    3    0    0 -0.30566388068E+02 -0.12307135804E+03 -0.37706720997E+03  0.40515989806E+03  0.76772383793E+02 0.  0.
         -6    2    1    2    0  502  0.21547256617E+03  0.40105170733E+03 -0.13265651524E+03  0.50299625206E+03  0.16773961913E+03 0.  0.
        -24    2    5    5    0    0  0.16004741017E+03  0.31874714650E+03 -0.16128284174E+03  0.39961566772E+03  0.80409016520E+02 0.  0.
          5    1    3    3  501    0 -0.18490617811E+03 -0.27798034929E+03 -0.11499959670E+04  0.11974874460E+04  0.47000000000E+01 0. -1.
        -13    1    4    4    0    0 -0.19924272609E+02  0.30125620542E+01 -0.75044754992E+02  0.77703072146E+02  0.00000000000E+00 0.  1.
         14    1    4    4    0    0 -0.10642115459E+02 -0.12608392009E+03 -0.30202245498E+03  0.32745682591E+03  0.00000000000E+00 0. -1.
         -5    1    5    5    0  502  0.55425156001E+02  0.82304560822E+02  0.28626326499E+02  0.10338058434E+03  0.47000000000E+01 0.  1.
         13    1    6    6    0    0  0.71132140446E+02  0.10273757693E+03 -0.19805953207E+02  0.12651903770E+03  0.00000000000E+00 0. -1.
        -14    1    6    6    0    0  0.88915269727E+02  0.21600956957E+03 -0.14147688853E+03  0.27309663001E+03  0.00000000000E+00 0.  1.
</event>
<event>
12    1  0.1039610E+000  0.2184878E+03  0.7818608E-02  0.1135112E+00
         21   -1    0    0  503  502  0.00000000000E+00  0.00000000000E+00  0.19856743549E+03  0.19856743549E+03  0.00000000000E+00 0. -1.
         21   -1    0    0  501  503 -0.00000000000E+00 -0.00000000000E+00 -0.30741250754E+03  0.30741250754E+03  0.00000000000E+00 0. -1.
          6    2    1    2  501    0 -0.40915379580E+02  0.12978123196E+03 -0.17308233591E+03  0.27873714523E+03  0.17093760461E+03 0.  0.
         24    2    3    3    0    0 -0.54273651428E+02  0.39268881188E+02 -0.15256164316E+03  0.18485361153E+03  0.80050786767E+02 0.  0.
         -6    2    1    2    0  502  0.40915379580E+02 -0.12978123196E+03  0.64237263869E+02  0.22724279780E+03  0.17028102251E+03 0.  0.
        -24    2    5    5    0    0  0.30447886704E+02 -0.25677939678E+02 -0.22588997158E+02  0.91198858297E+02  0.78870390966E+02 0.  0.
          5    1    3    3  501    0  0.13358271848E+02  0.90512350774E+02 -0.20520692754E+02  0.93883533703E+02  0.47000000000E+01 0. -1.
        -11    1    4    4    0    0 -0.25177420472E+01  0.50440638999E+02 -0.62192857603E+02  0.80115845028E+02  0.00000000000E+00 0.  1.
         12    1    4    4    0    0 -0.51755909381E+02 -0.11171757811E+02 -0.90368785556E+02  0.10473776650E+03  0.00000000000E+00 0. -1.
         -5    1    5    5    0  502  0.10467492876E+02 -0.10410329228E+03  0.86826261028E+02  0.13604393950E+03  0.47000000000E+01 0.  1.
         13    1    6    6    0    0  0.38904481691E+02 -0.49362375193E+02 -0.19800521517E+02  0.65895852925E+02  0.00000000000E+00 0. -1.
        -14    1    6    6    0    0 -0.84565949873E+01  0.23684435515E+02 -0.27884756416E+01  0.25303005372E+02  0.00000000000E+00 0.  1.
</event>
<event>
12    1  0.1039610E+000  0.3140130E+03  0.7818608E-02  0.1078503E+00
         21   -1    0    0  501  502  0.00000000000E+00  0.00000000000E+00  0.61091674106E+03  0.61091674106E+03  0.00000000000E+00 0. -1.
         21   -1    0    0  502  503 -0.00000000000E+00 -0.00000000000E+00 -0.17879781167E+03  0.17879781167E+03  0.00000000000E+00 0. -1.
         -6    2    1    2    0  503 -0.21986873657E+03  0.14568547507E+03  0.34037954494E+03  0.46310084733E+03  0.17040434626E+03 0.  0.
        -24    2    3    3    0    0 -0.38382653032E+02  0.84013428442E+02  0.16161269491E+03  0.20095524557E+03  0.75715674443E+02 0.  0.
          6    2    1    2  501    0  0.21986873657E+03 -0.14568547507E+03  0.91739384459E+02  0.32661370540E+03  0.16939267673E+03 0.  0.
         24    2    5    5    0    0  0.30913021483E+02 -0.65937446311E+02  0.38622467730E+02  0.11469979081E+03  0.79755785217E+02 0.  0.
          5    1    5    5  501    0  0.18895571508E+03 -0.79748028759E+02  0.53116916729E+02  0.21191391459E+03  0.47000000000E+01 0. -1.
        -11    1    6    6    0    0  0.57042741088E+02 -0.54197484371E+02  0.33860267380E+02  0.85660722213E+02  0.00000000000E+00 0.  1.
         12    1    6    6    0    0 -0.26129719604E+02 -0.11739961939E+02  0.47622003499E+01  0.29039068599E+02  0.00000000000E+00 0. -1.
         -5    1    3    3    0  503 -0.18148608353E+03  0.61672046627E+02  0.17876685003E+03  0.26214560176E+03  0.47000000000E+01 0.  1.
         11    1    4    4    0    0 -0.38273349871E+02  0.45716778589E+01  0.38825149957E+02  0.54709613579E+02  0.00000000000E+00 0. -1.
        -12    1    4    4    0    0 -0.10930316127E+00  0.79441750583E+02  0.12278754495E+03  0.14624563200E+03  0.00000000000E+00 0.  1.
</event>
<event>
12    1  0.1039610E+000  0.2079773E+03  0.7818608E-02  0.1143415E+00
         21   -1    0    0  501  502  0.00000000000E+00  0.00000000000E+00  0.47676674251E+02  0.47676674251E+02  0.00000000000E+00 0.  1.
         21   -1    0    0  502  503 -0.00000000000E+00 -0.00000000000E+00 -0.92332493747E+03  0.92332493747E+03  0.00000000000E+00 0.  1.
         -6    2    1    2    0  503 -0.74646758885E+02  0.90691155010E+02 -0.51262348688E+03  0.55320646418E+03  0.17163195652E+03 0.  0.
        -24    2    3    3    0    0 -0.47954761235E+02  0.11701941070E+03 -0.28247886722E+03  0.31998065998E+03  0.81241065534E+02 0.  0.
          6    2    1    2  501    0  0.74646758885E+02 -0.90691155010E+02 -0.36302477633E+03  0.41779514754E+03  0.17020215294E+03 0.  0.
         24    2    5    5    0    0  0.44044427831E+02  0.91072425015E+01 -0.11550471214E+03  0.14912342407E+03  0.82907198668E+02 0.  0.
          5    1    5    5  501    0  0.30602331054E+02 -0.99798397511E+02 -0.24752006419E+03  0.26867172347E+03  0.47000000000E+01 0. -1.
        -11    1    6    6    0    0  0.27585947602E+02  0.24769435698E+02 -0.12031710350E+03  0.12589962210E+03  0.00000000000E+00 0.  1.
         12    1    6    6    0    0  0.16458480229E+02 -0.15662193197E+02  0.48123913649E+01  0.23223801967E+02  0.00000000000E+00 0. -1.
         -5    1    3    3    0  503 -0.26691997650E+02 -0.26328255692E+02 -0.23014461966E+03  0.23322580420E+03  0.47000000000E+01 0.  1.
         13    1    4    4    0    0 -0.46895553444E+02  0.37290798314E+02 -0.65275138690E+02  0.88603839097E+02  0.00000000000E+00 0. -1.
        -14    1    4    4    0    0 -0.10592077909E+01  0.79728612388E+02 -0.21720372853E+03  0.23137682089E+03  0.00000000000E+00 0.  1.
</event>
<event>
12    1  0.1039610E+000  0.2995784E+03  0.7818608E-02  0.1085479E+00
         21   -1    0    0  501  502  0.00000000000E+00  0.00000000000E+00  0.15352291997E+03  0.15352291997E+03  0.00000000000E+00 0. -1.
         21   -1    0    0  502  503 -0.00000000000E+00 -0.00000000000E+00 -0.77204329664E+03  0.77204329664E+03  0.00000000000E+00 0.  1.
         -6    2    1    2    0  503 -0.22449672908E+03  0.97135851327E+02 -0.53764573321E+03  0.61547556236E+03  0.17295397781E+03 0.  0.
        -24    2    3    3    0    0 -0.13117716642E+03  0.65842776073E+02 -0.46229033722E+03  0.49142588264E+03  0.79021023090E+02 0.  0.
          6    2    1    2  501    0  0.22449672908E+03 -0.97135851327E+02 -0.80874643465E+02  0.31009065425E+03  0.17257274094E+03 0.  0.
         24    2    5    5    0    0  0.10727168899E+03 -0.12053240386E+03 -0.42977967766E+02  0.18460218177E+03  0.78712033148E+02 0.  0.
          5    1    5    5  501    0  0.11722504009E+03  0.23396552537E+02 -0.37896675698E+02  0.12548847247E+03  0.47000000000E+01 0. -1.
        -13    1    6    6    0    0  0.40223594075E+02 -0.42952907229E+02 -0.56008751317E+02  0.81239583848E+02  0.00000000000E+00 0.  1.
         14    1    6    6    0    0  0.67048094916E+02 -0.77579496636E+02  0.13030783551E+02  0.10336259793E+03  0.00000000000E+00 0. -1.
         -5    1    3    3    0  503 -0.93319562658E+02  0.31293075255E+02 -0.75355395991E+02  0.12404967972E+03  0.47000000000E+01 0.  1.
         11    1    4    4    0    0 -0.71308029139E+02  0.73634784871E+02 -0.23764093636E+03  0.25880519932E+03  0.00000000000E+00 0. -1.
        -12    1    4    4    0    0 -0.59869137285E+02 -0.77920087980E+01 -0.22464940086E+03  0.23262068332E+03  0.00000000000E+00 0.  1.
</event>
<event>
12    1  0.1039610E+000  0.6250062E+03  0.7818608E-02  0.9855779E-01
         21   -1    0    0  501  502  0.00000000000E+00  0.00000000000E+00  0.45697845745E+03  0.45697845745E+03  0.00000000000E+00 0. -1.
         21   -1    0    0  502  503 -0.00000000000E+00 -0.00000000000E+00 -0.86074316601E+03  0.86074316601E+03  0.00000000000E+00 0. -1.
         -6    2    1    2    0  503  0.20648669653E+03  0.56246240896E+03 -0.26773740151E+03  0.67993831036E+03  0.17785407611E+03 0.  0.
        -24    2    3    3    0    0  0.16936896233E+02  0.14414039381E+03 -0.85981136570E+02  0.18599513043E+03  0.78346162107E+02 0.  0.
          6    2    1    2  501    0 -0.20648669653E+03 -0.56246240896E+03 -0.13602730704E+03  0.63778331310E+03  0.17106551044E+03 0.  0.
         24    2    5    5    0    0 -0.19207913189E+03 -0.55385601274E+03 -0.15555949883E+03  0.61160613810E+03  0.78818999776E+02 0.  0.
          5    1    5    5  501    0 -0.14407564638E+02 -0.86063962199E+01  0.19532191788E+02  0.26177174996E+02  0.47000000000E+01 0. -1.
        -11    1    6    6    0    0 -0.90963382266E+02 -0.35038415287E+03 -0.12156287420E+03  0.38186505978E+03  0.00000000000E+00 0.  1.
         12    1    6    6    0    0 -0.10111574962E+03 -0.20347185987E+03 -0.33996624631E+02  0.22974107832E+03  0.00000000000E+00 0. -1.
         -5    1    3    3    0  503  0.18954980029E+03  0.41832201515E+03 -0.18175626494E+03  0.49394317993E+03  0.47000000000E+01 0.  1.
         11    1    4    4    0    0  0.84050591400E+01 -0.12447725832E+01 -0.27968469619E+02  0.29230630694E+02  0.00000000000E+00 0. -1.
        -12    1    4    4    0    0  0.85318370934E+01  0.14538516640E+03 -0.58012666951E+02  0.15676449974E+03  0.00000000000E+00 0.  1.
</event>
<event>
12    1  0.1039610E+000  0.4082055E+03  0.7818608E-02  0.1040977E+00
         21   -1    0    0  501  502  0.00000000000E+00  0.00000000000E+00  0.16318434940E+03  0.16318434940E+03  0.00000000000E+00 0.  1.
         21   -1    0    0  502  503 -0.00000000000E+00 -0.00000000000E+00 -0.10326813915E+04  0.10326813915E+04  0.00000000000E+00 0.  1.
         -6    2    1    2    0  503 -0.29114494549E+03  0.22749822757E+03 -0.37134406893E+03  0.55182525034E+03  0.17347583853E+03 0.  0.
        -24    2    3    3    0    0 -0.97609456473E+02  0.15447452218E+03 -0.21070943453E+03  0.28988246493E+03  0.79015148431E+02 0.  0.
          6    2    1    2  501    0  0.29114494549E+03 -0.22749822757E+03 -0.49815297319E+03  0.64404049058E+03  0.17352505863E+03 0.  0.
         24    2    5    5    0    0  0.30798256159E+03 -0.22550253729E+03 -0.48247095710E+03  0.62047136407E+03  0.80633966876E+02 0.  0.
          5    1    5    5  501    0 -0.16837616104E+02 -0.19956902797E+01 -0.15682016096E+02  0.23569126513E+02  0.47000000000E+01 0. -1.
        -11    1    6    6    0    0  0.14796857279E+03 -0.60680223058E+02 -0.21342718560E+03  0.26669824063E+03  0.00000000000E+00 0.  1.
         12    1    6    6    0    0  0.16001398880E+03 -0.16482231424E+03 -0.26904377150E+03  0.35377312343E+03  0.00000000000E+00 0. -1.
         -5    1    3    3    0  503 -0.19353548902E+03  0.73023705397E+02 -0.16063463440E+03  0.26194278541E+03  0.47000000000E+01 0.  1.
         11    1    4    4    0    0 -0.67992196754E+02  0.11514914920E+03 -0.19818999176E+03  0.23908479294E+03  0.00000000000E+00 0. -1.
        -12    1    4    4    0    0 -0.29617259719E+02  0.39325372976E+02 -0.12519442773E+02  0.50797671997E+02  0.00000000000E+00 0.  1.
</event>
<event>
12    1  0.1039610E+000  0.2510008E+03  0.7818608E-02  0.1113944E+00
         21   -1    0    0  501  502  0.00000000000E+00  0.00000000000E+00  0.17214051958E+03  0.17214051958E+03  0.00000000000E+00 0. -1.
         21   -1    0    0  502  503 -0.00000000000E+00 -0.00000000000E+00 -0.80929875279E+03  0.80929875279E+03  0.00000000000E+00 0. -1.
         -6    2    1    2    0  503 -0.13506624894E+03 -0.10634182912E+03  0.51509700054E+02  0.24845568509E+03  0.17182986361E+03 0.  0.
        -24    2    3    3    0    0 -0.85668025227E+02 -0.65257252359E+02 -0.36931223626E+02  0.13903898647E+03  0.79814816604E+02 0.  0.
          6    2    1    2  501    0  0.13506624894E+03  0.10634182912E+03 -0.68866793327E+03  0.73298358728E+03  0.18289324941E+03 0.  0.
         24    2    5    5    0    0  0.21001561353E+02 -0.18449985183E+01 -0.35543462098E+03  0.36449793891E+03  0.77977612700E+02 0.  0.
          5    1    5    5  501    0  0.11406468759E+03  0.10818682764E+03 -0.33323331229E+03  0.36848564836E+03  0.47000000000E+01 0. -1.
        -11    1    6    6    0    0  0.27260971407E+02  0.12187473757E+02 -0.47019745873E+02  0.55700552786E+02  0.00000000000E+00 0.  1.
         12    1    6    6    0    0 -0.62594100547E+01 -0.14032472275E+02 -0.30841487511E+03  0.30879738613E+03  0.00000000000E+00 0. -1.
         -5    1    3    3    0  503 -0.49398223717E+02 -0.41084576764E+02  0.88440923681E+02  0.10941669861E+03  0.47000000000E+01 0.  1.
         11    1    4    4    0    0  0.88457007256E+01 -0.13359917420E+02 -0.26160730391E+02  0.30677640544E+02  0.00000000000E+00 0. -1.
        -12    1    4    4    0    0 -0.94513725952E+02 -0.51897334939E+02 -0.10770493235E+02  0.10836134593E+03  0.00000000000E+00 0.  1.
</event>
<event>
12    1  0.1039610E+000  0.1740266E+03  0.7818608E-02  0.1174220E+00
         21   -1    0    0  503  502  0.00000000000E+00  0.00000000000E+00  0.25687345471E+03  0.25687345471E+03  0.00000000000E+00 0.  1.
         21   -1    0    0  501  503 -0.00000000000E+00 -0.00000000000E+00 -0.11658198034E+03  0.11658198034E+03  0.00000000000E+00 0.  1.
          6    2    1    2  501    0 -0.10049407385E+02  0.22828380669E+02  0.73587488036E+02  0.18894540048E+03  0.17222984763E+03 0.  0.
         24    2    3    3    0    0 -0.65034766865E+02 -0.10733759900E+02  0.22599301567E+02  0.10665510824E+03  0.80745583041E+02 0.  0.
         -6    2    1    2    0  502  0.10049407385E+02 -0.22828380669E+02  0.66703986332E+02  0.18451003456E+03  0.17021282416E+03 0.  0.
        -24    2    5    5    0    0  0.90874507922E+00 -0.77807194330E+02  0.62662927677E+02  0.12843292859E+03  0.80706810958E+02 0.  0.
          5    1    3    3  501    0  0.54985359480E+02  0.33562140569E+02  0.50988186469E+02  0.82290292235E+02  0.47000000000E+01 0. -1.
        -11    1    4    4    0    0 -0.37473843860E+01 -0.17384204409E+02 -0.23648335066E+02  0.29588802005E+02  0.00000000000E+00 0.  1.
         12    1    4    4    0    0 -0.61287382479E+02  0.66504445093E+01  0.46247636634E+02  0.77066306240E+02  0.00000000000E+00 0. -1.
         -5    1    5    5    0  502  0.91406623058E+01  0.54978813661E+02  0.40410586542E+01  0.56077105970E+02  0.47000000000E+01 0.  1.
         11    1    6    6    0    0 -0.18131785549E+01 -0.66756882334E+02  0.82147775933E+02  0.10586796515E+03  0.00000000000E+00 0. -1.
        -12    1    6    6    0    0  0.27219236341E+01 -0.11050311997E+02 -0.19484848255E+02  0.22564963439E+02  0.00000000000E+00 0.  1.
</event>
<event>
12    1  0.1039610E+000  0.1920972E+03  0.7818608E-02  0.1160642E+00
         21   -1    0    0  501  502  0.00000000000E+00  0.00000000000E+00  0.79840281807E+02  0.79840281807E+02  0.00000000000E+00 0.  1.
         21   -1    0    0  502  503 -0.00000000000E+00 -0.00000000000E+00 -0.44101228442E+03  0.44101228442E+03  0.00000000000E+00 0.  1.
         -6    2    1    2    0  503 -0.63163415709E+02  0.58390967375E+02 -0.22732568906E+03  0.28672400976E+03  0.15210051516E+03 0.  0.
        -24    2    3    3    0    0 -0.50683474087E+02  0.69727426749E+02 -0.88992329913E+02  0.14728774293E+03  0.79644936109E+02 0.  0.
          6    2    1    2  501    0  0.63163415709E+02 -0.58390967375E+02 -0.13384631355E+03  0.23412855647E+03  0.17176211208E+03 0.  0.
         24    2    5    5    0    0  0.56642982419E+02  0.26457958370E+02 -0.45687097731E+02  0.11150721418E+03  0.80237752315E+02 0.  0.
          5    1    5    5  501    0  0.65204332906E+01 -0.84848925745E+02 -0.88159215819E+02  0.12262134229E+03  0.47000000000E+01 0. -1.
        -13    1    6    6    0    0 -0.14288387798E+02 -0.59865279150E+01  0.73874821237E+01  0.17163083478E+02  0.00000000000E+00 0.  1.
         14    1    6    6    0    0  0.70931370216E+02  0.32444486285E+02 -0.53074579855E+02  0.94344130701E+02  0.00000000000E+00 0. -1.
         -5    1    3    3    0  503 -0.12479941622E+02 -0.11336459374E+02 -0.13833335915E+03  0.13943626683E+03  0.47000000000E+01 0.  1.
         13    1    4    4    0    0 -0.45824215554E+00  0.22573232223E+02  0.11586375317E+02  0.25377251464E+02  0.00000000000E+00 0. -1.
        -14    1    4    4    0    0 -0.50225231931E+02  0.47154194526E+02 -0.10057870523E+03  0.12191049147E+03  0.00000000000E+00 0.  1.
</event>
<event>
12    1  0.1039610E+000  0.2707419E+03  0.7818608E-02  0.1101576E+00
         21   -1    0    0  501  502  0.00000000000E+00  0.00000000000E+00  0.91888440994E+03  0.91888440994E+03  0.00000000000E+00 0.  1.
         21   -1    0    0  502  503 -0.00000000000E+00 -0.00000000000E+00 -0.79064993440E+02  0.79064993440E+02  0.00000000000E+00 0. -1.
         -6    2    1    2    0  503 -0.19061826174E+03  0.87379951354E+02  0.47270422766E+03  0.54474805186E+03  0.17126171652E+03 0.  0.
        -24    2    3    3    0    0 -0.17988512106E+03  0.16338924807E+02  0.36877432457E+03  0.41831410658E+03  0.79790801850E+02 0.  0.
          6    2    1    2  501    0  0.19061826174E+03 -0.87379951354E+02  0.36711518884E+03  0.45320135152E+03  0.16324008558E+03 0.  0.
         24    2    5    5    0    0  0.11597422782E+03  0.60774089527E+01  0.15632971636E+03  0.21079958709E+03  0.80687850881E+02 0.  0.
          5    1    5    5  501    0  0.74644033922E+02 -0.93457360307E+02  0.21078547248E+03  0.24240176444E+03  0.47000000000E+01 0. -1.
        -11    1    6    6    0    0  0.97343977763E+02  0.15811442423E+02  0.67477952704E+02  0.11949529622E+03  0.00000000000E+00 0.  1.
         12    1    6    6    0    0  0.18630250056E+02 -0.97340334708E+01  0.88851763659E+02  0.91304290863E+02  0.00000000000E+00 0. -1.
         -5    1    3    3    0  503 -0.10733140685E+02  0.71041026547E+02  0.10392990309E+03  0.12643394527E+03  0.47000000000E+01 0.  1.
         13    1    4    4    0    0 -0.43309903795E+02 -0.29872985370E+02  0.11442142306E+03  0.12593810018E+03  0.00000000000E+00 0. -1.
        -14    1    4    4    0    0 -0.13657521726E+03  0.46211910177E+02  0.25435290152E+03  0.29237600641E+03  0.00000000000E+00 0.  1.
</event>
<event>
12    1  0.1039610E+000  0.2336547E+03  0.7818608E-02  0.1124790E+00
         21   -1    0    0  501  502  0.00000000000E+00  0.00000000000E+00  0.21677786804E+03  0.21677786804E+03  0.00000000000E+00 0. -1.
         21   -1    0    0  502  503 -0.00000000000E+00 -0.00000000000E+00 -0.26790072103E+03  0.26790072103E+03  0.00000000000E+00 0.  1.
         -6    2    1    2    0  503  0.88083137985E+02  0.12344247164E+03  0.41436339123E+02  0.23335860246E+03  0.17246038427E+03 0.  0.
        -24    2    3    3    0    0  0.78612351774E+02  0.84291154956E+01  0.37366476911E+02  0.11778861647E+03  0.78911043172E+02 0.  0.
          6    2    1    2  501    0 -0.88083137985E+02 -0.12344247164E+03 -0.92559192117E+02  0.25131998661E+03  0.17775783702E+03 0.  0.
         24    2    5    5    0    0  0.64638852176E+01 -0.21817374713E+02 -0.66925694195E+01  0.88035061358E+02  0.84779725710E+02 0.  0.
          5    1    5    5  501    0 -0.94547023202E+02 -0.10162509693E+03 -0.85866622698E+02  0.16328492525E+03  0.47000000000E+01 0. -1.
        -11    1    6    6    0    0 -0.28918798172E+02  0.56206200494E+01 -0.25983490221E+02  0.39281420819E+02  0.00000000000E+00 0.  1.
         12    1    6    6    0    0  0.35382683390E+02 -0.27437994762E+02  0.19290920802E+02  0.48753640539E+02  0.00000000000E+00 0. -1.
         -5    1    3    3    0  503  0.94707862107E+01  0.11501335614E+03  0.40698622128E+01  0.11556998599E+03  0.47000000000E+01 0.  1.
         11    1    4    4    0    0  0.89885568523E+01 -0.24197769008E+02  0.31428333547E+02  0.40670214270E+02  0.00000000000E+00 0. -1.
        -12    1    4    4    0    0  0.69623794922E+02  0.32626884503E+02  0.59381433635E+01  0.77118402203E+02  0.00000000000E+00 0.  1.
</event>
<event>
12    1  0.1039610E+000  0.3106165E+03  0.7818608E-02  0.1080552E+00
         21   -1    0    0  501  502  0.00000000000E+00  0.00000000000E+00  0.70782271882E+03  0.70782271882E+03  0.00000000000E+00 0.  1.
         21   -1    0    0  502  503 -0.00000000000E+00 -0.00000000000E+00 -0.18428742929E+03  0.18428742929E+03  0.00000000000E+00 0.  1.
         -6    2    1    2    0  503  0.13921128296E+03 -0.21777295759E+03  0.31186998508E+02  0.31217818874E+03  0.17227231434E+03 0.  0.
        -24    2    3    3    0    0  0.40884169170E+02 -0.18491176991E+03 -0.78313064898E+01  0.20130620361E+03  0.67815782160E+02 0.  0.
          6    2    1    2  501    0 -0.13921128296E+03  0.21777295759E+03  0.49234829102E+03  0.57993195937E+03  0.16464931055E+03 0.  0.
         24    2    5    5    0    0 -0.76848149031E+01  0.10484643145E+03  0.23734675888E+03  0.27154991790E+03  0.79712253718E+02 0.  0.
          5    1    5    5  501    0 -0.13152646806E+03  0.11292652614E+03  0.25500153214E+03  0.30838204147E+03  0.47000000000E+01 0. -1.
        -13    1    6    6    0    0 -0.27864725476E+02  0.46105273771E+02  0.47571723853E+02  0.71869382255E+02  0.00000000000E+00 0.  1.
         14    1    6    6    0    0  0.20179910573E+02  0.58741157681E+02  0.18977503502E+03  0.19968053564E+03  0.00000000000E+00 0. -1.
         -5    1    3    3    0  503  0.98327113789E+02 -0.32861187682E+02  0.39018304998E+02  0.11087198513E+03  0.47000000000E+01 0.  1.
         11    1    4    4    0    0 -0.15881655733E+02 -0.49012145564E+02 -0.15575368705E+02  0.53823874925E+02  0.00000000000E+00 0. -1.
        -12    1    4    4    0    0  0.56765824903E+02 -0.13589962435E+03  0.77440622156E+01  0.14748232868E+03  0.00000000000E+00 0.  1.
</event>
<event>
12    1  0.1039610E+000  0.2327075E+03  0.7818608E-02  0.1125145E+00
         21   -1    0    0  501  502  0.00000000000E+00  0.00000000000E+00  0.18825287729E+04  0.18825287729E+04  0.00000000000E+00 0.  1.
         21   -1    0    0  502  503 -0.00000000000E+00 -0.00000000000E+00 -0.59496329763E+02  0.59496329763E+02  0.00000000000E+00 0.  1.
         -6    2    1    2    0  503 -0.64683759316E+02 -0.13978632477E+03  0.16146828741E+04  0.16313655558E+04  0.17443791855E+03 0.  0.
        -24    2    3    3    0    0 -0.77474312913E+02 -0.16474075712E+03  0.11462996439E+04  0.11621201378E+04  0.58125338056E+02 0.  0.
          6    2    1    2  501    0  0.64683759316E+02  0.13978632477E+03  0.20834956900E+03  0.31065954683E+03  0.17139313236E+03 0.  0.
         24    2    5    5    0    0  0.32904043567E+01  0.25303816274E+02  0.27628955886E+02  0.88044590478E+02  0.79607668162E+02 0.  0.
          5    1    5    5  501    0  0.61393354959E+02  0.11448250850E+03  0.18072061312E+03  0.22261495635E+03  0.47000000000E+01 0. -1.
        -13    1    6    6    0    0  0.28532300629E+02 -0.70520951338E+01  0.35678480844E+02  0.46225298488E+02  0.00000000000E+00 0.  1.
         14    1    6    6    0    0 -0.25241896272E+02  0.32355911408E+02 -0.80495249583E+01  0.41819291990E+02  0.00000000000E+00 0. -1.
         -5    1    3    3    0  503  0.12790553598E+02  0.24954432348E+02  0.46838323021E+03  0.46924541799E+03  0.47000000000E+01 0.  1.
         11    1    4    4    0    0 -0.26036143258E+02 -0.11032353195E+03  0.58856823076E+03  0.59938445485E+03  0.00000000000E+00 0. -1.
        -12    1    4    4    0    0 -0.51438169655E+02 -0.54417225171E+02  0.55773141316E+03  0.56273568300E+03  0.00000000000E+00 0.  1.
</event>
<event>
12    1  0.1039610E+000  0.2127474E+03  0.7818608E-02  0.1139520E+00
         21   -1    0    0  501  502  0.00000000000E+00  0.00000000000E+00  0.10137810448E+03  0.10137810448E+03  0.00000000000E+00 0. -1.
         21   -1    0    0  502  503 -0.00000000000E+00 -0.00000000000E+00 -0.75231773292E+03  0.75231773292E+03  0.00000000000E+00 0. -1.
         -6    2    1    2    0  503 -0.12201280787E+03 -0.21142424013E+02 -0.59842705490E+03  0.63511921211E+03  0.17299522010E+03 0.  0.
        -24    2    3    3    0    0 -0.11503055053E+03  0.16092659754E+02 -0.27636563916E+03  0.31080324135E+03  0.82034669947E+02 0.  0.
          6    2    1    2  501    0  0.12201280787E+03  0.21142424013E+02 -0.52512573541E+02  0.21857662529E+03  0.17229057828E+03 0.  0.
         24    2    5    5    0    0  0.17986291962E+02  0.37031701369E+02  0.17965871675E+02  0.91835604356E+02  0.80100886871E+02 0.  0.
          5    1    5    5  501    0  0.10402651591E+03 -0.15889277356E+02 -0.70478445216E+02  0.12674102093E+03  0.47000000000E+01 0. -1.
        -13    1    6    6    0    0 -0.16251212947E+02 -0.17321815371E+02  0.13783962306E+02  0.27461697450E+02  0.00000000000E+00 0.  1.
         14    1    6    6    0    0  0.34237504909E+02  0.54353516739E+02  0.41819093687E+01  0.64373906906E+02  0.00000000000E+00 0. -1.
         -5    1    3    3    0  503 -0.69822573427E+01 -0.37235083767E+02 -0.32206141574E+03  0.32431597076E+03  0.47000000000E+01 0.  1.
         11    1    4    4    0    0 -0.77706872373E+02  0.49007666518E+02 -0.19216030788E+03  0.21299223769E+03  0.00000000000E+00 0. -1.
        -12    1    4    4    0    0 -0.37323678155E+02 -0.32915006764E+02 -0.84205331281E+02  0.97811003663E+02  0.00000000000E+00 0.  1.
</event>
<event>
12    1  0.1045170E+000  0.4285783E+03  0.7818608E-02  0.1034394E+00
         21   -1    0    0  503  502  0.00000000000E+00  0.00000000000E+00  0.33243280549E+03  0.33243280549E+03  0.00000000000E+00 0. -1.
         21   -1    0    0  501  503 -0.00000000000E+00 -0.00000000000E+00 -0.63868826446E+03  0.63868826446E+03  0.00000000000E+00 0.  1.
          6    2    1    2  501    0 -0.34501708209E+03  0.18480957829E+03  0.26448455114E+02  0.42939363571E+03  0.17460815117E+03 0.  0.
         24    2    3    3    0    0 -0.60056459459E+02  0.57206922322E+02  0.10735191417E+02  0.11673728936E+03  0.81442864073E+02 0.  0.
         -6    2    1    2    0  502  0.34501708209E+03 -0.18480957829E+03 -0.33270391409E+03  0.54172743424E+03  0.17200392845E+03 0.  0.
        -24    2    5    5    0    0  0.34742923030E+03 -0.17226903439E+03 -0.34371725735E+03  0.52422122306E+03  0.79263153045E+02 0.  0.
          5    1    3    3  501    0 -0.28496062263E+03  0.12760265597E+03  0.15713263697E+02  0.31265634635E+03  0.47000000000E+01 0. -1.
        -11    1    4    4    0    0 -0.40535309216E+02  0.28754721464E+01 -0.26061206826E+02  0.48275937428E+02  0.00000000000E+00 0.  1.
         12    1    4    4    0    0 -0.19521150243E+02  0.54331450176E+02  0.36796398243E+02  0.68461351934E+02  0.00000000000E+00 0. -1.
         -5    1    5    5    0  502 -0.24121482110E+01 -0.12540543901E+02  0.11013343258E+02  0.17506211185E+02  0.47000000000E+01 0.  1.
         13    1    6    6    0    0  0.21400026353E+03 -0.80854599724E+02 -0.15841637461E+03  0.27826125644E+03  0.00000000000E+00 0. -1.
        -14    1    6    6    0    0  0.13342896676E+03 -0.91414434664E+02 -0.18530088274E+03  0.24595996662E+03  0.00000000000E+00 0.  1.
</event>
<event>
12    1  0.1039610E+000  0.2243539E+03  0.7818608E-02  0.1130712E+00
         21   -1    0    0  503  502  0.00000000000E+00  0.00000000000E+00  0.20497332935E+03  0.20497332935E+03  0.00000000000E+00 0.  1.
         21   -1    0    0  501  503 -0.00000000000E+00 -0.00000000000E+00 -0.32419796035E+03  0.32419796035E+03  0.00000000000E+00 0.  1.
          6    2    1    2  501    0  0.10516326327E+03  0.98357739341E+02 -0.19010362714E+03  0.29406472999E+03  0.17204975891E+03 0.  0.
         24    2    3    3    0    0  0.20592872475E+02  0.60772775640E+02 -0.29062865154E+02  0.10826645896E+03  0.82216661024E+02 0.  0.
         -6    2    1    2    0  502 -0.10516326327E+03 -0.98357739341E+02  0.70878996136E+02  0.23510655972E+03  0.17180717534E+03 0.  0.
        -24    2    5    5    0    0 -0.32184005032E+02 -0.10900500634E+03  0.94727318058E+01  0.13902245215E+03  0.79495961958E+02 0.  0.
          5    1    3    3  501    0  0.84570390792E+02  0.37584963701E+02 -0.16104076198E+03  0.18579827102E+03  0.47000000000E+01 0. -1.
        -11    1    4    4    0    0  0.31518212365E+02 -0.96698611749E+01 -0.78060245669E+01  0.33879757163E+02  0.00000000000E+00 0.  1.
         12    1    4    4    0    0 -0.10925339891E+02  0.70442636815E+02 -0.21256840587E+02  0.74386701802E+02  0.00000000000E+00 0. -1.
         -5    1    5    5    0  502 -0.72979258235E+02  0.10647266999E+02  0.61406264331E+02  0.96084107563E+02  0.47000000000E+01 0.  1.
         11    1    6    6    0    0 -0.51334267577E+01 -0.18808302631E+02  0.36218163061E+02  0.41132221598E+02  0.00000000000E+00 0. -1.
        -12    1    6    6    0    0 -0.27050578274E+02 -0.90196703709E+02 -0.26745431255E+02  0.97890230554E+02  0.00000000000E+00 0.  1.
</event>
<event>
12    1  0.1039610E+000  0.1798783E+03  0.7818608E-02  0.1167953E+00
         21   -1    0    0  503  502  0.00000000000E+00  0.00000000000E+00  0.79066089668E+02  0.79066089668E+02  0.00000000000E+00 0. -1.
         21   -1    0    0  501  503 -0.00000000000E+00 -0.00000000000E+00 -0.52559647419E+03  0.52559647419E+03  0.00000000000E+00 0. -1.
          6    2    1    2  501    0  0.16686803244E+02  0.45967197561E+02 -0.36577131948E+03  0.40760870161E+03  0.17310332989E+03 0.  0.
         24    2    3    3    0    0 -0.41428389757E+02  0.58713081110E+02 -0.15520623463E+03  0.18874897904E+03  0.79835233131E+02 0.  0.
         -6    2    1    2    0  502 -0.16686803244E+02 -0.45967197561E+02 -0.80759065047E+02  0.19705386226E+03  0.17296463624E+03 0.  0.
        -24    2    5    5    0    0  0.87566918428E+01 -0.91019962608E+02 -0.83210586602E+02  0.14504210360E+03  0.75841260859E+02 0.  0.
          5    1    3    3  501    0  0.58115193001E+02 -0.12745883549E+02 -0.21056508485E+03  0.21885972257E+03  0.47000000000E+01 0. -1.
        -11    1    4    4    0    0 -0.33752966678E+02 -0.12344312735E+02 -0.51515793437E+02  0.62813388620E+02  0.00000000000E+00 0.  1.
         12    1    4    4    0    0 -0.76754230787E+01  0.71057393845E+02 -0.10369044119E+03  0.12593559042E+03  0.00000000000E+00 0. -1.
         -5    1    5    5    0  502 -0.25443495087E+02  0.45052765047E+02  0.24515215546E+01  0.52011758656E+02  0.47000000000E+01 0.  1.
         11    1    6    6    0    0 -0.22112035520E+02 -0.70326587540E+02 -0.78320483549E+02  0.10755867781E+03  0.00000000000E+00 0. -1.
        -12    1    6    6    0    0  0.30868727363E+02 -0.20693375068E+02 -0.48901030530E+01  0.37483425785E+02  0.00000000000E+00 0.  1.
</event>
<event>
12    1  0.1039610E+000  0.2222152E+03  0.7818608E-02  0.1132404E+00
         21   -1    0    0  501  502  0.00000000000E+00  0.00000000000E+00  0.68425977166E+02  0.68425977166E+02  0.00000000000E+00 0. -1.
         21   -1    0    0  502  503 -0.00000000000E+00 -0.00000000000E+00 -0.14862724906E+04  0.14862724906E+04  0.00000000000E+00 0. -1.
         -6    2    1    2    0  503 -0.68143627309E+02  0.12092368521E+03 -0.15100735914E+03  0.26866858394E+03  0.17353240012E+03 0.  0.
        -24    2    3    3    0    0 -0.49389800580E+01  0.12136782011E+03 -0.59258262950E+02  0.15715620192E+03  0.80199680762E+02 0.  0.
          6    2    1    2  501    0  0.68143627309E+02 -0.12092368521E+03 -0.12668391543E+04  0.12860298838E+04  0.17241034675E+03 0.  0.
         24    2    5    5    0    0  0.10148940803E+03 -0.43943058635E+02 -0.64310306307E+03  0.65665975469E+03  0.73412474115E+02 0.  0.
          5    1    5    5  501    0 -0.33345780721E+02 -0.76980626577E+02 -0.62373609119E+03  0.62937012911E+03  0.47000000000E+01 0. -1.
        -11    1    6    6    0    0 -0.90462316911E+01 -0.94274514625E+01 -0.12984727969E+03  0.13050297771E+03  0.00000000000E+00 0.  1.
         12    1    6    6    0    0  0.11053563972E+03 -0.34515607173E+02 -0.51325578338E+03  0.52615677698E+03  0.00000000000E+00 0. -1.
         -5    1    3    3    0  503 -0.63204647251E+02 -0.44413489355E+00 -0.91749096195E+02  0.11151238201E+03  0.47000000000E+01 0.  1.
         11    1    4    4    0    0  0.24561480610E+02  0.19212021039E+02 -0.37238041478E+02  0.48569947655E+02  0.00000000000E+00 0. -1.
        -12    1    4    4    0    0 -0.29500460668E+02  0.10215579907E+03 -0.22020221472E+02  0.10858625427E+03  0.00000000000E+00 0.  1.
</event>
<event>
12    1  0.1039610E+000  0.2577578E+03  0.7818608E-02  0.1108807E+00
         21   -1    0    0  501  502  0.00000000000E+00  0.00000000000E+00  0.18858452212E+03  0.18858452212E+03  0.00000000000E+00 0.  1.
         21   -1    0    0  502  503 -0.00000000000E+00 -0.00000000000E+00 -0.35888852675E+03  0.35888852675E+03  0.00000000000E+00 0.  1.
         -6    2    1    2    0  503 -0.16126509515E+03 -0.10259586850E+03 -0.12900393920E+03  0.28642752782E+03  0.16990105714E+03 0.  0.
        -24    2    3    3    0    0 -0.14851684306E+03 -0.96327878604E+02 -0.16026866750E+03  0.25176661518E+03  0.79775120614E+02 0.  0.
          6    2    1    2  501    0  0.16126509515E+03  0.10259586850E+03 -0.41300065432E+02  0.26104552104E+03  0.17293561086E+03 0.  0.
         24    2    5    5    0    0  0.11723363439E+03  0.14050407607E+03 -0.29756698011E+02  0.20162211598E+03  0.79252105035E+02 0.  0.
          5    1    5    5  501    0  0.44031460762E+02 -0.37908207565E+02 -0.11543367421E+02  0.59423405061E+02  0.47000000000E+01 0. -1.
        -13    1    6    6    0    0  0.26650687077E+02  0.44834186136E+02 -0.45138932321E+02  0.68977435291E+02  0.00000000000E+00 0.  1.
         14    1    6    6    0    0  0.90582947314E+02  0.95669889931E+02  0.15382234310E+02  0.13264468069E+03  0.00000000000E+00 0. -1.
         -5    1    3    3    0  503 -0.12748252097E+02 -0.62679898990E+01  0.31264728308E+02  0.34660912640E+02  0.47000000000E+01 0.  1.
         11    1    4    4    0    0 -0.47435620349E+02 -0.77691815971E+02 -0.82861601346E+02  0.12309427820E+03  0.00000000000E+00 0. -1.
        -12    1    4    4    0    0 -0.10108122271E+03 -0.18636062632E+02 -0.77407066159E+02  0.12867233699E+03  0.00000000000E+00 0.  1.
</event>
<event>
12    1  0.1039610E+000  0.1979530E+03  0.7818608E-02  0.1151794E+00
         21   -1    0    0  503  502  0.00000000000E+00  0.00000000000E+00  0.17456565316E+03  0.17456565316E+03  0.00000000000E+00 0.  1.
         21   -1    0    0  501  503 -0.00000000000E+00 -0.00000000000E+00 -0.39270452590E+03  0.39270452590E+03  0.00000000000E+00 0. -1.
          6    2    1    2  501    0  0.34809899716E+01  0.94052089649E+02 -0.29539848916E+03  0.35477442479E+03  0.17247235207E+03 0.  0.
         24    2    3    3    0    0 -0.47104663740E+02  0.10968788779E+03 -0.21978660137E+03  0.26234805345E+03  0.79183766850E+02 0.  0.
         -6    2    1    2    0  502 -0.34809899716E+01 -0.94052089649E+02  0.77259616423E+02  0.21249575426E+03  0.17414788081E+03 0.  0.
        -24    2    5    5    0    0 -0.31659892076E+02  0.13167813942E+02  0.48005523949E+02  0.97743629327E+02  0.77932962565E+02 0.  0.
          5    1    3    3  501    0  0.50585653712E+02 -0.15635798137E+02 -0.75611887794E+02  0.92426371349E+02  0.47000000000E+01 0. -1.
        -13    1    4    4    0    0 -0.16283086133E+02  0.10191386894E+03 -0.12348027788E+03  0.16093152147E+03  0.00000000000E+00 0.  1.
         14    1    4    4    0    0 -0.30821577608E+02  0.77740188503E+01 -0.96306323487E+02  0.10141653198E+03  0.00000000000E+00 0. -1.
         -5    1    5    5    0  502  0.28178902104E+02 -0.10721990359E+03  0.29254092474E+02  0.11475212493E+03  0.47000000000E+01 0.  1.
         11    1    6    6    0    0 -0.75166416325E+01 -0.13418304614E+02 -0.17341055593E+02  0.23178934600E+02  0.00000000000E+00 0. -1.
        -12    1    6    6    0    0 -0.24143250443E+02  0.26586118556E+02  0.65346579542E+02  0.74564694727E+02  0.00000000000E+00 0.  1.
</event>
<event>
12    1  0.1039610E+000  0.2500293E+03  0.7818608E-02  0.1113400E+00
         21   -1    0    0  501  502  0.00000000000E+00  0.00000000000E+00  0.60913912731E+03  0.60913912731E+03  0.00000000000E+00 0.  1.
         21   -1    0    0  502  503 -0.00000000000E+00 -0.00000000000E+00 -0.11016461971E+03  0.11016461971E+03  0.00000000000E+00 0.  1.
         -6    2    1    2    0  503  0.48757993504E+02  0.17363350131E+03  0.15326736480E+03  0.29265623554E+03  0.17213614490E+03 0.  0.
        -24    2    3    3    0    0  0.43971215409E+02  0.34184083648E+02  0.11249812081E+03  0.14721458200E+03  0.76904399141E+02 0.  0.
          6    2    1    2  501    0 -0.48757993504E+02 -0.17363350131E+03  0.34570714280E+03  0.42664751148E+03  0.17317256064E+03 0.  0.
         24    2    5    5    0    0 -0.82477907700E+02 -0.16581259619E+03  0.23088849107E+03  0.30663246261E+03  0.80109609287E+02 0.  0.
          5    1    5    5  501    0  0.33719914196E+02 -0.78209051151E+01  0.11481865173E+03  0.12001504887E+03  0.47000000000E+01 0. -1.
        -13    1    6    6    0    0  0.42862986967E+01 -0.41798162125E+02  0.92303556098E+02  0.10141698665E+03  0.00000000000E+00 0.  1.
         14    1    6    6    0    0 -0.86764206397E+02 -0.12401443407E+03  0.13858493497E+03  0.20521547595E+03  0.00000000000E+00 0. -1.
         -5    1    3    3    0  503  0.47867780959E+01  0.13944941766E+03  0.40769243995E+02  0.14544165355E+03  0.47000000000E+01 0.  1.
         13    1    4    4    0    0  0.40389975707E+02  0.57406743636E+02  0.93969568460E+02  0.11729093805E+03  0.00000000000E+00 0. -1.
        -14    1    4    4    0    0  0.35812397015E+01 -0.23222659988E+02  0.18528552349E+02  0.29923643943E+02  0.00000000000E+00 0.  1.
</event>
<event>
12    1  0.1039610E+000  0.1873926E+03  0.7818608E-02  0.1160848E+00
         21   -1    0    0  503  502  0.00000000000E+00  0.00000000000E+00  0.22607226008E+03  0.22607226008E+03  0.00000000000E+00 0.  1.
         21   -1    0    0  501  503 -0.00000000000E+00 -0.00000000000E+00 -0.19331837612E+03  0.19331837612E+03  0.00000000000E+00 0.  1.
          6    2    1    2  501    0  0.48474458188E+02  0.57344530611E+02  0.10939239456E+03  0.21693213745E+03  0.17162368130E+03 0.  0.
         24    2    3    3    0    0 -0.31587235461E+02  0.39808318769E+02  0.26368855629E+02  0.10017430460E+03  0.82201697471E+02 0.  0.
         -6    2    1    2    0  502 -0.48474458188E+02 -0.57344530611E+02 -0.76638510599E+02  0.20245849875E+03  0.17169104264E+03 0.  0.
        -24    2    5    5    0    0 -0.19789679807E+02  0.33384421586E+02 -0.74348740741E+01  0.84705398643E+02  0.74923802462E+02 0.  0.
          5    1    3    3  501    0  0.80061693649E+02  0.17536211842E+02  0.83023538928E+02  0.11675783285E+03  0.47000000000E+01 0. -1.
        -13    1    4    4    0    0  0.26004098650E+02  0.27093589585E+02  0.79389006852E+01  0.38383614828E+02  0.00000000000E+00 0.  1.
         14    1    4    4    0    0 -0.57591334111E+02  0.12714729185E+02  0.18429954944E+02  0.61790689769E+02  0.00000000000E+00 0. -1.
         -5    1    5    5    0  502 -0.28684778382E+02 -0.90728952197E+02 -0.69203636525E+02  0.11775310011E+03  0.47000000000E+01 0.  1.
         11    1    6    6    0    0 -0.45854497507E+02  0.79551603404E+01 -0.11849295315E+02  0.48024215945E+02  0.00000000000E+00 0. -1.
        -12    1    6    6    0    0  0.26064817700E+02  0.25429261246E+02  0.44144212412E+01  0.36681182698E+02  0.00000000000E+00 0.  1.
</event>
<event>
12    1  0.1039610E+000  0.1805015E+03  0.7818608E-02  0.1167448E+00
         21   -1    0    0  503  502  0.00000000000E+00  0.00000000000E+00  0.14237047757E+03  0.14237047757E+03  0.00000000000E+00 0. -1.
         21   -1    0    0  501  503 -0.00000000000E+00 -0.00000000000E+00 -0.23142413296E+03  0.23142413296E+03  0.00000000000E+00 0. -1.
          6    2    1    2  501    0 -0.27510398886E+02 -0.48184230020E+02 -0.22290871910E+02  0.18134187310E+03  0.17120002892E+03 0.  0.
         24    2    3    3    0    0 -0.38424921133E+02 -0.30656429040E+02  0.46352629045E+02  0.10950615200E+03  0.86178535037E+02 0.  0.
         -6    2    1    2    0  502  0.27510398886E+02  0.48184230020E+02 -0.66762783480E+02  0.19245273742E+03  0.17176217515E+03 0.  0.
        -24    2    5    5    0    0  0.14135149021E+02 -0.31097279209E+02 -0.72238017669E+02  0.11172775241E+03  0.78089155780E+02 0.  0.
          5    1    3    3  501    0  0.10914522248E+02 -0.17527800979E+02 -0.68643500955E+02  0.71835721103E+02  0.47000000000E+01 0. -1.
        -11    1    4    4    0    0  0.17519352307E+02  0.16591930803E+02  0.27616127170E+01  0.24286753135E+02  0.00000000000E+00 0.  1.
         12    1    4    4    0    0 -0.55944273441E+02 -0.47248359843E+02  0.43591016328E+02  0.85219398867E+02  0.00000000000E+00 0. -1.
         -5    1    5    5    0  502  0.13375249864E+02  0.79281509229E+02  0.54752341885E+01  0.80724985004E+02  0.47000000000E+01 0.  1.
         11    1    6    6    0    0 -0.86179392061E+01 -0.46989159949E+02 -0.18469238966E+02  0.51218774067E+02  0.00000000000E+00 0. -1.
        -12    1    6    6    0    0  0.22753088227E+02  0.15891880740E+02 -0.53768778702E+02  0.60508978346E+02  0.00000000000E+00 0.  1.
</event>
<event>
12    1  0.1039610E+000  0.3144959E+03  0.7818608E-02  0.1078392E+00
         21   -1    0    0  501  502  0.00000000000E+00  0.00000000000E+00  0.13075786178E+04  0.13075786178E+04  0.00000000000E+00 0. -1.
         21   -1    0    0  502  503 -0.00000000000E+00 -0.00000000000E+00 -0.86947095701E+02  0.86947095701E+02  0.00000000000E+00 0.  1.
         -6    2    1    2    0  503 -0.11951327297E+03 -0.23492077989E+03  0.35351606965E+03  0.47213921472E+03  0.16873242524E+03 0.  0.
        -24    2    3    3    0    0 -0.58972583967E+02 -0.20512771893E+03  0.32917026839E+03  0.40025312743E+03  0.79336962946E+02 0.  0.
          6    2    1    2  501    0  0.11951327297E+03  0.23492077989E+03  0.86711545245E+03  0.92238649879E+03  0.17157053951E+03 0.  0.
         24    2    5    5    0    0  0.13383705414E+03  0.13525169745E+03  0.48426466337E+03  0.52648763115E+03  0.80446148664E+02 0.  0.
          5    1    5    5  501    0 -0.14323781174E+02  0.99669082440E+02  0.38285078908E+03  0.39589886764E+03  0.47000000000E+01 0. -1.
        -11    1    6    6    0    0  0.72661888166E+01  0.56972949700E+02  0.14849695132E+03  0.15921701872E+03  0.00000000000E+00 0.  1.
         12    1    6    6    0    0  0.12657086533E+03  0.78278747755E+02  0.33576771205E+03  0.36727061243E+03  0.00000000000E+00 0. -1.
         -5    1    3    3    0  503 -0.60540689002E+02 -0.29793060959E+02  0.24345801258E+02  0.71886087284E+02  0.47000000000E+01 0.  1.
         13    1    4    4    0    0 -0.32731169483E+02 -0.94165793244E+02  0.85933760227E+02  0.13161738950E+03  0.00000000000E+00 0. -1.
        -14    1    4    4    0    0 -0.26241414484E+02 -0.11096192569E+03  0.24323650817E+03  0.26863573793E+03  0.00000000000E+00 0.  1.
</event>
<event>
12    1  0.1039610E+000  0.2541252E+03  0.7818608E-02  0.1110933E+00
         21   -1    0    0  503  502  0.00000000000E+00  0.00000000000E+00  0.47012728366E+03  0.47012728366E+03  0.00000000000E+00 0.  1.
         21   -1    0    0  501  503 -0.00000000000E+00 -0.00000000000E+00 -0.25228812282E+03  0.25228812282E+03  0.00000000000E+00 0.  1.
          6    2    1    2  501    0  0.18239916912E+03  0.38723691040E+02 -0.13547782545E+03  0.28798235228E+03  0.17265750170E+03 0.  0.
         24    2    3    3    0    0  0.99117084507E+02  0.11890049587E+02 -0.15215763546E+03  0.19878450481E+03  0.79986021309E+02 0.  0.
         -6    2    1    2    0  502 -0.18239916912E+03 -0.38723691040E+02  0.35331698629E+03  0.43443305420E+03  0.17067572948E+03 0.  0.
        -24    2    5    5    0    0 -0.11506978777E+03  0.20362098648E+02  0.13242120345E+03  0.19601868170E+03  0.85042797065E+02 0.  0.
          5    1    3    3  501    0  0.83282084616E+02  0.26833641454E+02  0.16679810008E+02  0.89197847471E+02  0.47000000000E+01 0. -1.
        -13    1    4    4    0    0  0.11020464309E+03  0.20946996084E+02 -0.12410486842E+03  0.16728974376E+03  0.00000000000E+00 0.  1.
         14    1    4    4    0    0 -0.11087558578E+02 -0.90569464969E+01 -0.28052767041E+02  0.31494761052E+02  0.00000000000E+00 0. -1.
         -5    1    5    5    0  502 -0.67329381350E+02 -0.59085789688E+02  0.22089578284E+03  0.23841437250E+03  0.47000000000E+01 0.  1.
         13    1    6    6    0    0 -0.82482291022E+01 -0.10048191362E+02 -0.92836502887E+01  0.15974529591E+02  0.00000000000E+00 0. -1.
        -14    1    6    6    0    0 -0.10682155867E+03  0.30410290010E+02  0.14170485374E+03  0.18004415211E+03  0.00000000000E+00 0.  1.
</event>
<event>
12    1  0.1039610E+000  0.2690622E+03  0.7818608E-02  0.1101991E+00
         21   -1    0    0  501  502  0.00000000000E+00  0.00000000000E+00  0.58235874156E+03  0.58235874156E+03  0.00000000000E+00 0. -1.
         21   -1    0    0  502  503 -0.00000000000E+00 -0.00000000000E+00 -0.24203373081E+03  0.24203373081E+03  0.00000000000E+00 0. -1.
         -6    2    1    2    0  503 -0.51782941972E+02  0.19932814453E+03  0.45811668007E+03  0.53067602758E+03  0.17126871111E+03 0.  0.
        -24    2    3    3    0    0 -0.86924695279E+02  0.79115335068E+02  0.26565078119E+03  0.30099957120E+03  0.78836954658E+02 0.  0.
          6    2    1    2  501    0  0.51782941972E+02 -0.19932814453E+03 -0.11779166932E+03  0.29371644479E+03  0.17315106207E+03 0.  0.
         24    2    5    5    0    0  0.78358051493E+02 -0.10041367248E+03 -0.11622059681E+03  0.19117441684E+03  0.82568399988E+02 0.  0.
          5    1    5    5  501    0 -0.26575109521E+02 -0.98914472054E+02 -0.15710725151E+01  0.10254202795E+03  0.47000000000E+01 0. -1.
        -13    1    6    6    0    0  0.61637193916E+02 -0.93523909049E+02 -0.50238813007E+02  0.12275912826E+03  0.00000000000E+00 0.  1.
         14    1    6    6    0    0  0.16720857577E+02 -0.68897634287E+01 -0.65981783801E+02  0.68415288582E+02  0.00000000000E+00 0. -1.
         -5    1    3    3    0  503  0.35141753306E+02  0.12021280946E+03  0.19246589888E+03  0.22967645638E+03  0.47000000000E+01 0.  1.
         13    1    4    4    0    0 -0.23021621588E+02  0.14559270885E+02  0.15715868600E+03  0.15950178687E+03  0.00000000000E+00 0. -1.
        -14    1    4    4    0    0 -0.63903073691E+02  0.64556064183E+02  0.10849209519E+03  0.14149778432E+03  0.00000000000E+00 0.  1.
</event>
<event>
12    1  0.1039610E+000  0.2698919E+03  0.7818608E-02  0.1101582E+00
         21   -1    0    0  501  502  0.00000000000E+00  0.00000000000E+00  0.11346209601E+03  0.11346209601E+03  0.00000000000E+00 0.  1.
         21   -1    0    0  502  503 -0.00000000000E+00 -0.00000000000E+00 -0.65198909309E+03  0.65198909309E+03  0.00000000000E+00 0.  1.
         -6    2    1    2    0  503 -0.20348447199E+03 -0.30411834287E+02 -0.21406101152E+03  0.34447608355E+03  0.17467353972E+03 0.  0.
        -24    2    3    3    0    0 -0.20772271529E+03 -0.13944845585E+02 -0.23076340140E+03  0.32018237550E+03  0.76953368936E+02 0.  0.
          6    2    1    2  501    0  0.20348447199E+03  0.30411834287E+02 -0.32446598556E+03  0.42097510555E+03  0.17207862650E+03 0.  0.
         24    2    5    5    0    0  0.30851942927E+02 -0.17074370321E+01 -0.76107049087E+02  0.11677469626E+03  0.83001741207E+02 0.  0.
          5    1    5    5  501    0  0.17263252907E+03  0.32119271319E+02 -0.24835893647E+03  0.30420040928E+03  0.47000000000E+01 0. -1.
        -11    1    6    6    0    0 -0.31632991406E+01 -0.38370007482E+02 -0.35143652818E+02  0.52128113998E+02  0.00000000000E+00 0.  1.
         12    1    6    6    0    0  0.34015242068E+02  0.36662570450E+02 -0.40963396269E+02  0.64646582267E+02  0.00000000000E+00 0. -1.
         -5    1    3    3    0  503  0.42382432991E+01 -0.16466988702E+02  0.16702389876E+02  0.24293708048E+02  0.47000000000E+01 0.  1.
         13    1    4    4    0    0 -0.19511495034E+03  0.17492204343E+01 -0.17958139774E+03  0.26518367603E+03  0.00000000000E+00 0. -1.
        -14    1    4    4    0    0 -0.12607764953E+02 -0.15694066019E+02 -0.51182003656E+02  0.54998699471E+02  0.00000000000E+00 0.  1.
</event>
<event>
12    1  0.1039610E+000  0.2063670E+03  0.7818608E-02  0.1145042E+00
         21   -1    0    0  501  502  0.00000000000E+00  0.00000000000E+00  0.28157896194E+03  0.28157896194E+03  0.00000000000E+00 0.  1.
         21   -1    0    0  502  503 -0.00000000000E+00 -0.00000000000E+00 -0.25330319570E+03  0.25330319570E+03  0.00000000000E+00 0.  1.
         -6    2    1    2    0  503  0.42050824952E+02  0.10596516479E+03  0.18562973071E+03  0.27757116985E+03  0.17201880530E+03 0.  0.
        -24    2    3    3    0    0 -0.39070649658E+02  0.70629497357E+02  0.13438862001E+03  0.17521373503E+03  0.78259249897E+02 0.  0.
          6    2    1    2  501    0 -0.42050824952E+02 -0.10596516479E+03 -0.15735396447E+03  0.25731098779E+03  0.16867657299E+03 0.  0.
         24    2    5    5    0    0  0.41504813953E+02 -0.63428246186E+02 -0.84094919710E+02  0.13823155264E+03  0.79310873332E+02 0.  0.
          5    1    5    5  501    0 -0.83555638905E+02 -0.42536918606E+02 -0.73259044761E+02  0.11907943515E+03  0.47000000000E+01 0. -1.
        -13    1    6    6    0    0  0.37141020605E+02  0.27042516439E+01 -0.94699925871E+01  0.38424590409E+02  0.00000000000E+00 0.  1.
         14    1    6    6    0    0  0.43637933484E+01 -0.66132497830E+02 -0.74624927123E+02  0.99806962231E+02  0.00000000000E+00 0. -1.
         -5    1    3    3    0  503  0.81121474610E+02  0.35335667436E+02  0.51241110700E+02  0.10235743481E+03  0.47000000000E+01 0.  1.
         13    1    4    4    0    0 -0.33047162940E+02  0.76578729970E+01  0.94559834439E+02  0.10046054094E+03  0.00000000000E+00 0. -1.
        -14    1    4    4    0    0 -0.60234867182E+01  0.62971624360E+02  0.39828785571E+02  0.74753194091E+02  0.00000000000E+00 0.  1.
</event>
<event>
12    1  0.1039610E+000  0.2024121E+03  0.7818608E-02  0.1147962E+00
         21   -1    0    0  501  502  0.00000000000E+00  0.00000000000E+00  0.82443694904E+03  0.82443694904E+03  0.00000000000E+00 0.  1.
         21   -1    0    0  502  503 -0.00000000000E+00 -0.00000000000E+00 -0.58461365353E+02  0.58461365353E+02  0.00000000000E+00 0.  1.
         -6    2    1    2    0  503  0.92632687162E+02 -0.57192755125E+02  0.55575776325E+03  0.59107268874E+03  0.16925840006E+03 0.  0.
        -24    2    3    3    0    0  0.49017957652E+02 -0.36690108739E+02  0.14105360394E+03  0.17355115290E+03  0.80467131407E+02 0.  0.
          6    2    1    2  501    0 -0.92632687162E+02  0.57192755125E+02  0.21021782043E+03  0.29182562565E+03  0.17064242670E+03 0.  0.
         24    2    5    5    0    0 -0.75555229276E+02 -0.25618490790E+02  0.88265065912E+02  0.14335372140E+03  0.79966667033E+02 0.  0.
          5    1    5    5  501    0 -0.17077457886E+02  0.82811245915E+02  0.12195275452E+03  0.14847190426E+03  0.47000000000E+01 0. -1.
        -11    1    6    6    0    0 -0.15034342508E+02  0.41616214084E+01 -0.13924613936E+02  0.20910414167E+02  0.00000000000E+00 0.  1.
         12    1    6    6    0    0 -0.60520886768E+02 -0.29780112198E+02  0.10218967985E+03  0.12244330723E+03  0.00000000000E+00 0. -1.
         -5    1    3    3    0  503  0.43614729510E+02 -0.20502646386E+02  0.41470415931E+03  0.41752153584E+03  0.47000000000E+01 0.  1.
         11    1    4    4    0    0  0.65399469042E+02 -0.45479247667E+02  0.95569595367E+02  0.12441462968E+03  0.00000000000E+00 0. -1.
        -12    1    4    4    0    0 -0.16381511390E+02  0.87891389276E+01  0.45484008572E+02  0.49136523221E+02  0.00000000000E+00 0.  1.
</event>
<event>
12    1  0.1039610E+000  0.1894310E+03  0.7818608E-02  0.1158993E+00
         21   -1    0    0  501  502  0.00000000000E+00  0.00000000000E+00  0.11455782231E+03  0.11455782231E+03  0.00000000000E+00 0. -1.
         21   -1    0    0  502  503 -0.00000000000E+00 -0.00000000000E+00 -0.31508543609E+03  0.31508543609E+03  0.00000000000E+00 0. -1.
         -6    2    1    2    0  503 -0.59666561185E+02  0.56530355373E+02 -0.11728685710E+03  0.22280107775E+03  0.17067024871E+03 0.  0.
        -24    2    3    3    0    0 -0.10168023728E+03  0.64314265331E+02 -0.10284128875E+03  0.17745239884E+03  0.80236075450E+02 0.  0.
          6    2    1    2  501    0  0.59666561185E+02 -0.56530355373E+02 -0.83240756675E+02  0.20684218064E+03  0.17058395153E+03 0.  0.
         24    2    5    5    0    0  0.97090148565E+02 -0.42281214300E+02 -0.97316533312E+02  0.16413643862E+03  0.79095289343E+02 0.  0.
          5    1    5    5  501    0 -0.37423587380E+02 -0.14249141073E+02  0.14075776637E+02  0.42705742022E+02  0.47000000000E+01 0. -1.
        -13    1    6    6    0    0  0.55621310907E+02 -0.64399720168E+02 -0.59908199868E+02  0.10406750980E+03  0.00000000000E+00 0.  1.
         14    1    6    6    0    0  0.41468837658E+02  0.22118505868E+02 -0.37408333444E+02  0.60068928820E+02  0.00000000000E+00 0. -1.
         -5    1    3    3    0  503  0.42013676100E+02 -0.77839099579E+01 -0.14445568350E+02  0.45348678908E+02  0.47000000000E+01 0.  1.
         11    1    4    4    0    0 -0.32108863779E+02  0.65460651970E+02 -0.67724243346E+02  0.99512055683E+02  0.00000000000E+00 0. -1.
        -12    1    4    4    0    0 -0.69571373506E+02 -0.11463866390E+01 -0.35117045407E+02  0.77940343160E+02  0.00000000000E+00 0.  1.
</event>
<event>
12    1  0.1039610E+000  0.1939380E+03  0.7818608E-02  0.1155741E+00
         21   -1    0    0  501  502  0.00000000000E+00  0.00000000000E+00  0.17360976385E+03  0.17360976385E+03  0.00000000000E+00 0. -1.
         21   -1    0    0  502  503 -0.00000000000E+00 -0.00000000000E+00 -0.29493056725E+03  0.29493056725E+03  0.00000000000E+00 0. -1.
         -6    2    1    2    0  503  0.52175747954E+02 -0.64901057413E+02  0.62623371141E+02  0.20379806270E+03  0.17514995809E+03 0.  0.
        -24    2    3    3    0    0 -0.26049920800E+02 -0.28235388723E+02  0.73997395825E+02  0.11653360860E+03  0.81416409856E+02 0.  0.
          6    2    1    2  501    0 -0.52175747954E+02  0.64901057413E+02 -0.18394417454E+03  0.26474226839E+03  0.17122661416E+03 0.  0.
         24    2    5    5    0    0  0.14401896817E+02  0.90416393520E+02 -0.12465114885E+03  0.17189094608E+03  0.75006996910E+02 0.  0.
          5    1    5    5  501    0 -0.66577644771E+02 -0.25515336106E+02 -0.59293025692E+02  0.92851322315E+02  0.47000000000E+01 0. -1.
        -11    1    6    6    0    0 -0.30356250331E+02  0.26696813742E+02 -0.45301185105E+02  0.60715888942E+02  0.00000000000E+00 0.  1.
         12    1    6    6    0    0  0.44758147147E+02  0.63719579778E+02 -0.79349963745E+02  0.11117505714E+03  0.00000000000E+00 0. -1.
         -5    1    3    3    0  503  0.78225668754E+02 -0.36665668691E+02 -0.11374024683E+02  0.87264454104E+02  0.47000000000E+01 0.  1.
         13    1    4    4    0    0  0.83625049727E+01 -0.20892713426E+02 -0.10625608550E+02  0.24886553011E+02  0.00000000000E+00 0. -1.
        -14    1    4    4    0    0 -0.34412425773E+02 -0.73426752965E+01  0.84623004375E+02  0.91647055586E+02  0.00000000000E+00 0.  1.
</event>
<event>
12    1  0.1039610E+000  0.2147698E+03  0.7818608E-02  0.1138713E+00
         21   -1    0    0  501  502  0.00000000000E+00  0.00000000000E+00  0.16791138324E+03  0.16791138324E+03  0.00000000000E+00 0. -1.
         21   -1    0    0  502  503 -0.00000000000E+00 -0.00000000000E+00 -0.80565876589E+03  0.80565876589E+03  0.00000000000E+00 0. -1.
         -6    2    1    2    0  503 -0.66190068546E+02 -0.96196455209E+02 -0.71727393829E+03  0.74873758516E+03  0.18025311570E+03 0.  0.
        -24    2    3    3    0    0 -0.64049362384E+02 -0.26806265383E+01 -0.23389666029E+03  0.25637036883E+03  0.83118059039E+02 0.  0.
          6    2    1    2  501    0  0.66190068546E+02  0.96196455209E+02  0.79526555632E+02  0.22483256397E+03  0.17490090224E+03 0.  0.
         24    2    5    5    0    0  0.33637929330E+02  0.11061383146E+03  0.10982117959E+03  0.17785004865E+03  0.78759242748E+02 0.  0.
          5    1    5    5  501    0  0.32552139216E+02 -0.14417376254E+02 -0.30294623955E+02  0.46982515324E+02  0.47000000000E+01 0. -1.
        -11    1    6    6    0    0  0.10485618349E+01  0.28468236546E+02  0.79450027900E+02  0.84402884472E+02  0.00000000000E+00 0.  1.
         12    1    6    6    0    0  0.32589367495E+02  0.82145594917E+02  0.30371151687E+02  0.93447164177E+02  0.00000000000E+00 0. -1.
         -5    1    3    3    0  503 -0.21407061618E+01 -0.93515828671E+02 -0.48337727799E+03  0.49236721633E+03  0.47000000000E+01 0.  1.
         13    1    4    4    0    0  0.16572226984E+02  0.37793270025E+01 -0.13835343593E+02  0.21916631861E+02  0.00000000000E+00 0. -1.
        -14    1    4    4    0    0 -0.80621589368E+02 -0.64599535409E+01 -0.22006131670E+03  0.23445373697E+03  0.00000000000E+00 0.  1.
</event>
<event>
12    1  0.1039610E+000  0.3320634E+03  0.7818608E-02  0.1070305E+00
         21   -1    0    0  501  502  0.00000000000E+00  0.00000000000E+00  0.54354067872E+03  0.54354067872E+03  0.00000000000E+00 0. -1.
         21   -1    0    0  502  503 -0.00000000000E+00 -0.00000000000E+00 -0.23737613536E+03  0.23737613536E+03  0.00000000000E+00 0. -1.
         -6    2    1    2    0  503  0.23540347102E+03 -0.15883157922E+03  0.30274963216E+03  0.44883583036E+03  0.17074541902E+03 0.  0.
        -24    2    3    3    0    0  0.11553745730E+03 -0.84738364764E+02  0.24898281115E+03  0.29793643767E+03  0.79020162860E+02 0.  0.
          6    2    1    2  501    0 -0.23540347102E+03  0.15883157922E+03  0.34149112045E+01  0.33208098373E+03  0.17211581395E+03 0.  0.
         24    2    5    5    0    0 -0.10908204895E+03  0.55442782664E+02  0.62939252157E+02  0.15826619123E+03  0.78192341511E+02 0.  0.
          5    1    5    5  501    0 -0.12632142206E+03  0.10338879656E+03 -0.59524340952E+02  0.17381479250E+03  0.47000000000E+01 0. -1.
        -13    1    6    6    0    0 -0.10825365882E+03  0.26228588409E+02  0.32415274736E+02  0.11600665297E+03  0.00000000000E+00 0.  1.
         14    1    6    6    0    0 -0.82839013515E+00  0.29214194255E+02  0.30523977421E+02  0.42259538258E+02  0.00000000000E+00 0. -1.
         -5    1    3    3    0  503  0.11986601371E+03 -0.74093214459E+02  0.53766821004E+02  0.15089939269E+03  0.47000000000E+01 0.  1.
         13    1    4    4    0    0 -0.41645140359E+01 -0.32350475693E+02  0.42308236147E+02  0.53421749322E+02  0.00000000000E+00 0. -1.
        -14    1    4    4    0    0  0.11970197134E+03 -0.52387889070E+02  0.20667457501E+03  0.24451468835E+03  0.00000000000E+00 0.  1.
</event>
<event>
12    1  0.1039610E+000  0.1880413E+03  0.7818608E-02  0.1160353E+00
         21   -1    0    0  501  502  0.00000000000E+00  0.00000000000E+00  0.77857058880E+03  0.77857058880E+03  0.00000000000E+00 0.  1.
         21   -1    0    0  502  503 -0.00000000000E+00 -0.00000000000E+00 -0.10279020975E+03  0.10279020975E+03  0.00000000000E+00 0.  1.
         -6    2    1    2    0  503 -0.43231470038E+01 -0.77096515191E+02  0.66766196493E+03  0.69363680303E+03  0.17145539610E+03 0.  0.
        -24    2    3    3    0    0  0.30590851064E+02 -0.54105025887E+02  0.62188540218E+03  0.63146623493E+03  0.90249644938E+02 0.  0.
          6    2    1    2  501    0  0.43231470038E+01  0.77096515191E+02  0.81184141245E+01  0.18772399551E+03  0.17091467927E+03 0.  0.
         24    2    5    5    0    0 -0.57429802611E+02  0.13794015537E+02  0.20025153917E+01  0.98953913470E+02  0.79368821527E+02 0.  0.
          5    1    5    5  501    0  0.61752949615E+02  0.63302499654E+02  0.61158987328E+01  0.88770082043E+02  0.47000000000E+01 0. -1.
        -13    1    6    6    0    0 -0.59479553072E+02  0.37787644172E+02 -0.11416108684E+02  0.71386629163E+02  0.00000000000E+00 0.  1.
         14    1    6    6    0    0  0.20497504615E+01 -0.23993628635E+02  0.13418624075E+02  0.27567284308E+02  0.00000000000E+00 0. -1.
         -5    1    3    3    0  503 -0.34913998068E+02 -0.22991489304E+02  0.45776562750E+02  0.62170568106E+02  0.47000000000E+01 0.  1.
         11    1    4    4    0    0  0.29885548112E+02 -0.61179809810E+02  0.23886782815E+03  0.24838267742E+03  0.00000000000E+00 0. -1.
        -12    1    4    4    0    0  0.70530295217E+00  0.70747839235E+01  0.38301757403E+03  0.38308355751E+03  0.00000000000E+00 0.  1.
</event>
<event>
12    1  0.1039610E+000  0.1873455E+03  0.7818608E-02  0.1161418E+00
         21   -1    0    0  501  502  0.00000000000E+00  0.00000000000E+00  0.69648692673E+03  0.69648692673E+03  0.00000000000E+00 0.  1.
         21   -1    0    0  502  503 -0.00000000000E+00 -0.00000000000E+00 -0.67498485999E+02  0.67498485999E+02  0.00000000000E+00 0.  1.
         -6    2    1    2    0  503  0.39086147300E+02 -0.61970145554E+02  0.51173526561E+03  0.54495075366E+03  0.17242481259E+03 0.  0.
        -24    2    3    3    0    0  0.84870125307E+02 -0.40981011869E+02  0.43903432831E+03  0.45638308090E+03  0.81559754712E+02 0.  0.
          6    2    1    2  501    0 -0.39086147300E+02  0.61970145554E+02  0.11725317512E+03  0.21903465907E+03  0.16988186762E+03 0.  0.
         24    2    5    5    0    0 -0.20745114856E+02  0.83629592323E+02  0.13969007443E+03  0.18255138132E+03  0.79921345232E+02 0.  0.
          5    1    5    5  501    0 -0.18341032444E+02 -0.21659446769E+02 -0.22436899304E+02  0.36483277756E+02  0.47000000000E+01 0. -1.
        -13    1    6    6    0    0 -0.27924341506E+02 -0.32821994391E+01  0.50574144350E+02  0.57864373827E+02  0.00000000000E+00 0.  1.
         14    1    6    6    0    0  0.71792266495E+01  0.86911791762E+02  0.89115930079E+02  0.12468700749E+03  0.00000000000E+00 0. -1.
         -5    1    3    3    0  503 -0.45783978007E+02 -0.20989133685E+02  0.72700937296E+02  0.88567672764E+02  0.47000000000E+01 0.  1.
         13    1    4    4    0    0  0.39562698337E+02 -0.48016520076E+02  0.35721508985E+03  0.36259262777E+03  0.00000000000E+00 0. -1.
        -14    1    4    4    0    0  0.45307426971E+02  0.70355082066E+01  0.81819238466E+02  0.93790453126E+02  0.00000000000E+00 0.  1.
</event>
<event>
12    1  0.1039610E+000  0.1843478E+03  0.7818608E-02  0.1163760E+00
         21   -1    0    0  501  502  0.00000000000E+00  0.00000000000E+00  0.16837284908E+03  0.16837284908E+03  0.00000000000E+00 0.  1.
         21   -1    0    0  502  503 -0.00000000000E+00 -0.00000000000E+00 -0.25023926292E+03  0.25023926292E+03  0.00000000000E+00 0.  1.
         -6    2    1    2    0  503  0.18117500314E+01 -0.66860996992E+02  0.51595257636E+02  0.19102445930E+03  0.17133183616E+03 0.  0.
        -24    2    3    3    0    0  0.20582315127E+02 -0.14482933449E+02 -0.24909977846E+02  0.96309430340E+02  0.89563454148E+02 0.  0.
          6    2    1    2  501    0 -0.18117500314E+01  0.66860996992E+02 -0.13346167148E+03  0.22758765270E+03  0.17178604877E+03 0.  0.
         24    2    5    5    0    0 -0.39298906235E+02  0.14987143366E+02 -0.12895013800E+02  0.91005836510E+02  0.79666570156E+02 0.  0.
          5    1    5    5  501    0  0.37487156204E+02  0.51873853626E+02 -0.12056665768E+03  0.13658181619E+03  0.47000000000E+01 0. -1.
        -13    1    6    6    0    0 -0.28488292817E+01 -0.26502652246E+02 -0.22582996208E+02  0.34935628262E+02  0.00000000000E+00 0.  1.
         14    1    6    6    0    0 -0.36450076953E+02  0.41489795612E+02  0.96879824075E+01  0.56070208248E+02  0.00000000000E+00 0. -1.
         -5    1    3    3    0  503 -0.18770565096E+02 -0.52378063543E+02  0.76505235482E+02  0.94715028959E+02  0.47000000000E+01 0.  1.
         13    1    4    4    0    0 -0.29659226901E+02  0.13475998574E+02 -0.20830981051E+02  0.38667842576E+02  0.00000000000E+00 0. -1.
        -14    1    4    4    0    0  0.50241542028E+02 -0.27958932022E+02 -0.40789967950E+01  0.57641587765E+02  0.00000000000E+00 0.  1.
</event>
<event>
12    1  0.1039610E+000  0.2373943E+03  0.7818608E-02  0.1121991E+00
         21   -1    0    0  503  502  0.00000000000E+00  0.00000000000E+00  0.18072693300E+03  0.18072693300E+03  0.00000000000E+00 0. -1.
         21   -1    0    0  501  503 -0.00000000000E+00 -0.00000000000E+00 -0.30940139125E+03  0.30940139125E+03  0.00000000000E+00 0. -1.
          6    2    1    2  501    0  0.12714616972E+03  0.95959659745E+02 -0.50489076858E+02  0.24270394726E+03  0.17601606279E+03 0.  0.
         24    2    3    3    0    0  0.57874373907E+02  0.11645278945E+03 -0.67565926149E+02  0.16832479129E+03  0.82809333182E+02 0.  0.
         -6    2    1    2    0  502 -0.12714616972E+03 -0.95959659745E+02 -0.78185381387E+02  0.24742437699E+03  0.17242814067E+03 0.  0.
        -24    2    5    5    0    0 -0.78499540204E+02 -0.25393434010E+01  0.48841539835E+01  0.11319886610E+03  0.81372613626E+02 0.  0.
          5    1    3    3  501    0  0.69271795811E+02 -0.20493129703E+02  0.17076849292E+02  0.74379155962E+02  0.47000000000E+01 0. -1.
        -11    1    4    4    0    0  0.65964740319E+02  0.93083844203E+02 -0.81249003705E+02  0.14006194922E+03  0.00000000000E+00 0.  1.
         12    1    4    4    0    0 -0.80903664114E+01  0.23368945245E+02  0.13683077555E+02  0.28262842071E+02  0.00000000000E+00 0. -1.
         -5    1    5    5    0  502 -0.48646629515E+02 -0.93420316344E+02 -0.83069535370E+02  0.13422551090E+03  0.47000000000E+01 0.  1.
         13    1    6    6    0    0 -0.90973853630E+02  0.12335118742E+02 -0.39044645293E+01  0.91889292313E+02  0.00000000000E+00 0. -1.
        -14    1    6    6    0    0  0.12474313426E+02 -0.14874462143E+02  0.87886185128E+01  0.21309573784E+02  0.00000000000E+00 0.  1.
</event>
<event>
12    1  0.1039610E+000  0.3725052E+03  0.7818608E-02  0.1053806E+00
         21   -1    0    0  501  502  0.00000000000E+00  0.00000000000E+00  0.66566497277E+03  0.66566497277E+03  0.00000000000E+00 0. -1.
         21   -1    0    0  502  503 -0.00000000000E+00 -0.00000000000E+00 -0.20902896704E+03  0.20902896704E+03  0.00000000000E+00 0. -1.
         -6    2    1    2    0  503  0.27604410413E+03 -0.18007531178E+03  0.19874904203E+03  0.42221000461E+03  0.17358755990E+03 0.  0.
        -24    2    3    3    0    0  0.17428991367E+03 -0.52772377744E+02  0.59329489896E+02  0.20768761929E+03  0.80325966989E+02 0.  0.
          6    2    1    2  501    0 -0.27604410413E+03  0.18007531178E+03  0.25788696370E+03  0.45248393519E+03  0.17207138118E+03 0.  0.
         24    2    5    5    0    0 -0.27803044157E+03  0.16132245066E+03  0.18971800330E+03  0.38159872870E+03  0.79365039177E+02 0.  0.
          5    1    5    5  501    0  0.19863374435E+01  0.18752861126E+02  0.68168960405E+02  0.70885206493E+02  0.47000000000E+01 0. -1.
        -11    1    6    6    0    0 -0.14303202969E+03  0.48443067710E+02  0.57909594664E+02  0.16173562836E+03  0.00000000000E+00 0.  1.
         12    1    6    6    0    0 -0.13499841188E+03  0.11287938295E+03  0.13180840864E+03  0.21986310034E+03  0.00000000000E+00 0. -1.
         -5    1    3    3    0  503  0.10175419046E+03 -0.12730293404E+03  0.13941955213E+03  0.21452238533E+03  0.47000000000E+01 0.  1.
         11    1    4    4    0    0 -0.74887082113E+01  0.36363499904E+01 -0.82201630198E-03  0.83248899454E+01  0.00000000000E+00 0. -1.
        -12    1    4    4    0    0  0.18177862188E+03 -0.56408727735E+02  0.59330311912E+02  0.19936272934E+03  0.00000000000E+00 0.  1.
</event>
<event>
12    1  0.1039610E+000  0.4956914E+03  0.7818608E-02  0.1014923E+00
         21   -1    0    0  503  502  0.00000000000E+00  0.00000000000E+00  0.15435160426E+03  0.15435160426E+03  0.00000000000E+00 0. -1.
         21   -1    0    0  501  503 -0.00000000000E+00 -0.00000000000E+00 -0.18291688207E+04  0.18291688207E+04  0.00000000000E+00 0.  1.
          6    2    1    2  501    0  0.21131125235E+03 -0.41393715265E+03 -0.47986805675E+03  0.68991544345E+03  0.17237620343E+03 0.  0.
         24    2    3    3    0    0  0.23186977357E+02 -0.12468778313E+03 -0.16626859895E+03  0.22362942550E+03  0.79247673591E+02 0.  0.
         -6    2    1    2    0  502 -0.21131125235E+03  0.41393715265E+03 -0.11949491597E+04  0.12936049815E+04  0.17179622291E+03 0.  0.
        -24    2    5    5    0    0 -0.36476458287E+02  0.11130608742E+03 -0.28171978521E+03  0.31576923493E+03  0.81391616547E+02 0.  0.
          5    1    3    3  501    0  0.18812427499E+03 -0.28924936952E+03 -0.31359945781E+03  0.46628601796E+03  0.47000000000E+01 0. -1.
        -11    1    4    4    0    0  0.21989161077E+02 -0.80155596686E+02 -0.45172512440E+02  0.94599147803E+02  0.00000000000E+00 0.  1.
         12    1    4    4    0    0  0.11978162793E+01 -0.44532186448E+02 -0.12109608651E+03  0.12903027769E+03  0.00000000000E+00 0. -1.
         -5    1    5    5    0  502 -0.17483479406E+03  0.30263106523E+03 -0.91322937446E+03  0.97783574655E+03  0.47000000000E+01 0.  1.
         13    1    6    6    0    0  0.51621825572E+01  0.93774123614E+02 -0.22064041522E+03  0.23979663721E+03  0.00000000000E+00 0. -1.
        -14    1    6    6    0    0 -0.41638640844E+02  0.17531963806E+02 -0.61079369992E+02  0.75972597724E+02  0.00000000000E+00 0.  1.
</event>
<event>
12    1  0.1039610E+000  0.2115545E+03  0.7818608E-02  0.1140864E+00
         21   -1    0    0  503  502  0.00000000000E+00  0.00000000000E+00  0.17908434173E+03  0.17908434173E+03  0.00000000000E+00 0.  1.
         21   -1    0    0  501  503 -0.00000000000E+00 -0.00000000000E+00 -0.28881679377E+03  0.28881679377E+03  0.00000000000E+00 0.  1.
          6    2    1    2  501    0 -0.69699417881E+02 -0.10093417418E+03  0.34078882330E+02  0.21428176248E+03  0.17236469227E+03 0.  0.
         24    2    3    3    0    0 -0.47175298224E+02 -0.82166750700E+02 -0.43960825169E+02  0.13078422900E+03  0.78708809692E+02 0.  0.
         -6    2    1    2    0  502  0.69699417881E+02  0.10093417418E+03 -0.14381133437E+03  0.25361937302E+03  0.16910165614E+03 0.  0.
        -24    2    5    5    0    0  0.22118119802E+02  0.92255500887E+02 -0.16078323175E+03  0.20214671428E+03  0.77535526146E+02 0.  0.
          5    1    3    3  501    0 -0.22524119657E+02 -0.18767423478E+02  0.78039707499E+02  0.83497533478E+02  0.47000000000E+01 0. -1.
        -11    1    4    4    0    0 -0.47539894346E+02 -0.15383073104E+02 -0.39781360805E+02  0.63868906050E+02  0.00000000000E+00 0.  1.
         12    1    4    4    0    0  0.36459612181E+00 -0.66783677595E+02 -0.41794643649E+01  0.66915322953E+02  0.00000000000E+00 0. -1.
         -5    1    5    5    0  502  0.47581298079E+02  0.86786732909E+01  0.16971897384E+02  0.51472658741E+02  0.47000000000E+01 0.  1.
         11    1    6    6    0    0  0.25607236803E+02 -0.15850065814E+01 -0.55039526795E+02  0.60725549256E+02  0.00000000000E+00 0. -1.
        -12    1    6    6    0    0 -0.34891170016E+01  0.93840507468E+02 -0.10574370496E+03  0.14142116503E+03  0.00000000000E+00 0.  1.
</event>
<event>
12    1  0.1039610E+000  0.2564110E+03  0.7818608E-02  0.1109345E+00
         21   -1    0    0  501  502  0.00000000000E+00  0.00000000000E+00  0.11992256882E+04  0.11992256882E+04  0.00000000000E+00 0.  1.
         21   -1    0    0  502  503 -0.00000000000E+00 -0.00000000000E+00 -0.61380947097E+02  0.61380947097E+02  0.00000000000E+00 0.  1.
         -6    2    1    2    0  503  0.14133393894E+03  0.12681463589E+03  0.36217859806E+03  0.44365829904E+03  0.17205265253E+03 0.  0.
        -24    2    3    3    0    0  0.17361181526E+03  0.11251338868E+03  0.30714607404E+03  0.37810636794E+03  0.76324240221E+02 0.  0.
          6    2    1    2  501    0 -0.14133393894E+03 -0.12681463589E+03  0.77566614308E+03  0.81694833630E+03  0.17230607790E+03 0.  0.
         24    2    5    5    0    0 -0.54263861795E+02 -0.39077301364E+02  0.55203121713E+03  0.56138286854E+03  0.77075665585E+02 0.  0.
          5    1    5    5  501    0 -0.87070077144E+02 -0.87737334529E+02  0.22363492595E+03  0.25556546775E+03  0.47000000000E+01 0. -1.
        -13    1    6    6    0    0  0.84317270441E+01 -0.35602159966E+02  0.14542565687E+03  0.14995742559E+03  0.00000000000E+00 0.  1.
         14    1    6    6    0    0 -0.62695588839E+02 -0.34751413982E+01  0.40660556027E+03  0.41142544295E+03  0.00000000000E+00 0. -1.
         -5    1    3    3    0  503 -0.32277876319E+02  0.14301247211E+02  0.55032524020E+02  0.65551931104E+02  0.47000000000E+01 0.  1.
         13    1    4    4    0    0  0.10894113160E+03  0.10077961020E+03  0.25133818730E+03  0.29188282646E+03  0.00000000000E+00 0. -1.
        -14    1    4    4    0    0  0.64670683660E+02  0.11733778481E+02  0.55807886741E+02  0.86223541478E+02  0.00000000000E+00 0.  1.
</event>
<event>
12    1  0.1039610E+000  0.7414806E+03  0.7818608E-02  0.9648876E-01
         21   -1    0    0  501  502  0.00000000000E+00  0.00000000000E+00  0.16883913127E+04  0.16883913127E+04  0.00000000000E+00 0. -1.
         21   -1    0    0  502  503 -0.00000000000E+00 -0.00000000000E+00 -0.42530292866E+03  0.42530292866E+03  0.00000000000E+00 0.  1.
         -6    2    1    2    0  503  0.37837363119E+03 -0.61400780960E+03  0.11968955837E+03  0.75091973108E+03  0.17141370165E+03 0.  0.
        -24    2    3    3    0    0  0.36070714364E+03 -0.55723584418E+03  0.14794579106E+03  0.68492226502E+03  0.81296509928E+02 0.  0.
          6    2    1    2  501    0 -0.37837363119E+03  0.61400780960E+03  0.11433988257E+04  0.13627745103E+04  0.17210838535E+03 0.  0.
         24    2    5    5    0    0 -0.16533610743E+03  0.38348776974E+03  0.57104069522E+03  0.70998021282E+03  0.59879287263E+02 0.  0.
          5    1    5    5  501    0 -0.21303752376E+03  0.23052003986E+03  0.57235813043E+03  0.65279429744E+03  0.47000000000E+01 0. -1.
        -13    1    6    6    0    0 -0.47169115431E+01  0.64330447370E+02  0.92491350288E+02  0.11276216383E+03  0.00000000000E+00 0.  1.
         14    1    6    6    0    0 -0.16061919588E+03  0.31915732237E+03  0.47854934494E+03  0.59721804899E+03  0.00000000000E+00 0. -1.
         -5    1    3    3    0  503  0.17666487554E+02 -0.56771965418E+02 -0.28256232686E+02  0.65997466054E+02  0.47000000000E+01 0.  1.
         11    1    4    4    0    0  0.23158017771E+03 -0.37023281370E+03  0.13589442472E+03  0.45734998603E+03  0.00000000000E+00 0. -1.
        -12    1    4    4    0    0  0.12912696592E+03 -0.18700303047E+03  0.12051366335E+02  0.22757227899E+03  0.00000000000E+00 0.  1.
</event>
<event>
12    1  0.1039610E+000  0.1835820E+03  0.7818608E-02  0.1164546E+00
         21   -1    0    0  501  502  0.00000000000E+00  0.00000000000E+00  0.17307927932E+03  0.17307927932E+03  0.00000000000E+00 0. -1.
         21   -1    0    0  502  503 -0.00000000000E+00 -0.00000000000E+00 -0.64224015400E+03  0.64224015400E+03  0.00000000000E+00 0. -1.
         -6    2    1    2    0  503  0.64536029894E+02  0.57139947992E+01 -0.57529063621E+03  0.60387223998E+03  0.17176966325E+03 0.  0.
        -24    2    3    3    0    0 -0.19627191784E+02  0.24963192498E+02 -0.39102602053E+03  0.40032981666E+03  0.79713397525E+02 0.  0.
          6    2    1    2  501    0 -0.64536029894E+02 -0.57139947992E+01  0.10612976153E+03  0.21144719334E+03  0.17102292360E+03 0.  0.
         24    2    5    5    0    0 -0.12476106698E+02  0.48680846126E+02  0.10678933720E+03  0.13600476918E+03  0.67585920735E+02 0.  0.
          5    1    5    5  501    0 -0.52059923196E+02 -0.54394840925E+02 -0.65957567357E+00  0.75442424156E+02  0.47000000000E+01 0. -1.
        -13    1    6    6    0    0 -0.34994535742E+02  0.63336390699E+01  0.54232789938E+02  0.64853126525E+02  0.00000000000E+00 0.  1.
         14    1    6    6    0    0  0.22518429044E+02  0.42347207056E+02  0.52556547265E+02  0.71151642654E+02  0.00000000000E+00 0. -1.
         -5    1    3    3    0  503  0.84163221679E+02 -0.19249197699E+02 -0.18426461569E+03  0.20354242332E+03  0.47000000000E+01 0.  1.
         13    1    4    4    0    0 -0.81161197057E+01  0.33219072591E+02 -0.60462236010E+02  0.69462653032E+02  0.00000000000E+00 0. -1.
        -14    1    4    4    0    0 -0.11511072079E+02 -0.82558800934E+01 -0.33056378452E+03  0.33086716363E+03  0.00000000000E+00 0.  1.
</event>
<event>
12    1  0.1039610E+000  0.1978178E+03  0.7818608E-02  0.1151602E+00
         21   -1    0    0  501  502  0.00000000000E+00  0.00000000000E+00  0.39285980127E+03  0.39285980127E+03  0.00000000000E+00 0. -1.
         21   -1    0    0  502  503 -0.00000000000E+00 -0.00000000000E+00 -0.10076735179E+03  0.10076735179E+03  0.00000000000E+00 0. -1.
         -6    2    1    2    0  503  0.90577903314E+02 -0.37541374455E+02  0.11934180985E+03  0.23102885111E+03  0.17180847215E+03 0.  0.
        -24    2    3    3    0    0  0.27372689188E+02 -0.76711942799E+02  0.34578146181E+02  0.11817407188E+03  0.78329284372E+02 0.  0.
          6    2    1    2  501    0 -0.90577903314E+02  0.37541374455E+02  0.17275063963E+03  0.26259830194E+03  0.17175963824E+03 0.  0.
         24    2    5    5    0    0 -0.10494250600E+03  0.79131016734E+02  0.15098672814E+03  0.21328503802E+03  0.73612960786E+02 0.  0.
          5    1    5    5  501    0  0.14364602687E+02 -0.41589642279E+02  0.21763911489E+02  0.49313263921E+02  0.47000000000E+01 0. -1.
        -11    1    6    6    0    0 -0.34295531887E+02  0.33957246972E+02  0.10064126922E+02  0.49300758412E+02  0.00000000000E+00 0.  1.
         12    1    6    6    0    0 -0.70646974114E+02  0.45173769762E+02  0.14092260122E+03  0.16398427961E+03  0.00000000000E+00 0. -1.
         -5    1    3    3    0  503  0.63205214126E+02  0.39170568344E+02  0.84763663666E+02  0.11285477923E+03  0.47000000000E+01 0.  1.
         13    1    4    4    0    0  0.18363849092E+01 -0.75684536316E+02  0.66559261232E+00  0.75709737554E+02  0.00000000000E+00 0. -1.
        -14    1    4    4    0    0  0.25536304279E+02 -0.10274064829E+01  0.33912553569E+02  0.42464334328E+02  0.00000000000E+00 0.  1.
</event>
<event>
12    1  0.1039610E+000  0.1747516E+03  0.7818608E-02  0.1176492E+00
         21   -1    0    0  503  502  0.00000000000E+00  0.00000000000E+00  0.40471694655E+03  0.40471694655E+03  0.00000000000E+00 0.  1.
         21   -1    0    0  501  503 -0.00000000000E+00 -0.00000000000E+00 -0.10568226646E+03  0.10568226646E+03  0.00000000000E+00 0.  1.
          6    2    1    2  501    0  0.23958870515E+02 -0.13376508148E+02 -0.30581553071E+01  0.16140323918E+03  0.15902419582E+03 0.  0.
         24    2    3    3    0    0  0.59400175562E+02  0.31461195429E+02 -0.95427703184E+01  0.10369148996E+03  0.78375206224E+02 0.  0.
         -6    2    1    2    0  502 -0.23958870515E+02  0.13376508148E+02  0.30209283540E+03  0.34899597383E+03  0.17258374809E+03 0.  0.
        -24    2    5    5    0    0 -0.63685579426E+02  0.10230224210E+02  0.10351284047E+03  0.14640225505E+03  0.80982724254E+02 0.  0.
          5    1    3    3  501    0 -0.35441305047E+02 -0.44837703578E+02  0.64846150114E+01  0.57711749214E+02  0.47000000000E+01 0. -1.
        -13    1    4    4    0    0  0.31867506852E+01  0.45249996451E+02 -0.48908817345E+01  0.45624974333E+02  0.00000000000E+00 0.  1.
         14    1    4    4    0    0  0.56213424876E+02 -0.13788801022E+02 -0.46518885839E+01  0.58066515629E+02  0.00000000000E+00 0. -1.
         -5    1    5    5    0  502  0.39726708912E+02  0.31462839388E+01  0.19857999492E+03  0.20259371877E+03  0.47000000000E+01 0.  1.
         13    1    6    6    0    0 -0.52153697676E+02  0.42452068778E+02  0.81710138807E+02  0.10582406677E+03  0.00000000000E+00 0. -1.
        -14    1    6    6    0    0 -0.11531881750E+02 -0.32221844568E+02  0.21802701668E+02  0.40578188280E+02  0.00000000000E+00 0.  1.
</event>
<event>
12    1  0.1039610E+000  0.1767406E+03  0.7818608E-02  0.1171877E+00
         21   -1    0    0  501  502  0.00000000000E+00  0.00000000000E+00  0.14541090120E+04  0.14541090120E+04  0.00000000000E+00 0. -1.
         21   -1    0    0  502  503 -0.00000000000E+00 -0.00000000000E+00 -0.23401767916E+02  0.23401767916E+02  0.00000000000E+00 0. -1.
         -6    2    1    2    0  503  0.25099345874E+01  0.17537743339E+02  0.95568166135E+03  0.97188717211E+03  0.17585040588E+03 0.  0.
        -24    2    3    3    0    0  0.61729783650E+02  0.33488103238E+02  0.74012576673E+03  0.74772687632E+03  0.79858072458E+02 0.  0.
          6    2    1    2  501    0 -0.25099345874E+01 -0.17537743339E+02  0.47502558270E+03  0.50562360778E+03  0.17231383087E+03 0.  0.
         24    2    5    5    0    0 -0.66519234191E+02 -0.25476315476E+02  0.26614069151E+03  0.28695673985E+03  0.80246194292E+02 0.  0.
          5    1    5    5  501    0  0.64009299603E+02  0.79385721374E+01  0.20888489119E+03  0.21866686793E+03  0.47000000000E+01 0. -1.
        -11    1    6    6    0    0 -0.21740839503E+02  0.28560020124E+02  0.11154829172E+03  0.11718088683E+03  0.00000000000E+00 0.  1.
         12    1    6    6    0    0 -0.44778394687E+02 -0.54036335600E+02  0.15459239979E+03  0.16977585302E+03  0.00000000000E+00 0. -1.
         -5    1    3    3    0  503 -0.59219849062E+02 -0.15950359899E+02  0.21555589462E+03  0.22416029579E+03  0.47000000000E+01 0.  1.
         11    1    4    4    0    0  0.64270731563E+02 -0.56639371947E+01  0.53558120520E+03  0.53945345905E+03  0.00000000000E+00 0. -1.
        -12    1    4    4    0    0 -0.25409479134E+01  0.39152040432E+02  0.20454456154E+03  0.20827341727E+03  0.00000000000E+00 0.  1.
</event>
<event>
12    1  0.1039610E+000  0.2350796E+03  0.7818608E-02  0.1123563E+00
         21   -1    0    0  501  502  0.00000000000E+00  0.00000000000E+00  0.33253564886E+03  0.33253564886E+03  0.00000000000E+00 0.  1.
         21   -1    0    0  502  503 -0.00000000000E+00 -0.00000000000E+00 -0.63405929373E+03  0.63405929373E+03  0.00000000000E+00 0.  1.
         -6    2    1    2    0  503 -0.31254228920E+02 -0.15385916233E+03 -0.56651459701E+03  0.61235967190E+03  0.17145293954E+03 0.  0.
        -24    2    3    3    0    0 -0.83285953930E+02 -0.11194168827E+03 -0.44511083968E+03  0.47370420920E+03  0.82489554032E+02 0.  0.
          6    2    1    2  501    0  0.31254228920E+02  0.15385916233E+03  0.26499095215E+03  0.35423527069E+03  0.17496557840E+03 0.  0.
         24    2    5    5    0    0 -0.12747736446E+02  0.16729348480E+02  0.62448606393E+02  0.10566686839E+03  0.82603164281E+02 0.  0.
          5    1    5    5  501    0  0.44001965366E+02  0.13712981385E+03  0.20254234575E+03  0.24856840231E+03  0.47000000000E+01 0. -1.
        -13    1    6    6    0    0  0.16555779170E+00  0.15672737205E+02 -0.18180147028E+02  0.24003746516E+02  0.00000000000E+00 0.  1.
         14    1    6    6    0    0 -0.12913294237E+02  0.10566112758E+01  0.80628753421E+02  0.81663121870E+02  0.00000000000E+00 0. -1.
         -5    1    3    3    0  503  0.52031725010E+02 -0.41917474056E+02 -0.12140375734E+03  0.13865546269E+03  0.47000000000E+01 0.  1.
         11    1    4    4    0    0 -0.76081248495E+02 -0.43798697552E+02 -0.31028575501E+03  0.32246539666E+03  0.00000000000E+00 0. -1.
        -12    1    4    4    0    0 -0.72047054351E+01 -0.68142990721E+02 -0.13482508466E+03  0.15123881254E+03  0.00000000000E+00 0.  1.
</event>
<event>
12    1  0.1039610E+000  0.4521628E+03  0.7818608E-02  0.1027095E+00
         21   -1    0    0  503  502  0.00000000000E+00  0.00000000000E+00  0.25952804078E+04  0.25952804078E+04  0.00000000000E+00 0. -1.
         21   -1    0    0  501  503 -0.00000000000E+00 -0.00000000000E+00 -0.10180462461E+03  0.10180462461E+03  0.00000000000E+00 0.  1.
          6    2    1    2  501    0  0.40568934859E+03 -0.10059932413E+03  0.18888262890E+04  0.19421935837E+04  0.17247346187E+03 0.  0.
         24    2    3    3    0    0  0.21769163132E+03  0.12161919497E+02  0.10255779322E+04  0.10515320008E+04  0.79824150906E+02 0.  0.
         -6    2    1    2    0  502 -0.40568934859E+03  0.10059932413E+03  0.60464949417E+03  0.75489144867E+03  0.17191863455E+03 0.  0.
        -24    2    5    5    0    0 -0.10565177451E+03  0.58923728809E+02  0.14683031857E+03  0.20591067610E+03  0.78776651416E+02 0.  0.
          5    1    3    3  501    0  0.18799771727E+03 -0.11276124362E+03  0.86324835677E+03  0.89066158288E+03  0.47000000000E+01 0. -1.
        -13    1    4    4    0    0  0.17100459326E+03 -0.23911178355E+02  0.79382976335E+03  0.81239153648E+03  0.00000000000E+00 0.  1.
         14    1    4    4    0    0  0.46687038057E+02  0.36073097851E+02  0.23174816887E+03  0.23914046434E+03  0.00000000000E+00 0. -1.
         -5    1    5    5    0  502 -0.30003757408E+03  0.41675595319E+02  0.45781917560E+03  0.54898077257E+03  0.47000000000E+01 0.  1.
         11    1    6    6    0    0 -0.44581275135E+02  0.35869837491E+02  0.12432906764E+03  0.13686435765E+03  0.00000000000E+00 0. -1.
        -12    1    6    6    0    0 -0.61070499376E+02  0.23053891317E+02  0.22501250930E+02  0.69046318456E+02  0.00000000000E+00 0.  1.
</event>
<event>
12    1  0.1039610E+000  0.8092834E+03  0.7818608E-02  0.9546900E-01
         21   -1    0    0  503  502  0.00000000000E+00  0.00000000000E+00  0.22087525458E+04  0.22087525458E+04  0.00000000000E+00 0. -1.
         21   -1    0    0  501  503 -0.00000000000E+00 -0.00000000000E+00 -0.30232086434E+03  0.30232086434E+03  0.00000000000E+00 0. -1.
          6    2    1    2  501    0 -0.73734853283E+03  0.28627603424E+03  0.11309069083E+04  0.13906437309E+04  0.17118038567E+03 0.  0.
         24    2    3    3    0    0 -0.57439687462E+03  0.25811694570E+03  0.97467396311E+03  0.11630981303E+04  0.79068319668E+02 0.  0.
         -6    2    1    2    0  502  0.73734853283E+03 -0.28627603424E+03  0.77552477316E+03  0.11204296792E+04  0.16818788800E+03 0.  0.
        -24    2    5    5    0    0  0.19192360568E+03 -0.85391008668E+02  0.17906941856E+03  0.28758862316E+03  0.80715950873E+02 0.  0.
          5    1    3    3  501    0 -0.16295165821E+03  0.28159088542E+02  0.15623294514E+03  0.22754560055E+03  0.47000000000E+01 0. -1.
        -11    1    4    4    0    0 -0.46370070258E+03  0.18486944884E+03  0.72342762607E+03  0.87894401690E+03  0.00000000000E+00 0.  1.
         12    1    4    4    0    0 -0.11069617205E+03  0.73247496852E+02  0.25124633705E+03  0.28415411343E+03  0.00000000000E+00 0. -1.
         -5    1    5    5    0  502  0.54542492715E+03 -0.20088502557E+03  0.59645535461E+03  0.83284105608E+03  0.47000000000E+01 0.  1.
         11    1    6    6    0    0  0.19163928765E+03 -0.83000845346E+02  0.14690615300E+03  0.25533541604E+03  0.00000000000E+00 0. -1.
        -12    1    6    6    0    0  0.28431803916E+00 -0.23901633220E+01  0.32163265562E+02  0.32253207113E+02  0.00000000000E+00 0.  1.
</event>
<event>
12    1  0.1039610E+000  0.1981409E+03  0.7818608E-02  0.1151697E+00
         21   -1    0    0  503  502  0.00000000000E+00  0.00000000000E+00  0.10861273511E+04  0.10861273511E+04  0.00000000000E+00 0. -1.
         21   -1    0    0  501  503 -0.00000000000E+00 -0.00000000000E+00 -0.42100880059E+02  0.42100880059E+02  0.00000000000E+00 0. -1.
          6    2    1    2  501    0  0.19040604990E+01  0.95746355668E+02  0.74182748124E+03  0.76783320640E+03  0.17346132381E+03 0.  0.
         24    2    3    3    0    0 -0.59217942414E+02  0.72552617976E+02  0.59240770259E+03  0.60467007036E+03  0.76865862584E+02 0.  0.
         -6    2    1    2    0  502 -0.19040604990E+01 -0.95746355668E+02  0.30219898978E+03  0.36039502474E+03  0.17143323587E+03 0.  0.
        -24    2    5    5    0    0 -0.19517522750E+02  0.11557026951E+02  0.16907654178E+03  0.18844175744E+03  0.80055733083E+02 0.  0.
          5    1    3    3  501    0  0.61122002913E+02  0.23193737691E+02  0.14941977865E+03  0.16316313603E+03  0.47000000000E+01 0. -1.
        -11    1    4    4    0    0 -0.27929465072E+02 -0.68863478925E+01  0.76190179831E+02  0.81439672821E+02  0.00000000000E+00 0.  1.
         12    1    4    4    0    0 -0.31288477342E+02  0.79438965869E+02  0.51621752276E+03  0.52323039754E+03  0.00000000000E+00 0. -1.
         -5    1    5    5    0  502  0.17613462251E+02 -0.10730338262E+03  0.13312244800E+03  0.17195326730E+03  0.47000000000E+01 0.  1.
         13    1    6    6    0    0 -0.41436535515E+02  0.32150868053E+02  0.11869751929E+03  0.12976812350E+03  0.00000000000E+00 0. -1.
        -14    1    6    6    0    0  0.21919012765E+02 -0.20593841102E+02  0.50379022489E+02  0.58673633932E+02  0.00000000000E+00 0.  1.
</event>
<event>
12    1  0.1039610E+000  0.2162213E+03  0.7818608E-02  0.1136840E+00
         21   -1    0    0  501  502  0.00000000000E+00  0.00000000000E+00  0.30061676276E+03  0.30061676276E+03  0.00000000000E+00 0.  1.
         21   -1    0    0  502  503 -0.00000000000E+00 -0.00000000000E+00 -0.16082826436E+03  0.16082826436E+03  0.00000000000E+00 0.  1.
         -6    2    1    2    0  503 -0.91505081170E+01 -0.12932711120E+03  0.26314007101E+02  0.21725638389E+03  0.17233303770E+03 0.  0.
        -24    2    3    3    0    0 -0.64889986506E+02 -0.11287318775E+03  0.44164150628E+02  0.15627820196E+03  0.74305701974E+02 0.  0.
          6    2    1    2  501    0  0.91505081170E+01  0.12932711120E+03  0.11347449130E+03  0.24418864322E+03  0.17303872345E+03 0.  0.
         24    2    5    5    0    0  0.43770347805E+02  0.12707024589E+02  0.37474773556E+02  0.10067270335E+03  0.81567902542E+02 0.  0.
          5    1    5    5  501    0 -0.34619839687E+02  0.11662008661E+03  0.75999717744E+02  0.14351593987E+03  0.47000000000E+01 0. -1.
        -13    1    6    6    0    0  0.35650661460E+02  0.15196310396E+02 -0.19280519904E+02  0.43285516746E+02  0.00000000000E+00 0.  1.
         14    1    6    6    0    0  0.81196863448E+01 -0.24892858070E+01  0.56755293460E+02  0.57387186601E+02  0.00000000000E+00 0. -1.
         -5    1    3    3    0  503  0.55739478389E+02 -0.16453923449E+02 -0.17850143526E+02  0.60978181933E+02  0.47000000000E+01 0.  1.
         13    1    4    4    0    0 -0.72732383344E+01 -0.20524102709E+01  0.29575086161E+02  0.30525368224E+02  0.00000000000E+00 0. -1.
        -14    1    4    4    0    0 -0.57616748172E+02 -0.11082077748E+03  0.14589064467E+02  0.12575283374E+03  0.00000000000E+00 0.  1.
</event>
<event>
12    1  0.1039610E+000  0.4223111E+03  0.7818608E-02  0.1036348E+00
         21   -1    0    0  503  502  0.00000000000E+00  0.00000000000E+00  0.93751869422E+03  0.93751869422E+03  0.00000000000E+00 0. -1.
         21   -1    0    0  501  503 -0.00000000000E+00 -0.00000000000E+00 -0.20570054237E+03  0.20570054237E+03  0.00000000000E+00 0. -1.
          6    2    1    2  501    0 -0.37992438997E+03  0.65156660189E+02  0.20811438383E+03  0.47045453771E+03  0.17154574558E+03 0.  0.
         24    2    3    3    0    0 -0.31329576501E+03  0.44401000097E+01  0.19979701105E+03  0.37980607918E+03  0.78484783818E+02 0.  0.
         -6    2    1    2    0  502  0.37992438997E+03 -0.65156660189E+02  0.52370376802E+03  0.67276469889E+03  0.17250730701E+03 0.  0.
        -24    2    5    5    0    0  0.15917479948E+03  0.20576044730E-01  0.31124524420E+03  0.35949298269E+03  0.83815185708E+02 0.  0.
          5    1    3    3  501    0 -0.66628624958E+02  0.60716560179E+02  0.83173727837E+01  0.90648458530E+02  0.47000000000E+01 0. -1.
        -13    1    4    4    0    0 -0.59505318502E+02  0.30100450760E+02  0.28362893283E+02  0.72466363104E+02  0.00000000000E+00 0.  1.
         14    1    4    4    0    0 -0.25379044651E+03 -0.25660350751E+02  0.17143411777E+03  0.30733971607E+03  0.00000000000E+00 0. -1.
         -5    1    5    5    0  502  0.22074959050E+03 -0.65177236233E+02  0.21245852382E+03  0.31327171620E+03  0.47000000000E+01 0.  1.
         11    1    6    6    0    0 -0.90530066117E+00 -0.16623731037E+02  0.49509507259E+02  0.52233699006E+02  0.00000000000E+00 0. -1.
        -12    1    6    6    0    0  0.16008010014E+03  0.16644307081E+02  0.26173573694E+03  0.30725928369E+03  0.00000000000E+00 0.  1.
</event>
<event>
12    1  0.1039610E+000  0.2174534E+03  0.7818608E-02  0.1136120E+00
         21   -1    0    0  501  502  0.00000000000E+00  0.00000000000E+00  0.34608912515E+03  0.34608912515E+03  0.00000000000E+00 0.  1.
         21   -1    0    0  502  503 -0.00000000000E+00 -0.00000000000E+00 -0.13888197818E+03  0.13888197818E+03  0.00000000000E+00 0.  1.
         -6    2    1    2    0  503  0.12861518532E+03 -0.28116798811E+02  0.14149654676E+03  0.25943637540E+03  0.17307090993E+03 0.  0.
        -24    2    3    3    0    0  0.10789269404E+03 -0.73456449278E+02  0.60758588670E+02  0.16443209431E+03  0.79433142788E+02 0.  0.
          6    2    1    2  501    0 -0.12861518532E+03  0.28116798811E+02  0.65710600212E+02  0.22553472794E+03  0.17092574486E+03 0.  0.
         24    2    5    5    0    0 -0.12847388477E+03 -0.18669125690E+02  0.10167215144E+02  0.15276041707E+03  0.79864243812E+02 0.  0.
          5    1    5    5  501    0 -0.14130054882E+00  0.46785924501E+02  0.55543385068E+02  0.72774310866E+02  0.47000000000E+01 0. -1.
        -11    1    6    6    0    0  0.20945303169E+01  0.43326645184E+01 -0.16792162562E+02  0.17468135636E+02  0.00000000000E+00 0.  1.
         12    1    6    6    0    0 -0.13056841509E+03 -0.23001790208E+02  0.26959377706E+02  0.13529228144E+03  0.00000000000E+00 0. -1.
         -5    1    3    3    0  503  0.20722491278E+02  0.45339650467E+02  0.80737958087E+02  0.95004281089E+02  0.47000000000E+01 0.  1.
         13    1    4    4    0    0  0.10621986412E+02  0.15838803047E+02 -0.25266259939E-01  0.19070786971E+02  0.00000000000E+00 0. -1.
        -14    1    4    4    0    0  0.97270707627E+02 -0.89295252325E+02  0.60783854930E+02  0.14536130734E+03  0.00000000000E+00 0.  1.
</event>
<event>
12    1  0.1039610E+000  0.5046332E+03  0.7818608E-02  0.1012695E+00
         21   -1    0    0  503  502  0.00000000000E+00  0.00000000000E+00  0.38712387423E+03  0.38712387423E+03  0.00000000000E+00 0.  1.
         21   -1    0    0  501  503 -0.00000000000E+00 -0.00000000000E+00 -0.80756390321E+03  0.80756390321E+03  0.00000000000E+00 0. -1.
          6    2    1    2  501    0 -0.27665909939E+03 -0.38235108961E+03  0.49366254486E+02  0.50521507547E+03  0.17341462568E+03 0.  0.
         24    2    3    3    0    0 -0.23945728769E+03 -0.38809232422E+03  0.33979469250E+02  0.46427878682E+03  0.80279155541E+02 0.  0.
         -6    2    1    2    0  502  0.27665909939E+03  0.38235108961E+03 -0.46980628347E+03  0.68947270197E+03  0.17866742785E+03 0.  0.
        -24    2    5    5    0    0  0.11497527904E+03  0.23636661349E+03 -0.32767574573E+03  0.42932600338E+03  0.88661897528E+02 0.  0.
          5    1    3    3  501    0 -0.37201811703E+02  0.57412346096E+01  0.15386785236E+02  0.40936288654E+02  0.47000000000E+01 0. -1.
        -11    1    4    4    0    0 -0.89083603598E+02 -0.14534528189E+03  0.51812707420E+02  0.17817321922E+03  0.00000000000E+00 0.  1.
         12    1    4    4    0    0 -0.15037368409E+03 -0.24274704233E+03 -0.17833238170E+02  0.28610556759E+03  0.00000000000E+00 0. -1.
         -5    1    5    5    0  502  0.16168382035E+03  0.14598447612E+03 -0.14213053774E+03  0.26014669859E+03  0.47000000000E+01 0.  1.
         11    1    6    6    0    0  0.98771153605E+02  0.14181319888E+03 -0.25892669041E+03  0.31130331699E+03  0.00000000000E+00 0. -1.
        -12    1    6    6    0    0  0.16204125434E+02  0.94553414606E+02 -0.68749055321E+02  0.11802268639E+03  0.00000000000E+00 0.  1.
</event>
<event>
12    1  0.1039610E+000  0.1884572E+03  0.7818608E-02  0.1160057E+00
         21   -1    0    0  503  502  0.00000000000E+00  0.00000000000E+00  0.19284011553E+03  0.19284011553E+03  0.00000000000E+00 0. -1.
         21   -1    0    0  501  503 -0.00000000000E+00 -0.00000000000E+00 -0.18368589741E+03  0.18368589741E+03  0.00000000000E+00 0. -1.
          6    2    1    2  501    0  0.73603356046E+02  0.21103883308E+02  0.12841636930E+02  0.18803269803E+03  0.17125583196E+03 0.  0.
         24    2    3    3    0    0  0.34833942028E+02 -0.53660489968E+02  0.33880456452E+02  0.10109880992E+03  0.70570761211E+02 0.  0.
         -6    2    1    2    0  502 -0.73603356046E+02 -0.21103883308E+02 -0.36874188102E+01  0.18849331490E+03  0.17220134957E+03 0.  0.
        -24    2    5    5    0    0 -0.13464114949E+02 -0.71106629904E+02  0.15623778769E+02  0.10779625586E+03  0.78348548844E+02 0.  0.
          5    1    3    3  501    0  0.38769414018E+02  0.74764373277E+02 -0.21038819522E+02  0.86933888108E+02  0.47000000000E+01 0. -1.
        -13    1    4    4    0    0 -0.17823449816E+02 -0.33576945293E+02  0.69769719070E+01  0.38649252975E+02  0.00000000000E+00 0.  1.
         14    1    4    4    0    0  0.52657391844E+02 -0.20083544675E+02  0.26903484545E+02  0.62449556950E+02  0.00000000000E+00 0. -1.
         -5    1    5    5    0  502 -0.60139241097E+02  0.50002746595E+02 -0.19311197579E+02  0.80697059046E+02  0.47000000000E+01 0.  1.
         11    1    6    6    0    0  0.20669451773E+02 -0.59826375115E+02  0.28757858211E+02  0.69522915682E+02  0.00000000000E+00 0. -1.
        -12    1    6    6    0    0 -0.34133566723E+02 -0.11280254788E+02 -0.13134079442E+02  0.38273340174E+02  0.00000000000E+00 0.  1.
</event>
<event>
12    1  0.1039610E+000  0.8042231E+03  0.7818608E-02  0.9553985E-01
         21   -1    0    0  501  502  0.00000000000E+00  0.00000000000E+00  0.13215741887E+04  0.13215741887E+04  0.00000000000E+00 0.  1.
         21   -1    0    0  502  503 -0.00000000000E+00 -0.00000000000E+00 -0.51923271613E+03  0.51923271613E+03  0.00000000000E+00 0.  1.
         -6    2    1    2    0  503  0.71947322554E+03 -0.31498807833E+03  0.18019943404E+03  0.82416422808E+03  0.17296134559E+03 0.  0.
        -24    2    3    3    0    0  0.64698931513E+03 -0.31375776695E+03  0.12844934692E+03  0.73497010019E+03  0.81502780501E+02 0.  0.
          6    2    1    2  501    0 -0.71947322554E+03  0.31498807833E+03  0.62214203856E+03  0.10166426768E+04  0.17216969631E+03 0.  0.
         24    2    5    5    0    0 -0.49125166576E+03  0.26531407099E+03  0.49721802787E+03  0.75172630166E+03  0.78402232069E+02 0.  0.
          5    1    5    5  501    0 -0.22822155978E+03  0.49674007340E+02  0.12492401068E+03  0.26491637510E+03  0.47000000000E+01 0. -1.
        -11    1    6    6    0    0 -0.37036920694E+03  0.23675547458E+03  0.38962592907E+03  0.58739668776E+03  0.00000000000E+00 0.  1.
         12    1    6    6    0    0 -0.12088245882E+03  0.28558596408E+02  0.10759209881E+03  0.16432961390E+03  0.00000000000E+00 0. -1.
         -5    1    3    3    0  503  0.72483910404E+02 -0.12303113767E+01  0.51750087122E+02  0.89194127894E+02  0.47000000000E+01 0.  1.
         13    1    4    4    0    0  0.48095704135E+03 -0.25470106920E+03  0.67015369161E+02  0.54834603125E+03  0.00000000000E+00 0. -1.
        -14    1    4    4    0    0  0.16603227378E+03 -0.59056697750E+02  0.61433977758E+02  0.18662406894E+03  0.00000000000E+00 0.  1.
</event>
<event>
12    1  0.1039610E+000  0.1822195E+03  0.7818608E-02  0.1166856E+00
         21   -1    0    0  501  502  0.00000000000E+00  0.00000000000E+00  0.26790890251E+03  0.26790890251E+03  0.00000000000E+00 0. -1.
         21   -1    0    0  502  503 -0.00000000000E+00 -0.00000000000E+00 -0.12329983238E+03  0.12329983238E+03  0.00000000000E+00 0. -1.
         -6    2    1    2    0  503  0.42867524854E+02 -0.12205428028E+02  0.10205696767E+03  0.20885297706E+03  0.17668430666E+03 0.  0.
        -24    2    3    3    0    0  0.48521618123E+02  0.48575913972E+02  0.10158455743E+03  0.14762672879E+03  0.82220811860E+02 0.  0.
          6    2    1    2  501    0 -0.42867524854E+02  0.12205428028E+02  0.42552102465E+02  0.18235575783E+03  0.17162850530E+03 0.  0.
         24    2    5    5    0    0 -0.79692721946E+02  0.44596675413E+02  0.53515912032E+02  0.13188216901E+03  0.78671216299E+02 0.  0.
          5    1    5    5  501    0  0.36825197092E+02 -0.32391247386E+02 -0.10963809567E+02  0.50473588819E+02  0.47000000000E+01 0. -1.
        -11    1    6    6    0    0  0.57929457355E+01  0.16196317138E+01  0.33620985094E+02  0.34154824928E+02  0.00000000000E+00 0.  1.
         12    1    6    6    0    0 -0.85485667682E+02  0.42977043700E+02  0.19894926938E+02  0.97727344085E+02  0.00000000000E+00 0. -1.
         -5    1    3    3    0  503 -0.56540932685E+01 -0.60781342000E+02  0.47241024115E+00  0.61226248272E+02  0.47000000000E+01 0.  1.
         11    1    4    4    0    0  0.40989538341E+02 -0.11914279596E+02  0.60783575742E+02  0.74274729159E+02  0.00000000000E+00 0. -1.
        -12    1    4    4    0    0  0.75320797816E+01  0.60490193568E+02  0.40800981685E+02  0.73351999633E+02  0.00000000000E+00 0.  1.
</event>
<event>
12    1  0.1039610E+000  0.1924354E+03  0.7818608E-02  0.1156539E+00
         21   -1    0    0  503  502  0.00000000000E+00  0.00000000000E+00  0.21127367945E+03  0.21127367945E+03  0.00000000000E+00 0. -1.
         21   -1    0    0  501  503 -0.00000000000E+00 -0.00000000000E+00 -0.33751119084E+03  0.33751119084E+03  0.00000000000E+00 0. -1.
          6    2    1    2  501    0 -0.83515967029E+02 -0.17355249997E+02 -0.25406662716E+03  0.31871810553E+03  0.17249712550E+03 0.  0.
         24    2    3    3    0    0 -0.40040741583E+02  0.31161671345E+02 -0.54286613993E+02  0.10853216274E+03  0.79106783170E+02 0.  0.
         -6    2    1    2    0  502  0.83515967029E+02  0.17355249997E+02  0.12782911577E+03  0.23006676476E+03  0.17121422826E+03 0.  0.
        -24    2    5    5    0    0  0.10934985477E+03  0.15898721885E+02  0.14598243734E+03  0.19811141601E+03  0.75677612577E+02 0.  0.
          5    1    3    3  501    0 -0.43475225445E+02 -0.48516921342E+02 -0.19978001317E+03  0.21018594279E+03  0.47000000000E+01 0. -1.
        -13    1    4    4    0    0 -0.25711368914E+02  0.53778123398E+02 -0.55887862743E+02  0.81710551642E+02  0.00000000000E+00 0.  1.
         14    1    4    4    0    0 -0.14329372670E+02 -0.22616452053E+02  0.16012487501E+01  0.26821611102E+02  0.00000000000E+00 0. -1.
         -5    1    5    5    0  502 -0.25833887740E+02  0.14565281118E+01 -0.18153321572E+02  0.31955348754E+02  0.47000000000E+01 0.  1.
         13    1    6    6    0    0  0.38083065959E+02  0.30994526817E+02  0.10150834093E+03  0.11276047129E+03  0.00000000000E+00 0. -1.
        -14    1    6    6    0    0  0.71266788809E+02 -0.15095804932E+02  0.44474096406E+02  0.85350944722E+02  0.00000000000E+00 0.  1.
</event>
<event>
12    1  0.1039610E+000  0.2017139E+03  0.7818608E-02  0.1150591E+00
         21   -1    0    0  503  502  0.00000000000E+00  0.00000000000E+00  0.22057464750E+03  0.22057464750E+03  0.00000000000E+00 0. -1.
         21   -1    0    0  501  503 -0.00000000000E+00 -0.00000000000E+00 -0.17502739881E+03  0.17502739881E+03  0.00000000000E+00 0. -1.
          6    2    1    2  501    0  0.68967910800E+02 -0.42083527308E+02  0.15710676459E+02  0.19169342502E+03  0.17312408223E+03 0.  0.
         24    2    3    3    0    0  0.65683636897E+02  0.76040039203E+01 -0.45749371323E+02  0.11245287550E+03  0.78616049250E+02 0.  0.
         -6    2    1    2    0  502 -0.68967910800E+02  0.42083527308E+02  0.29836572237E+02  0.20390862129E+03  0.18482669938E+03 0.  0.
        -24    2    5    5    0    0 -0.80637178634E+02  0.77185801141E+02  0.67383027722E+02  0.15099200991E+03  0.76145335753E+02 0.  0.
          5    1    3    3  501    0  0.32842739030E+01 -0.49687531228E+02  0.61460047783E+02  0.79240549519E+02  0.47000000000E+01 0. -1.
        -11    1    4    4    0    0  0.83741167971E+02  0.93950914529E+01 -0.40911818608E+02  0.93672983610E+02  0.00000000000E+00 0.  1.
         12    1    4    4    0    0 -0.18057531074E+02 -0.17910875326E+01 -0.48375527150E+01  0.18779891888E+02  0.00000000000E+00 0. -1.
         -5    1    5    5    0  502  0.11669267835E+02 -0.35102273834E+02 -0.37546455484E+02  0.52916611376E+02  0.47000000000E+01 0.  1.
         11    1    6    6    0    0 -0.35328038213E+02  0.27105692520E+02 -0.12632429335E+02  0.46285711854E+02  0.00000000000E+00 0. -1.
        -12    1    6    6    0    0 -0.45309140422E+02  0.50080108622E+02  0.80015457057E+02  0.10470629806E+03  0.00000000000E+00 0.  1.
</event>
<event>
12    1  0.1039610E+000  0.2173399E+03  0.7818608E-02  0.1137055E+00
         21   -1    0    0  503  502  0.00000000000E+00  0.00000000000E+00  0.10036091894E+03  0.10036091894E+03  0.00000000000E+00 0. -1.
         21   -1    0    0  501  503 -0.00000000000E+00 -0.00000000000E+00 -0.46602160350E+03  0.46602160350E+03  0.00000000000E+00 0. -1.
          6    2    1    2  501    0 -0.10344613177E+03  0.90411953053E+02 -0.21845391009E+03  0.30388207693E+03  0.16045803942E+03 0.  0.
         24    2    3    3    0    0 -0.94227751198E+02  0.95053399852E+02 -0.10174373943E+03  0.18662221379E+03  0.81006445717E+02 0.  0.
         -6    2    1    2    0  502  0.10344613177E+03 -0.90411953053E+02 -0.14720677448E+03  0.26250044551E+03  0.16840791551E+03 0.  0.
        -24    2    5    5    0    0  0.70285103605E+01 -0.36172829630E+02 -0.11468181835E+02  0.87328256618E+02  0.78337932370E+02 0.  0.
          5    1    3    3  501    0 -0.92183805684E+01 -0.46414467985E+01 -0.11671017066E+03  0.11725986314E+03  0.47000000000E+01 0. -1.
        -13    1    4    4    0    0  0.85815680640E+01 -0.45613472489E+01  0.18817449027E+01  0.98989980826E+01  0.00000000000E+00 0.  1.
         14    1    4    4    0    0 -0.10280931926E+03  0.99614747101E+02 -0.10362548433E+03  0.17672321571E+03  0.00000000000E+00 0. -1.
         -5    1    5    5    0  502  0.96417621406E+02 -0.54239123423E+02 -0.13573859264E+03  0.17517218889E+03  0.47000000000E+01 0.  1.
         11    1    6    6    0    0 -0.17652885365E+02 -0.36708318687E+02 -0.34639796606E+02  0.53469996554E+02  0.00000000000E+00 0. -1.
        -12    1    6    6    0    0  0.24681395726E+02  0.53548905679E+00  0.23171614770E+02  0.33858260064E+02  0.00000000000E+00 0.  1.
</event>
<event>
12    1  0.1039610E+000  0.4403283E+03  0.7818608E-02  0.1030708E+00
         21   -1    0    0  501  502  0.00000000000E+00  0.00000000000E+00  0.10475101207E+03  0.10475101207E+03  0.00000000000E+00 0. -1.
         21   -1    0    0  502  503 -0.00000000000E+00 -0.00000000000E+00 -0.27150673952E+04  0.27150673952E+04  0.00000000000E+00 0.  1.
         -6    2    1    2    0  503  0.34293116099E+03 -0.21600327421E+03 -0.50737457752E+03  0.67127162901E+03  0.17005129331E+03 0.  0.
        -24    2    3    3    0    0  0.15469616665E+03 -0.14436430275E+03 -0.23358240893E+03  0.33134693602E+03  0.10226482466E+03 0.  0.
          6    2    1    2  501    0 -0.34293116099E+03  0.21600327421E+03 -0.21029418056E+04  0.21485467783E+04  0.17213316062E+03 0.  0.
         24    2    5    5    0    0 -0.28689207260E+03  0.16643297184E+03 -0.19312548405E+04  0.19612072515E+04  0.81127239035E+02 0.  0.
          5    1    5    5  501    0 -0.56039088386E+02  0.49570302368E+02 -0.17168696509E+03  0.18733952676E+03  0.47000000000E+01 0. -1.
        -11    1    6    6    0    0 -0.27140157339E+02 -0.13542537104E+01 -0.85092716520E+02  0.89326326177E+02  0.00000000000E+00 0.  1.
         12    1    6    6    0    0 -0.25975191526E+03  0.16778722555E+03 -0.18461621240E+04  0.18718809253E+04  0.00000000000E+00 0. -1.
         -5    1    3    3    0  503  0.18823499434E+03 -0.71638971453E+02 -0.27379216860E+03  0.33992469300E+03  0.47000000000E+01 0.  1.
         13    1    4    4    0    0  0.19792865553E+02 -0.30791134721E+01  0.72020735190E+01  0.21286341385E+02  0.00000000000E+00 0. -1.
        -14    1    4    4    0    0  0.13490330110E+03 -0.14128518928E+03 -0.24078448245E+03  0.31006059463E+03  0.00000000000E+00 0.  1.
</event>
<event>
12    1  0.1039610E+000  0.1991163E+03  0.7818608E-02  0.1150994E+00
         21   -1    0    0  501  502  0.00000000000E+00  0.00000000000E+00  0.25320036060E+03  0.25320036060E+03  0.00000000000E+00 0.  1.
         21   -1    0    0  502  503 -0.00000000000E+00 -0.00000000000E+00 -0.15693200523E+03  0.15693200523E+03  0.00000000000E+00 0.  1.
         -6    2    1    2    0  503 -0.52347386698E+02  0.86851463602E+02  0.72745240308E+02  0.21198858819E+03  0.17135888046E+03 0.  0.
        -24    2    3    3    0    0 -0.13725424457E+02  0.84419635757E+02 -0.13704843296E+02  0.11715569986E+03  0.78883287855E+02 0.  0.
          6    2    1    2  501    0  0.52347386698E+02 -0.86851463602E+02  0.23523115057E+02  0.19814377764E+03  0.16859476282E+03 0.  0.
         24    2    5    5    0    0  0.69192966623E+02 -0.42495167537E+02  0.67728508622E+02  0.13312484667E+03  0.80879960602E+02 0.  0.
          5    1    5    5  501    0 -0.16845579925E+02 -0.44356296066E+02 -0.44205393565E+02  0.65018930966E+02  0.47000000000E+01 0. -1.
        -13    1    6    6    0    0  0.36839663199E+02  0.21449599954E+02  0.20533575692E+02  0.47316739676E+02  0.00000000000E+00 0.  1.
         14    1    6    6    0    0  0.32353303424E+02 -0.63944767491E+02  0.47194932930E+02  0.85808106996E+02  0.00000000000E+00 0. -1.
         -5    1    3    3    0  503 -0.38621962242E+02  0.24318278451E+01  0.86450083603E+02  0.94832888330E+02  0.47000000000E+01 0.  1.
         11    1    4    4    0    0  0.17125879365E+01  0.66946387280E+02  0.25403209991E+02  0.71624540523E+02  0.00000000000E+00 0. -1.
        -12    1    4    4    0    0 -0.15438012393E+02  0.17473248477E+02 -0.39108053287E+02  0.45531159340E+02  0.00000000000E+00 0.  1.
</event>
<event>
12    1  0.1039610E+000  0.2170901E+03  0.7818608E-02  0.1136487E+00
         21   -1    0    0  501  502  0.00000000000E+00  0.00000000000E+00  0.84199356278E+02  0.84199356278E+02  0.00000000000E+00 0. -1.
         21   -1    0    0  502  503 -0.00000000000E+00 -0.00000000000E+00 -0.10027570024E+04  0.10027570024E+04  0.00000000000E+00 0. -1.
         -6    2    1    2    0  503  0.12087610428E+03 -0.51405277124E+02 -0.94472347920E+02  0.23475645310E+03  0.17009418758E+03 0.  0.
        -24    2    3    3    0    0  0.13248508217E+03 -0.22286388261E+02 -0.26680720544E+02  0.15992014641E+03  0.82544607825E+02 0.  0.
          6    2    1    2  501    0 -0.12087610428E+03  0.51405277124E+02 -0.82408529816E+03  0.85219990554E+03  0.17284260255E+03 0.  0.
         24    2    5    5    0    0 -0.98586536678E+02  0.97676685202E+02 -0.69382443298E+03  0.71210047290E+03  0.80216579665E+02 0.  0.
          5    1    5    5  501    0 -0.22289567600E+02 -0.46271408079E+02 -0.13026086518E+03  0.14009943264E+03  0.47000000000E+01 0. -1.
        -11    1    6    6    0    0 -0.47914529802E+02  0.95264628622E+02 -0.40217374123E+03  0.41607075092E+03  0.00000000000E+00 0.  1.
         12    1    6    6    0    0 -0.50672006876E+02  0.24120565803E+01 -0.29165069175E+03  0.29602972198E+03  0.00000000000E+00 0. -1.
         -5    1    3    3    0  503 -0.11608977887E+02 -0.29118888862E+02 -0.67791627377E+02  0.74836306687E+02  0.47000000000E+01 0.  1.
         13    1    4    4    0    0  0.83695785739E+01  0.23823252133E+02 -0.32460731466E+01  0.25458479502E+02  0.00000000000E+00 0. -1.
        -14    1    4    4    0    0  0.12411550359E+03 -0.46109640394E+02 -0.23434647397E+02  0.13446166691E+03  0.00000000000E+00 0.  1.
</event>
<event>
12    1  0.1039610E+000  0.3421241E+03  0.7818608E-02  0.1065923E+00
         21   -1    0    0  503  502  0.00000000000E+00  0.00000000000E+00  0.58807896740E+03  0.58807896740E+03  0.00000000000E+00 0.  1.
         21   -1    0    0  501  503 -0.00000000000E+00 -0.00000000000E+00 -0.20207006033E+03  0.20207006033E+03  0.00000000000E+00 0.  1.
          6    2    1    2  501    0 -0.31094273120E+02  0.29356949296E+03  0.24271460295E+03  0.41947500130E+03  0.17291326499E+03 0.  0.
         24    2    3    3    0    0  0.31384371537E+02  0.22789256726E+03  0.21454085862E+03  0.32443348680E+03  0.79431142200E+02 0.  0.
         -6    2    1    2    0  502  0.31094273120E+02 -0.29356949296E+03  0.14329430412E+03  0.37067402643E+03  0.17238351214E+03 0.  0.
        -24    2    5    5    0    0 -0.13217888656E+02 -0.25578233210E+03  0.71026212093E+02  0.27774284580E+03  0.80604290186E+02 0.  0.
          5    1    3    3  501    0 -0.62478644657E+02  0.65676925704E+02  0.28173744329E+02  0.95041514495E+02  0.47000000000E+01 0. -1.
        -13    1    4    4    0    0 -0.14587427773E+02  0.50586712788E+01  0.93591915174E+01  0.18054851702E+02  0.00000000000E+00 0.  1.
         14    1    4    4    0    0  0.45971799309E+02  0.22283389598E+03  0.20518166710E+03  0.30637863510E+03  0.00000000000E+00 0. -1.
         -5    1    5    5    0  502  0.44312161777E+02 -0.37787160866E+02  0.72268092025E+02  0.92931180626E+02  0.47000000000E+01 0.  1.
         11    1    6    6    0    0  0.16325073352E+02 -0.18123303714E+03  0.20870757476E+02  0.18315979441E+03  0.00000000000E+00 0. -1.
        -12    1    6    6    0    0 -0.29542962008E+02 -0.74549294960E+02  0.50155454617E+02  0.94583051395E+02  0.00000000000E+00 0.  1.
</event>
<event>
12    1  0.1039610E+000  0.1912180E+03  0.7818608E-02  0.1158725E+00
         21   -1    0    0  501  502  0.00000000000E+00  0.00000000000E+00  0.65217130718E+03  0.65217130718E+03  0.00000000000E+00 0.  1.
         21   -1    0    0  502  503 -0.00000000000E+00 -0.00000000000E+00 -0.65917908645E+02  0.65917908645E+02  0.00000000000E+00 0.  1.
         -6    2    1    2    0  503  0.40080427661E+01  0.71708683085E+02  0.44748813463E+03  0.48663123715E+03  0.17721774941E+03 0.  0.
        -24    2    3    3    0    0  0.53599637929E+02  0.82064363449E+02  0.38916962762E+03  0.40923805473E+03  0.80095601876E+02 0.  0.
          6    2    1    2  501    0 -0.40080427661E+01 -0.71708683085E+02  0.13876526390E+03  0.23145797867E+03  0.17075947349E+03 0.  0.
         24    2    5    5    0    0 -0.61052452258E+02 -0.15829807820E+02  0.38775414638E+02  0.10340887359E+03  0.72193334970E+02 0.  0.
          5    1    5    5  501    0  0.57044409492E+02 -0.55878875265E+02  0.99989849267E+02  0.12804910508E+03  0.47000000000E+01 0. -1.
        -11    1    6    6    0    0 -0.42866553590E+02  0.23002052487E+02  0.35848515991E+02  0.60429727238E+02  0.00000000000E+00 0.  1.
         12    1    6    6    0    0 -0.18185898667E+02 -0.38831860307E+02  0.29268986470E+01  0.42979146350E+02  0.00000000000E+00 0. -1.
         -5    1    3    3    0  503 -0.49591595163E+02 -0.10355680364E+02  0.58318507001E+02  0.77393182422E+02  0.47000000000E+01 0.  1.
         13    1    4    4    0    0  0.39096494478E+02  0.64096035007E+02  0.37434050088E+03  0.38179529618E+03  0.00000000000E+00 0. -1.
        -14    1    4    4    0    0  0.14503143451E+02  0.17968328442E+02  0.14829126742E+02  0.27442758551E+02  0.00000000000E+00 0.  1.
</event>
<event>
12    1  0.1039610E+000  0.2130643E+03  0.7818608E-02  0.1139367E+00
         21   -1    0    0  503  502  0.00000000000E+00  0.00000000000E+00  0.36727719107E+03  0.36727719107E+03  0.00000000000E+00 0. -1.
         21   -1    0    0  501  503 -0.00000000000E+00 -0.00000000000E+00 -0.12368847004E+03  0.12368847004E+03  0.00000000000E+00 0. -1.
          6    2    1    2  501    0 -0.10575366210E+03 -0.63356643066E+02  0.13990386538E+03  0.25401216827E+03  0.17248532927E+03 0.  0.
         24    2    3    3    0    0 -0.92276802135E+02 -0.57092512529E+02  0.17129147800E+03  0.21896737819E+03  0.82652157108E+02 0.  0.
         -6    2    1    2    0  502  0.10575366210E+03  0.63356643066E+02  0.10368485565E+03  0.23695349284E+03  0.17377717690E+03 0.  0.
        -24    2    5    5    0    0  0.10141484888E+03  0.10507381075E+03  0.10355889242E+03  0.19474859685E+03  0.76662210355E+02 0.  0.
          5    1    3    3  501    0 -0.13476859970E+02 -0.62641305371E+01 -0.31387612623E+02  0.35044790086E+02  0.47000000000E+01 0. -1.
        -11    1    4    4    0    0 -0.48278360118E+02 -0.57264451779E+02  0.50295915647E+02  0.90220267257E+02  0.00000000000E+00 0.  1.
         12    1    4    4    0    0 -0.43998442017E+02  0.17193925043E+00  0.12099556235E+03  0.12874711093E+03  0.00000000000E+00 0. -1.
         -5    1    5    5    0  502  0.43388132229E+01 -0.41717167680E+02  0.12596323427E+00  0.42204895997E+02  0.47000000000E+01 0.  1.
         11    1    6    6    0    0  0.38838882168E+02  0.38999399854E+02 -0.23776279906E+01  0.55091424668E+02  0.00000000000E+00 0. -1.
        -12    1    6    6    0    0  0.62575966714E+02  0.66074410892E+02  0.10593652041E+03  0.13965717218E+03  0.00000000000E+00 0.  1.
</event>
<event>
12    1  0.1039610E+000  0.2121324E+03  0.7818608E-02  0.1140238E+00
         21   -1    0    0  501  502  0.00000000000E+00  0.00000000000E+00  0.41469085234E+03  0.41469085234E+03  0.00000000000E+00 0.  1.
         21   -1    0    0  502  503 -0.00000000000E+00 -0.00000000000E+00 -0.14669340786E+03  0.14669340786E+03  0.00000000000E+00 0.  1.
         -6    2    1    2    0  503  0.53909426728E+02  0.11066008876E+03 -0.10477253183E+02  0.21239096869E+03  0.17276651647E+03 0.  0.
        -24    2    3    3    0    0 -0.29725187584E+01  0.11601679087E+03  0.27506555176E+02  0.14362244626E+03  0.80012904341E+02 0.  0.
          6    2    1    2  501    0 -0.53909426728E+02 -0.11066008876E+03  0.27847469766E+03  0.34899329150E+03  0.17057631353E+03 0.  0.
         24    2    5    5    0    0  0.32539625336E+02 -0.61659424323E+02  0.10874288573E+03  0.15225620373E+03  0.80599159763E+02 0.  0.
          5    1    5    5  501    0 -0.86449052065E+02 -0.49000664438E+02  0.16973181194E+03  0.19673708776E+03  0.47000000000E+01 0. -1.
        -11    1    6    6    0    0 -0.20491822118E+02  0.48308679557E+01  0.27554254222E+02  0.34676922940E+02  0.00000000000E+00 0.  1.
         12    1    6    6    0    0  0.53031447454E+02 -0.66490292279E+02  0.81188631506E+02  0.11757928079E+03  0.00000000000E+00 0. -1.
         -5    1    3    3    0  503  0.56881945487E+02 -0.53567021105E+01 -0.37983808359E+02  0.68768522431E+02  0.47000000000E+01 0.  1.
         13    1    4    4    0    0  0.15403057286E+02  0.10025107521E+03 -0.67743032066E+01  0.10165344774E+03  0.00000000000E+00 0. -1.
        -14    1    4    4    0    0 -0.18375576045E+02  0.15765715664E+02  0.34280858383E+02  0.41968998521E+02  0.00000000000E+00 0.  1.
</event>
<event>
12    1  0.1039610E+000  0.1982538E+03  0.7818608E-02  0.1151489E+00
         21   -1    0    0  503  502  0.00000000000E+00  0.00000000000E+00  0.13216975670E+03  0.13216975670E+03  0.00000000000E+00 0.  1.
         21   -1    0    0  501  503 -0.00000000000E+00 -0.00000000000E+00 -0.29733417259E+03  0.29733417259E+03  0.00000000000E+00 0.  1.
          6    2    1    2  501    0 -0.92583658054E+02  0.25784023817E+02 -0.65998110805E+02  0.20895052858E+03  0.17340133546E+03 0.  0.
         24    2    3    3    0    0 -0.58525861612E+02  0.43921693070E+02  0.23779174612E+02  0.11111924769E+03  0.80172604182E+02 0.  0.
         -6    2    1    2    0  502  0.92583658054E+02 -0.25784023817E+02 -0.99166305090E+02  0.22055340071E+03  0.17196888346E+03 0.  0.
        -24    2    5    5    0    0  0.74408568106E+02 -0.80290320479E+02 -0.47613538238E+02  0.14321616492E+03  0.79124271241E+02 0.  0.
          5    1    3    3  501    0 -0.34057796442E+02 -0.18137669253E+02 -0.89777285417E+02  0.97831280894E+02  0.47000000000E+01 0. -1.
        -13    1    4    4    0    0  0.14806637634E+02  0.59456448946E-01  0.20910436841E+02  0.25621990984E+02  0.00000000000E+00 0.  1.
         14    1    4    4    0    0 -0.73332499246E+02  0.43862236621E+02  0.28687377712E+01  0.85497256701E+02  0.00000000000E+00 0. -1.
         -5    1    5    5    0  502  0.18175089948E+02  0.54506296662E+02 -0.51552766852E+02  0.77337235796E+02  0.47000000000E+01 0.  1.
         11    1    6    6    0    0 -0.82876545707E+01 -0.42099233271E+02 -0.23798806082E+02  0.49065403608E+02  0.00000000000E+00 0. -1.
        -12    1    6    6    0    0  0.82696222677E+02 -0.38191087208E+02 -0.23814732156E+02  0.94150761308E+02  0.00000000000E+00 0.  1.
</event>
<event>
12    1  0.1039610E+000  0.2014884E+03  0.7818608E-02  0.1150121E+00
         21   -1    0    0  503  502  0.00000000000E+00  0.00000000000E+00  0.11235134693E+04  0.11235134693E+04  0.00000000000E+00 0.  1.
         21   -1    0    0  501  503 -0.00000000000E+00 -0.00000000000E+00 -0.36247557739E+02  0.36247557739E+02  0.00000000000E+00 0.  1.
          6    2    1    2  501    0 -0.78827929845E+02 -0.40882264477E+02  0.65038065578E+03  0.67865156390E+03  0.17230132237E+03 0.  0.
         24    2    3    3    0    0 -0.70046454764E+02 -0.88667694317E+02  0.55068958782E+03  0.56765174119E+03  0.78746500246E+02 0.  0.
         -6    2    1    2    0  502  0.78827929845E+02  0.40882264477E+02  0.43688525574E+03  0.48110946310E+03  0.18086565935E+03 0.  0.
        -24    2    5    5    0    0 -0.26504103231E+02  0.30378441135E+02  0.14165475041E+03  0.16744035597E+03  0.79654800971E+02 0.  0.
          5    1    3    3  501    0 -0.87814750801E+01  0.47785429840E+02  0.99691067962E+02  0.11099982271E+03  0.47000000000E+01 0. -1.
        -13    1    4    4    0    0 -0.73029755682E+02 -0.84959627342E+02  0.36285361181E+03  0.37975548330E+03  0.00000000000E+00 0.  1.
         14    1    4    4    0    0  0.29833009175E+01 -0.37080669756E+01  0.18783597601E+03  0.18789625789E+03  0.00000000000E+00 0. -1.
         -5    1    5    5    0  502  0.10533203308E+03  0.10503823342E+02  0.29523050533E+03  0.31366910714E+03  0.47000000000E+01 0.  1.
         11    1    6    6    0    0 -0.24569417729E+02  0.57255354625E+02  0.10069703549E+03  0.11841336443E+03  0.00000000000E+00 0. -1.
        -12    1    6    6    0    0 -0.19346855021E+01 -0.26876913490E+02  0.40957714926E+02  0.49026991532E+02  0.00000000000E+00 0.  1.
</event>
<event>
12    1  0.1039610E+000  0.2397075E+03  0.7818608E-02  0.1120104E+00
         21   -1    0    0  503  502  0.00000000000E+00  0.00000000000E+00  0.66194586353E+03  0.66194586353E+03  0.00000000000E+00 0.  1.
         21   -1    0    0  501  503 -0.00000000000E+00 -0.00000000000E+00 -0.14047188324E+03  0.14047188324E+03  0.00000000000E+00 0.  1.
          6    2    1    2  501    0 -0.15857247433E+03 -0.49779443444E+02  0.50954215832E+03  0.56311002598E+03  0.17273235843E+03 0.  0.
         24    2    3    3    0    0 -0.95955733523E+02 -0.97721726308E+02  0.31292864662E+03  0.35121787960E+03  0.81686121744E+02 0.  0.
         -6    2    1    2    0  502  0.15857247433E+03  0.49779443444E+02  0.11931821962E+02  0.23930772078E+03  0.17176319235E+03 0.  0.
        -24    2    5    5    0    0  0.18654930196E+03  0.37008803822E+02  0.20241087322E+02  0.20710638523E+03  0.79454764277E+02 0.  0.
          5    1    3    3  501    0 -0.62616740805E+02  0.47942282865E+02  0.19661351170E+03  0.21189214638E+03  0.47000000000E+01 0. -1.
        -13    1    4    4    0    0  0.85841506894E+01 -0.10074229700E+02  0.81544752701E+02  0.82611890429E+02  0.00000000000E+00 0.  1.
         14    1    4    4    0    0 -0.10453988421E+03 -0.87647496608E+02  0.23138389392E+03  0.26860598917E+03  0.00000000000E+00 0. -1.
         -5    1    5    5    0  502 -0.27976827629E+02  0.12770639622E+02 -0.83092653601E+01  0.32201335552E+02  0.47000000000E+01 0.  1.
         11    1    6    6    0    0  0.32610728641E+02  0.24592542917E+02  0.32479114752E+02  0.52183768403E+02  0.00000000000E+00 0. -1.
        -12    1    6    6    0    0  0.15393857332E+03  0.12416260904E+02 -0.12238027430E+02  0.15492261683E+03  0.00000000000E+00 0.  1.
</event>
<event>
12    1  0.1039610E+000  0.2308298E+03  0.7818608E-02  0.1126109E+00
         21   -1    0    0  503  502  0.00000000000E+00  0.00000000000E+00  0.44165006720E+03  0.44165006720E+03  0.00000000000E+00 0. -1.
         21   -1    0    0  501  503 -0.00000000000E+00 -0.00000000000E+00 -0.19615020444E+03  0.19615020444E+03  0.00000000000E+00 0.  1.
          6    2    1    2  501    0 -0.14572041048E+03  0.49503732223E+02  0.32076273663E+03  0.39501046015E+03  0.17163762083E+03 0.  0.
         24    2    3    3    0    0 -0.46391178618E+02  0.81753044682E+02  0.17160540874E+03  0.21286680004E+03  0.83834100944E+02 0.  0.
         -6    2    1    2    0  502  0.14572041048E+03 -0.49503732223E+02 -0.75262873860E+02  0.24278981149E+03  0.17203875973E+03 0.  0.
        -24    2    5    5    0    0  0.17392260385E+03 -0.58103498886E+02 -0.69908031045E+02  0.21245692440E+03  0.81398545503E+02 0.  0.
          5    1    3    3  501    0 -0.99329231863E+02 -0.32249312459E+02  0.14915732788E+03  0.18214366011E+03  0.47000000000E+01 0. -1.
        -13    1    4    4    0    0 -0.26298937978E+02 -0.10452549403E+02  0.21414533812E+02  0.35489043185E+02  0.00000000000E+00 0.  1.
         14    1    4    4    0    0 -0.20092240640E+02  0.92205594085E+02  0.15019087493E+03  0.17737775686E+03  0.00000000000E+00 0. -1.
         -5    1    5    5    0  502 -0.28202193370E+02  0.85997666627E+01 -0.53548428152E+01  0.30332887089E+02  0.47000000000E+01 0.  1.
         13    1    6    6    0    0  0.16409660613E+03 -0.75507338559E+02 -0.63383309370E+02  0.19143275119E+03  0.00000000000E+00 0. -1.
        -14    1    6    6    0    0  0.98259977174E+01  0.17403839673E+02 -0.65247216749E+01  0.21024173217E+02  0.00000000000E+00 0.  1.
</event>
<event>
12    1  0.1039610E+000  0.3797574E+03  0.7818608E-02  0.1051085E+00
         21   -1    0    0  503  502  0.00000000000E+00  0.00000000000E+00  0.87572060286E+02  0.87572060286E+02  0.00000000000E+00 0. -1.
         21   -1    0    0  501  503 -0.00000000000E+00 -0.00000000000E+00 -0.17248434731E+04  0.17248434731E+04  0.00000000000E+00 0. -1.
          6    2    1    2  501    0 -0.50778306590E+02 -0.33431612259E+03 -0.62307248028E+03  0.72968144329E+03  0.17282935733E+03 0.  0.
         24    2    3    3    0    0 -0.71905548428E+02 -0.94120087851E+02 -0.22559959850E+03  0.26476502370E+03  0.71946786592E+02 0.  0.
         -6    2    1    2    0  502  0.50778306590E+02  0.33431612259E+03 -0.10141989325E+04  0.10827340901E+04  0.17137073512E+03 0.  0.
        -24    2    5    5    0    0 -0.32857685225E+02  0.18322158744E+03 -0.46061162044E+03  0.50281552703E+03  0.77528135228E+02 0.  0.
          5    1    3    3  501    0  0.21127241838E+02 -0.24019603474E+03 -0.39747288178E+03  0.46491641959E+03  0.47000000000E+01 0. -1.
        -11    1    4    4    0    0 -0.34377868804E+02 -0.70182736266E+02 -0.77269426799E+02  0.10990003936E+03  0.00000000000E+00 0.  1.
         12    1    4    4    0    0 -0.37527679624E+02 -0.23937351585E+02 -0.14833017170E+03  0.15486498434E+03  0.00000000000E+00 0. -1.
         -5    1    5    5    0  502  0.83635991816E+02  0.15109453515E+03 -0.55358731207E+03  0.57991856305E+03  0.47000000000E+01 0.  1.
         11    1    6    6    0    0  0.15138848267E+02  0.29061787812E+02 -0.36718312912E+02  0.49213887683E+02  0.00000000000E+00 0. -1.
        -12    1    6    6    0    0 -0.47996533493E+02  0.15415979963E+03 -0.42389330753E+03  0.45360163934E+03  0.00000000000E+00 0.  1.
</event>
<event>
12    1  0.1039610E+000  0.1787696E+03  0.7818608E-02  0.1169804E+00
         21   -1    0    0  501  502  0.00000000000E+00  0.00000000000E+00  0.13069849818E+04  0.13069849818E+04  0.00000000000E+00 0. -1.
         21   -1    0    0  502  503 -0.00000000000E+00 -0.00000000000E+00 -0.11045513846E+03  0.11045513846E+03  0.00000000000E+00 0. -1.
         -6    2    1    2    0  503 -0.30320640452E+02  0.28939491859E+02  0.12264429046E+04  0.12394033958E+04  0.17378648884E+03 0.  0.
        -24    2    3    3    0    0  0.21196705769E+02 -0.50077997740E+01  0.10337341019E+04  0.10370047095E+04  0.79361171967E+02 0.  0.
          6    2    1    2  501    0  0.30320640452E+02 -0.28939491859E+02 -0.29913061301E+02  0.17803672449E+03  0.17042725311E+03 0.  0.
         24    2    5    5    0    0  0.83486058309E+02 -0.11464130541E+02  0.12944314634E+02  0.10739116850E+03  0.65299001286E+02 0.  0.
          5    1    5    5  501    0 -0.53165417858E+02 -0.17475361318E+02 -0.42857375935E+02  0.70645555991E+02  0.47000000000E+01 0. -1.
        -11    1    6    6    0    0  0.31233799170E+01 -0.74967641351E+01  0.24768915590E+02  0.26066379766E+02  0.00000000000E+00 0.  1.
         12    1    6    6    0    0  0.80362678392E+02 -0.39673664058E+01 -0.11824600955E+02  0.81324788732E+02  0.00000000000E+00 0. -1.
         -5    1    3    3    0  503 -0.51517346221E+02  0.33947291633E+02  0.19270880274E+03  0.20239868632E+03  0.47000000000E+01 0.  1.
         11    1    4    4    0    0  0.34982420910E+02 -0.14764708194E+02  0.23153496465E+03  0.23462780363E+03  0.00000000000E+00 0. -1.
        -12    1    4    4    0    0 -0.13785715141E+02  0.97569084204E+01  0.80219913724E+03  0.80237690582E+03  0.00000000000E+00 0.  1.
</event>
<event>
12    1  0.1039610E+000  0.2833436E+03  0.7818608E-02  0.1094043E+00
         21   -1    0    0  501  502  0.00000000000E+00  0.00000000000E+00  0.89407105184E+02  0.89407105184E+02  0.00000000000E+00 0.  1.
         21   -1    0    0  502  503 -0.00000000000E+00 -0.00000000000E+00 -0.11291228191E+04  0.11291228191E+04  0.00000000000E+00 0. -1.
         -6    2    1    2    0  503  0.63253558054E+02  0.21447157095E+03 -0.24276006375E+03  0.37311666597E+03  0.17402451126E+03 0.  0.
        -24    2    3    3    0    0  0.65929383362E+02  0.54537070561E+02 -0.68960946082E+02  0.13686589294E+03  0.81582381117E+02 0.  0.
          6    2    1    2  501    0 -0.63253558054E+02 -0.21447157095E+03 -0.79695565020E+03  0.84541325835E+03  0.17200640003E+03 0.  0.
         24    2    5    5    0    0  0.28352482606E+02 -0.73021776095E+02 -0.36868450774E+03  0.38515466515E+03  0.79245231932E+02 0.  0.
          5    1    5    5  501    0 -0.91606040660E+02 -0.14144979486E+03 -0.42827114247E+03  0.46025859321E+03  0.47000000000E+01 0. -1.
        -13    1    6    6    0    0  0.21304798438E+02 -0.70660180236E+02 -0.15851259399E+03  0.17485135962E+03  0.00000000000E+00 0.  1.
         14    1    6    6    0    0  0.70476841679E+01 -0.23615958594E+01 -0.21017191374E+03  0.21030330552E+03  0.00000000000E+00 0. -1.
         -5    1    3    3    0  503 -0.26758253077E+01  0.15993450039E+03 -0.17379911767E+03  0.23625077304E+03  0.47000000000E+01 0.  1.
         11    1    4    4    0    0 -0.74837087028E+01 -0.88350016254E+00 -0.39599487816E+02  0.40310121605E+02  0.00000000000E+00 0. -1.
        -12    1    4    4    0    0  0.73413092065E+02  0.55420570723E+02 -0.29361458266E+02  0.96555771331E+02  0.00000000000E+00 0.  1.
</event>
<event>
12    1  0.1039610E+000  0.1913469E+03  0.7818608E-02  0.1158906E+00
         21   -1    0    0  501  502  0.00000000000E+00  0.00000000000E+00  0.11691367803E+03  0.11691367803E+03  0.00000000000E+00 0. -1.
         21   -1    0    0  502  503 -0.00000000000E+00 -0.00000000000E+00 -0.34410147974E+03  0.34410147974E+03  0.00000000000E+00 0.  1.
         -6    2    1    2    0  503  0.51904189807E+02 -0.36007657422E+02 -0.34341903400E+02  0.19440423945E+03  0.18061850867E+03 0.  0.
        -24    2    3    3    0    0 -0.27491969587E+02  0.27727116550E+02 -0.46604186027E+01  0.88248918909E+02  0.79003486018E+02 0.  0.
          6    2    1    2  501    0 -0.51904189807E+02  0.36007657422E+02 -0.19284589831E+03  0.26661091833E+03  0.17291976452E+03 0.  0.
         24    2    5    5    0    0  0.36996504429E+02 -0.18708020095E+01 -0.66569861371E+02  0.10753282860E+03  0.75891511673E+02 0.  0.
          5    1    5    5  501    0 -0.88900694236E+02  0.37878459432E+02 -0.12627603694E+03  0.15907808972E+03  0.47000000000E+01 0. -1.
        -13    1    6    6    0    0 -0.46683285821E+00  0.31192640209E+02 -0.40656899795E+02  0.51246289983E+02  0.00000000000E+00 0.  1.
         14    1    6    6    0    0  0.37463337288E+02 -0.33063442218E+02 -0.25912961576E+02  0.56286538619E+02  0.00000000000E+00 0. -1.
         -5    1    3    3    0  503  0.79396159394E+02 -0.63734773972E+02 -0.29681484797E+02  0.10615532054E+03  0.47000000000E+01 0.  1.
         13    1    4    4    0    0 -0.47030866706E+02  0.34844823188E+01  0.17206972479E+02  0.50200836069E+02  0.00000000000E+00 0. -1.
        -14    1    4    4    0    0  0.19538897118E+02  0.24242634231E+02 -0.21867391082E+02  0.38048082840E+02  0.00000000000E+00 0.  1.
</event>
<event>
12    1  0.1039610E+000  0.1865346E+03  0.7818608E-02  0.1161763E+00
         21   -1    0    0  503  502  0.00000000000E+00  0.00000000000E+00  0.24265142847E+03  0.24265142847E+03  0.00000000000E+00 0.  1.
         21   -1    0    0  501  503 -0.00000000000E+00 -0.00000000000E+00 -0.16680746374E+03  0.16680746374E+03  0.00000000000E+00 0.  1.
          6    2    1    2  501    0  0.84865437707E+01 -0.69952008626E+02  0.11532032987E+03  0.21879289523E+03  0.17206466106E+03 0.  0.
         24    2    3    3    0    0  0.42245588941E+01 -0.95186600533E+01  0.13204979266E+03  0.15576655899E+03  0.81961096681E+02 0.  0.
         -6    2    1    2    0  502 -0.84865437707E+01  0.69952008626E+02 -0.39476365136E+02  0.19066599698E+03  0.17271315545E+03 0.  0.
        -24    2    5    5    0    0  0.57101447032E+02  0.46146721035E+02  0.54480596537E+01  0.10754698473E+03  0.78400111325E+02 0.  0.
          5    1    3    3  501    0  0.42619848766E+01 -0.60433348573E+02 -0.16729462791E+02  0.63026336242E+02  0.47000000000E+01 0. -1.
        -11    1    4    4    0    0 -0.12757972998E+02  0.32343522042E+02  0.77480613044E+02  0.84924170239E+02  0.00000000000E+00 0.  1.
         12    1    4    4    0    0  0.16982531892E+02 -0.41862182095E+02  0.54569179618E+02  0.70842388747E+02  0.00000000000E+00 0. -1.
         -5    1    5    5    0  502 -0.65587990803E+02  0.23805287591E+02 -0.44924424790E+02  0.83119012251E+02  0.47000000000E+01 0.  1.
         11    1    6    6    0    0 -0.13063009664E+01  0.11616969510E+02 -0.29133581060E+02  0.31391494838E+02  0.00000000000E+00 0. -1.
        -12    1    6    6    0    0  0.58407747999E+02  0.34529751525E+02  0.34581640714E+02  0.76155489895E+02  0.00000000000E+00 0.  1.
</event>
<event>
12    1  0.1039610E+000  0.2071437E+03  0.7818608E-02  0.1144859E+00
         21   -1    0    0  501  502  0.00000000000E+00  0.00000000000E+00  0.72295010088E+02  0.72295010088E+02  0.00000000000E+00 0.  1.
         21   -1    0    0  502  503 -0.00000000000E+00 -0.00000000000E+00 -0.61750890091E+03  0.61750890091E+03  0.00000000000E+00 0.  1.
         -6    2    1    2    0  503  0.23163744384E+02 -0.10443063678E+03 -0.18385420434E+03  0.27328340753E+03  0.17157836526E+03 0.  0.
        -24    2    3    3    0    0  0.78948171186E+02 -0.84617432776E+02 -0.11171743655E+03  0.17984750119E+03  0.80445101729E+02 0.  0.
          6    2    1    2  501    0 -0.23163744384E+02  0.10443063678E+03 -0.36135968648E+03  0.41652050347E+03  0.17738711859E+03 0.  0.
         24    2    5    5    0    0  0.42389728196E+02  0.15221761357E+02 -0.12994183237E+03  0.15994343040E+03  0.81660455870E+02 0.  0.
          5    1    5    5  501    0 -0.65553472580E+02  0.89208875425E+02 -0.23141785412E+03  0.25657707307E+03  0.47000000000E+01 0. -1.
        -11    1    6    6    0    0  0.19272297682E+02  0.38145111409E+02 -0.23792350029E+02  0.48913667848E+02  0.00000000000E+00 0.  1.
         12    1    6    6    0    0  0.23117430514E+02 -0.22923350052E+02 -0.10614948234E+03  0.11102976255E+03  0.00000000000E+00 0. -1.
         -5    1    3    3    0  503 -0.55784426802E+02 -0.19813204006E+02 -0.72136767789E+02  0.93435906340E+02  0.47000000000E+01 0.  1.
         13    1    4    4    0    0  0.57033055539E+02 -0.12527169567E+02 -0.77651129452E+02  0.97156560800E+02  0.00000000000E+00 0. -1.
        -14    1    4    4    0    0  0.21915115647E+02 -0.72090263209E+02 -0.34066307099E+02  0.82690940391E+02  0.00000000000E+00 0.  1.
</event>
<event>
12    1  0.1039610E+000  0.1881083E+03  0.7818608E-02  0.1160355E+00
         21   -1    0    0  501  502  0.00000000000E+00  0.00000000000E+00  0.11161759234E+03  0.11161759234E+03  0.00000000000E+00 0.  1.
         21   -1    0    0  502  503 -0.00000000000E+00 -0.00000000000E+00 -0.33709281067E+03  0.33709281067E+03  0.00000000000E+00 0.  1.
         -6    2    1    2    0  503 -0.26839343578E+02  0.69006033095E+02 -0.56032060680E+02  0.19553909909E+03  0.17208650290E+03 0.  0.
        -24    2    3    3    0    0 -0.82302493223E+02  0.56364412501E+02 -0.25080862713E+02  0.13060807264E+03  0.80490816724E+02 0.  0.
          6    2    1    2  501    0  0.26839343578E+02 -0.69006033095E+02 -0.16944315765E+03  0.25317130392E+03  0.17292351630E+03 0.  0.
         24    2    5    5    0    0 -0.25685570069E+02 -0.59579488915E+02 -0.17175089297E+03  0.19955095395E+03  0.78184077518E+02 0.  0.
          5    1    5    5  501    0  0.52524913647E+02 -0.94265441802E+01  0.23077353215E+01  0.53620349972E+02  0.47000000000E+01 0. -1.
        -11    1    6    6    0    0 -0.35083549993E+02 -0.75374217623E+02 -0.14361836257E+03  0.16594686568E+03  0.00000000000E+00 0.  1.
         12    1    6    6    0    0  0.93979799244E+01  0.15794728708E+02 -0.28132530397E+02  0.33604088266E+02  0.00000000000E+00 0. -1.
         -5    1    3    3    0  503  0.55463149644E+02  0.12641620594E+02 -0.30951197967E+02  0.64931026446E+02  0.47000000000E+01 0.  1.
         11    1    4    4    0    0 -0.20358629682E+02  0.20809433710E+01 -0.41821918394E+02  0.46560465913E+02  0.00000000000E+00 0. -1.
        -12    1    4    4    0    0 -0.61943863540E+02  0.54283469130E+02  0.16741055681E+02  0.84047606726E+02  0.00000000000E+00 0.  1.
</event>
<event>
12    1  0.1039610E+000  0.3645938E+03  0.7818608E-02  0.1056819E+00
         21   -1    0    0  501  502  0.00000000000E+00  0.00000000000E+00  0.18162443267E+04  0.18162443267E+04  0.00000000000E+00 0. -1.
         21   -1    0    0  502  503 -0.00000000000E+00 -0.00000000000E+00 -0.13693727844E+03  0.13693727844E+03  0.00000000000E+00 0. -1.
         -6    2    1    2    0  503  0.24240438584E+03  0.21058040790E+03  0.15061564967E+04  0.15495607652E+04  0.17183474044E+03 0.  0.
        -24    2    3    3    0    0  0.53298474201E+02  0.24896322522E+02  0.46514072886E+03  0.47532822786E+03  0.78233447649E+02 0.  0.
          6    2    1    2  501    0 -0.24240438584E+03 -0.21058040790E+03  0.17315055156E+03  0.40362083994E+03  0.17269821789E+03 0.  0.
         24    2    5    5    0    0 -0.21947474936E+03 -0.16660872835E+03  0.19780970642E+03  0.34803810206E+03  0.77937196277E+02 0.  0.
          5    1    5    5  501    0 -0.22929636475E+02 -0.43971679543E+02 -0.24659154862E+02  0.55582737871E+02  0.47000000000E+01 0. -1.
        -11    1    6    6    0    0 -0.10825074302E+03 -0.44988005116E+02  0.53015068648E+02  0.12865745790E+03  0.00000000000E+00 0.  1.
         12    1    6    6    0    0 -0.11122400634E+03 -0.12162072324E+03  0.14479463778E+03  0.21938064417E+03  0.00000000000E+00 0. -1.
         -5    1    3    3    0  503  0.18910591163E+03  0.18568408537E+03  0.10410157678E+04  0.10742325373E+04  0.47000000000E+01 0.  1.
         11    1    4    4    0    0  0.22865706633E+02  0.28080425116E+02  0.41507919999E+03  0.41665584488E+03  0.00000000000E+00 0. -1.
        -12    1    4    4    0    0  0.30432767568E+02 -0.31841025939E+01  0.50061528871E+02  0.58672382975E+02  0.00000000000E+00 0.  1.
</event>
<event>
12    1  0.1039610E+000  0.2453252E+03  0.7818608E-02  0.1116563E+00
         21   -1    0    0  501  502  0.00000000000E+00  0.00000000000E+00  0.44283681403E+03  0.44283681403E+03  0.00000000000E+00 0.  1.
         21   -1    0    0  502  503 -0.00000000000E+00 -0.00000000000E+00 -0.13808431688E+03  0.13808431688E+03  0.00000000000E+00 0.  1.
         -6    2    1    2    0  503  0.25001546065E+02 -0.17255072510E+03  0.10943555810E+03  0.26862722436E+03  0.17258509279E+03 0.  0.
        -24    2    3    3    0    0  0.45213088774E+02 -0.18535849254E+03  0.63029684701E+02  0.21620451505E+03  0.79810131075E+02 0.  0.
          6    2    1    2  501    0 -0.25001546065E+02  0.17255072510E+03  0.19531693905E+03  0.31229390655E+03  0.17023497688E+03 0.  0.
         24    2    5    5    0    0  0.62574140579E+01  0.13445719100E+02  0.64894536055E+02  0.10415064165E+03  0.80100641403E+02 0.  0.
          5    1    5    5  501    0 -0.31258960122E+02  0.15910500600E+03  0.13042240300E+03  0.20814326491E+03  0.47000000000E+01 0. -1.
        -13    1    6    6    0    0 -0.34249976850E+02 -0.45773202493E+01  0.41561309175E+02  0.54049562396E+02  0.00000000000E+00 0.  1.
         14    1    6    6    0    0  0.40507390908E+02  0.18023039349E+02  0.23333226880E+02  0.50101079252E+02  0.00000000000E+00 0. -1.
         -5    1    3    3    0  503 -0.20211542709E+02  0.12807767437E+02  0.46405873399E+02  0.52422709309E+02  0.47000000000E+01 0.  1.
         13    1    4    4    0    0  0.52202711284E+01 -0.65288467668E+02  0.61194496947E+02  0.89635939766E+02  0.00000000000E+00 0. -1.
        -14    1    4    4    0    0  0.39992817646E+02 -0.12007002487E+03  0.18351877540E+01  0.12656857528E+03  0.00000000000E+00 0.  1.
</event>
<event>
12    1  0.1039610E+000  0.1960879E+03  0.7818608E-02  0.1154145E+00
         21   -1    0    0  501  502  0.00000000000E+00  0.00000000000E+00  0.21734434536E+03  0.21734434536E+03  0.00000000000E+00 0.  1.
         21   -1    0    0  502  503 -0.00000000000E+00 -0.00000000000E+00 -0.17274088499E+03  0.17274088499E+03  0.00000000000E+00 0.  1.
         -6    2    1    2    0  503  0.53117276608E+02 -0.76232971123E+02  0.15850791526E+02  0.19190051088E+03  0.16715755300E+03 0.  0.
        -24    2    3    3    0    0 -0.72023271482E+01 -0.34016717100E+02  0.59603684076E+02  0.10612713327E+03  0.80631003351E+02 0.  0.
          6    2    1    2  501    0 -0.53117276608E+02  0.76232971123E+02  0.28752668844E+02  0.19818471948E+03  0.17267760743E+03 0.  0.
         24    2    5    5    0    0  0.83695222420E+01  0.22053674548E+02  0.67085607026E+02  0.10758931805E+03  0.80737656793E+02 0.  0.
          5    1    5    5  501    0 -0.61486798850E+02  0.54179296575E+02 -0.38332938182E+02  0.90595401427E+02  0.47000000000E+01 0. -1.
        -11    1    6    6    0    0  0.67929045670E+01 -0.27877242014E+02  0.71609933980E+01  0.29573028272E+02  0.00000000000E+00 0.  1.
         12    1    6    6    0    0  0.15766176749E+01  0.49930916562E+02  0.59924613628E+02  0.78016289776E+02  0.00000000000E+00 0. -1.
         -5    1    3    3    0  503  0.60319603756E+02 -0.42216254022E+02 -0.43752892550E+02  0.85773377615E+02  0.47000000000E+01 0.  1.
         13    1    4    4    0    0  0.30023323578E+02 -0.11436844699E+02 -0.23079985857E+00  0.32128719923E+02  0.00000000000E+00 0. -1.
        -14    1    4    4    0    0 -0.37225650726E+02 -0.22579872402E+02  0.59834483934E+02  0.73998413343E+02  0.00000000000E+00 0.  1.
</event>
<event>
12    1  0.1039610E+000  0.2710514E+03  0.7818608E-02  0.1100762E+00
         21   -1    0    0  503  502  0.00000000000E+00  0.00000000000E+00  0.80798534482E+02  0.80798534482E+02  0.00000000000E+00 0. -1.
         21   -1    0    0  501  503 -0.00000000000E+00 -0.00000000000E+00 -0.11729572359E+04  0.11729572359E+04  0.00000000000E+00 0. -1.
          6    2    1    2  501    0  0.20184467666E+03  0.54411524331E+02 -0.84393496393E+03  0.88621816130E+03  0.17162318782E+03 0.  0.
         24    2    3    3    0    0  0.17703381555E+03  0.98201602677E+02 -0.63045747735E+03  0.66683749427E+03  0.78810445995E+02 0.  0.
         -6    2    1    2    0  502 -0.20184467666E+03 -0.54411524331E+02 -0.24822373749E+03  0.36753760909E+03  0.17253110666E+03 0.  0.
        -24    2    5    5    0    0 -0.15280877331E+03 -0.10015411636E+03 -0.15860632591E+03  0.25550959919E+03  0.82145118158E+02 0.  0.
          5    1    3    3  501    0  0.24810861108E+02 -0.43790078346E+02 -0.21347748658E+03  0.21938066703E+03  0.47000000000E+01 0. -1.
        -11    1    4    4    0    0  0.16703772743E+03  0.66967704008E+02 -0.47475827753E+03  0.50772206753E+03  0.00000000000E+00 0.  1.
         12    1    4    4    0    0  0.99960881163E+01  0.31233898669E+02 -0.15569919982E+03  0.15911542674E+03  0.00000000000E+00 0. -1.
         -5    1    5    5    0  502 -0.49035903341E+02  0.45742592026E+02 -0.89617411586E+02  0.11202800990E+03  0.47000000000E+01 0.  1.
         11    1    6    6    0    0 -0.19472205100E+02 -0.55397687586E+02 -0.35656055190E+02  0.68698070083E+02  0.00000000000E+00 0. -1.
        -12    1    6    6    0    0 -0.13333656821E+03 -0.44756428771E+02 -0.12295027071E+03  0.18681152911E+03  0.00000000000E+00 0.  1.
</event>
<event>
12    1  0.1039610E+000  0.2184517E+03  0.7818608E-02  0.1135249E+00
         21   -1    0    0  501  502  0.00000000000E+00  0.00000000000E+00  0.14448912624E+03  0.14448912624E+03  0.00000000000E+00 0. -1.
         21   -1    0    0  502  503 -0.00000000000E+00 -0.00000000000E+00 -0.32976675548E+03  0.32976675548E+03  0.00000000000E+00 0. -1.
         -6    2    1    2    0  503 -0.31807841503E+02 -0.13150435974E+03 -0.78459924026E+02  0.23108682964E+03  0.17011768793E+03 0.  0.
        -24    2    3    3    0    0  0.30718714057E+02 -0.79905263215E+02  0.90549985822E+01  0.11170094861E+03  0.71180182898E+02 0.  0.
          6    2    1    2  501    0  0.31807841503E+02  0.13150435974E+03 -0.10681770522E+03  0.24316905208E+03  0.17151102101E+03 0.  0.
         24    2    5    5    0    0  0.57047578587E+02  0.14742479898E+03 -0.58790362798E+02  0.18643087856E+03  0.79446007752E+02 0.  0.
          5    1    5    5  501    0 -0.25239737084E+02 -0.15920439241E+02 -0.48027342420E+02  0.56738173513E+02  0.47000000000E+01 0. -1.
        -13    1    6    6    0    0  0.17575917155E+02  0.13961872731E-01  0.86499518879E+01  0.19589148180E+02  0.00000000000E+00 0.  1.
         14    1    6    6    0    0  0.39471661433E+02  0.14741083711E+03 -0.67440314686E+02  0.16684173038E+03  0.00000000000E+00 0. -1.
         -5    1    3    3    0  503 -0.62526555561E+02 -0.51599096523E+02 -0.87514922608E+02  0.11938588104E+03  0.47000000000E+01 0.  1.
         13    1    4    4    0    0  0.35245049561E+02 -0.54218970649E+01  0.10136466736E+02  0.37072340690E+02  0.00000000000E+00 0. -1.
        -14    1    4    4    0    0 -0.45263355037E+01 -0.74483366150E+02 -0.10814681537E+01  0.74628607916E+02  0.00000000000E+00 0.  1.
</event>
<event>
12    1  0.1039610E+000  0.5237304E+03  0.7818608E-02  0.1007772E+00
         21   -1    0    0  503  502  0.00000000000E+00  0.00000000000E+00  0.37117611213E+03  0.37117611213E+03  0.00000000000E+00 0. -1.
         21   -1    0    0  501  503 -0.00000000000E+00 -0.00000000000E+00 -0.88269357272E+03  0.88269357272E+03  0.00000000000E+00 0.  1.
          6    2    1    2  501    0 -0.60249919610E+02 -0.49061044557E+03 -0.50890682346E+03  0.73026002553E+03  0.17310369092E+03 0.  0.
         24    2    3    3    0    0 -0.63701390265E+02 -0.41910025972E+03 -0.49621492928E+03  0.65739855761E+03  0.78998181579E+02 0.  0.
         -6    2    1    2    0  502  0.60249919610E+02  0.49061044557E+03 -0.26106371348E+01  0.52360965933E+03  0.17271826134E+03 0.  0.
        -24    2    5    5    0    0 -0.15021417217E+02  0.21321675203E+03  0.49181353261E+02  0.23151800311E+03  0.74126607464E+02 0.  0.
          5    1    3    3  501    0  0.34514706550E+01 -0.71510185842E+02 -0.12691894182E+02  0.72861467915E+02  0.47000000000E+01 0. -1.
        -13    1    4    4    0    0 -0.19017625524E+02 -0.18655822539E+03 -0.16206786896E+03  0.24785406127E+03  0.00000000000E+00 0.  1.
         14    1    4    4    0    0 -0.44683764741E+02 -0.23254203434E+03 -0.33414706032E+03  0.40954449634E+03  0.00000000000E+00 0. -1.
         -5    1    5    5    0  502  0.75271336828E+02  0.27739369354E+03 -0.51791990396E+02  0.29209165621E+03  0.47000000000E+01 0.  1.
         11    1    6    6    0    0  0.80607735806E+01  0.57161165839E+01  0.17845734047E+02  0.20399026526E+02  0.00000000000E+00 0. -1.
        -12    1    6    6    0    0 -0.23082190798E+02  0.20750063545E+03  0.31335619214E+02  0.21111897659E+03  0.00000000000E+00 0.  1.
</event>
<event>
12    1  0.1039610E+000  0.2211075E+03  0.7818608E-02  0.1133092E+00
         21   -1    0    0  501  502  0.00000000000E+00  0.00000000000E+00  0.12945664249E+04  0.12945664249E+04  0.00000000000E+00 0. -1.
         21   -1    0    0  502  503 -0.00000000000E+00 -0.00000000000E+00 -0.68950735352E+02  0.68950735352E+02  0.00000000000E+00 0. -1.
         -6    2    1    2    0  503  0.61059706269E+02  0.12465849527E+03  0.10713966746E+04  0.10939396525E+04  0.17188688420E+03 0.  0.
        -24    2    3    3    0    0 -0.32196640995E+02  0.57785065152E+02  0.42813282071E+03  0.44050313869E+03  0.79809558193E+02 0.  0.
          6    2    1    2  501    0 -0.61059706269E+02 -0.12465849527E+03  0.15421901494E+03  0.26957750767E+03  0.17210607165E+03 0.  0.
         24    2    5    5    0    0 -0.59673939043E+02 -0.14002192710E+03  0.72902752463E+02  0.18667768902E+03  0.79791159861E+02 0.  0.
          5    1    5    5  501    0 -0.13857672257E+01  0.15363431829E+02  0.81316262478E+02  0.82899818647E+02  0.47000000000E+01 0. -1.
        -13    1    6    6    0    0 -0.23092702871E+02 -0.11805545743E+03  0.78502603561E+02  0.14364199498E+03  0.00000000000E+00 0.  1.
         14    1    6    6    0    0 -0.36581236172E+02 -0.21966469671E+02 -0.55998510980E+01  0.43035694046E+02  0.00000000000E+00 0. -1.
         -5    1    3    3    0  503  0.93256347264E+02  0.66873430119E+02  0.64326385385E+03  0.65343651385E+03  0.47000000000E+01 0.  1.
         11    1    4    4    0    0 -0.48475781177E+02  0.47893190604E+02  0.19444234776E+03  0.20603758314E+03  0.00000000000E+00 0. -1.
        -12    1    4    4    0    0  0.16279140182E+02  0.98918745483E+01  0.23369047295E+03  0.23446555554E+03  0.00000000000E+00 0.  1.
</event>
<event>
12    1  0.1039610E+000  0.1812369E+03  0.7818608E-02  0.1166644E+00
         21   -1    0    0  501  502  0.00000000000E+00  0.00000000000E+00  0.22796298779E+04  0.22796298779E+04  0.00000000000E+00 0. -1.
         21   -1    0    0  502  503 -0.00000000000E+00 -0.00000000000E+00 -0.22182051610E+02  0.22182051610E+02  0.00000000000E+00 0. -1.
         -6    2    1    2    0  503  0.14747545181E+02  0.53771448549E+02  0.18102247933E+04  0.18192611624E+04  0.17230355787E+03 0.  0.
        -24    2    3    3    0    0 -0.53707814727E+01  0.74764370058E+02  0.68614685835E+03  0.69479740415E+03  0.79544737537E+02 0.  0.
          6    2    1    2  501    0 -0.14747545181E+02 -0.53771448549E+02  0.44722303292E+03  0.48255076702E+03  0.17244692751E+03 0.  0.
         24    2    5    5    0    0  0.57387222896E+02 -0.44716401004E+02  0.25431688099E+03  0.27634627603E+03  0.79983363572E+02 0.  0.
          5    1    5    5  501    0 -0.72134768077E+02 -0.90550475454E+01  0.19290615194E+03  0.20620449100E+03  0.47000000000E+01 0. -1.
        -11    1    6    6    0    0  0.66727094064E+02 -0.70338274655E+01  0.18650974078E+03  0.19821166267E+03  0.00000000000E+00 0.  1.
         12    1    6    6    0    0 -0.93398711675E+01 -0.37682573538E+02  0.67807140202E+02  0.78134613356E+02  0.00000000000E+00 0. -1.
         -5    1    3    3    0  503  0.20118326654E+02 -0.20992921509E+02  0.11240779350E+04  0.11244637583E+04  0.47000000000E+01 0.  1.
         11    1    4    4    0    0 -0.15006288530E+02  0.90392340858E+01  0.42411355761E+03  0.42447521270E+03  0.00000000000E+00 0. -1.
        -12    1    4    4    0    0  0.96355070573E+01  0.65725135973E+02  0.26203330074E+03  0.27032219145E+03  0.00000000000E+00 0.  1.
</event>
<event>
12    1  0.1039610E+000  0.2372501E+03  0.7818608E-02  0.1122075E+00
         21   -1    0    0  501  502  0.00000000000E+00  0.00000000000E+00  0.99563605413E+03  0.99563605413E+03  0.00000000000E+00 0. -1.
         21   -1    0    0  502  503 -0.00000000000E+00 -0.00000000000E+00 -0.10497354906E+03  0.10497354906E+03  0.00000000000E+00 0. -1.
         -6    2    1    2    0  503 -0.15578434175E+03 -0.39517191388E+02  0.82020500995E+03  0.85311847789E+03  0.17101026113E+03 0.  0.
        -24    2    3    3    0    0 -0.17078511584E+03  0.33444797329E+01  0.67869579986E+03  0.70442721178E+03  0.80068512001E+02 0.  0.
          6    2    1    2  501    0  0.15578434175E+03  0.39517191388E+02  0.70457495117E+02  0.24749112531E+03  0.17451999582E+03 0.  0.
         24    2    5    5    0    0  0.18331029458E+03  0.28353839939E+02  0.78083741301E+02  0.21646616558E+03  0.79711516406E+02 0.  0.
          5    1    5    5  501    0 -0.27525952836E+02  0.11163351449E+02 -0.76262461834E+01  0.31024959725E+02  0.47000000000E+01 0. -1.
        -13    1    6    6    0    0  0.77622022181E+02  0.51817064490E+02  0.42065632624E+02  0.10237042516E+03  0.00000000000E+00 0.  1.
         14    1    6    6    0    0  0.10568827240E+03 -0.23463224552E+02  0.36018108676E+02  0.11409574042E+03  0.00000000000E+00 0. -1.
         -5    1    3    3    0  503  0.15000774098E+02 -0.42861671121E+02  0.14150921009E+03  0.14869126611E+03  0.47000000000E+01 0.  1.
         13    1    4    4    0    0 -0.12236584352E+03 -0.25629617917E+02  0.54783438069E+03  0.56191884258E+03  0.00000000000E+00 0. -1.
        -14    1    4    4    0    0 -0.48419272323E+02  0.28974097650E+02  0.13086141916E+03  0.14250836920E+03  0.00000000000E+00 0.  1.
</event>
<event>
12    1  0.1039610E+000  0.1794959E+03  0.7818608E-02  0.1168399E+00
         21   -1    0    0  503  502  0.00000000000E+00  0.00000000000E+00  0.74606717642E+03  0.74606717642E+03  0.00000000000E+00 0. -1.
         21   -1    0    0  501  503 -0.00000000000E+00 -0.00000000000E+00 -0.24919654450E+03  0.24919654450E+03  0.00000000000E+00 0. -1.
          6    2    1    2  501    0 -0.28373798115E+02  0.48375339460E+02  0.70096200826E+03  0.72346958464E+03  0.17004486758E+03 0.  0.
         24    2    3    3    0    0 -0.36163491848E+02 -0.16069608510E+02  0.23146929710E+03  0.24948717306E+03  0.84260213421E+02 0.  0.
         -6    2    1    2    0  502  0.28373798115E+02 -0.48375339460E+02 -0.20409137633E+03  0.27179413628E+03  0.17050957960E+03 0.  0.
        -24    2    5    5    0    0  0.67185835187E+02 -0.57016696183E+02 -0.81192999248E+02  0.14253800158E+03  0.77200639079E+02 0.  0.
          5    1    3    3  501    0  0.77896937327E+01  0.64444947969E+02  0.46949271116E+03  0.47398241157E+03  0.47000000000E+01 0. -1.
        -11    1    4    4    0    0 -0.20566749097E+02  0.41569357780E+01  0.49842959718E+01  0.21566513158E+02  0.00000000000E+00 0.  1.
         12    1    4    4    0    0 -0.15596742751E+02 -0.20226544288E+02  0.22648500112E+03  0.22792065991E+03  0.00000000000E+00 0. -1.
         -5    1    5    5    0  502 -0.38812037072E+02  0.86413567235E+01 -0.12289837709E+03  0.12925613470E+03  0.47000000000E+01 0.  1.
         13    1    6    6    0    0 -0.13709836500E+02 -0.26322455216E+02 -0.28982128318E+02  0.41482466504E+02  0.00000000000E+00 0. -1.
        -14    1    6    6    0    0  0.80895671687E+02 -0.30694240967E+02 -0.52210870930E+02  0.10105553508E+03  0.00000000000E+00 0.  1.
</event>
<event>
12    1  0.1039610E+000  0.1844706E+03  0.7818608E-02  0.1166393E+00
         21   -1    0    0  503  502  0.00000000000E+00  0.00000000000E+00  0.64101599830E+03  0.64101599830E+03  0.00000000000E+00 0. -1.
         21   -1    0    0  501  503 -0.00000000000E+00 -0.00000000000E+00 -0.55356449430E+02  0.55356449430E+02  0.00000000000E+00 0. -1.
          6    2    1    2  501    0  0.19259644705E+02  0.14676177441E+02  0.17356564658E+03  0.24487406074E+03  0.17103200827E+03 0.  0.
         24    2    3    3    0    0  0.47332450730E+02 -0.46242648663E+02  0.83852994410E+02  0.13275967375E+03  0.78835669936E+02 0.  0.
         -6    2    1    2    0  502 -0.19259644705E+02 -0.14676177441E+02  0.41209390229E+03  0.45149838698E+03  0.18287450629E+03 0.  0.
        -24    2    5    5    0    0  0.48584881724E+02 -0.12557286403E+02  0.33791888877E+03  0.35084357043E+03  0.79899057249E+02 0.  0.
          5    1    3    3  501    0 -0.28072806025E+02  0.60918826104E+02  0.89712652172E+02  0.11211438700E+03  0.47000000000E+01 0. -1.
        -11    1    4    4    0    0 -0.31500851622E+00 -0.10759887000E+02  0.71212906110E+02  0.72021888307E+02  0.00000000000E+00 0.  1.
         12    1    4    4    0    0  0.47647459246E+02 -0.35482761662E+02  0.12640088300E+02  0.60737785439E+02  0.00000000000E+00 0. -1.
         -5    1    5    5    0  502 -0.67844526430E+02 -0.21188910381E+01  0.74175013514E+02  0.10065481655E+03  0.47000000000E+01 0.  1.
         13    1    6    6    0    0 -0.96001583672E+01 -0.21684748338E+02  0.35165858034E+02  0.42414961069E+02  0.00000000000E+00 0. -1.
        -14    1    6    6    0    0  0.58185040092E+02  0.91274619347E+01  0.30275303074E+03  0.30842860936E+03  0.00000000000E+00 0.  1.
</event>
<event>
12    1  0.1039610E+000  0.2642152E+03  0.7818608E-02  0.1104842E+00
         21   -1    0    0  503  502  0.00000000000E+00  0.00000000000E+00  0.17928157613E+03  0.17928157613E+03  0.00000000000E+00 0. -1.
         21   -1    0    0  501  503 -0.00000000000E+00 -0.00000000000E+00 -0.38738964720E+03  0.38738964720E+03  0.00000000000E+00 0. -1.
          6    2    1    2  501    0  0.17870468339E+03  0.87408611752E+02 -0.10110158580E+03  0.28289786470E+03  0.17387938902E+03 0.  0.
         24    2    3    3    0    0  0.63578834295E+02  0.10627929980E+03 -0.55897771316E+02  0.15769587254E+03  0.80036676862E+02 0.  0.
         -6    2    1    2    0  502 -0.17870468339E+03 -0.87408611752E+02 -0.10700648527E+03  0.28377335864E+03  0.17175943033E+03 0.  0.
        -24    2    5    5    0    0 -0.14631034282E+02 -0.44084775003E+02 -0.41923785486E+02  0.10196311422E+03  0.80506759477E+02 0.  0.
          5    1    3    3  501    0  0.11512584909E+03 -0.18870688043E+02 -0.45203814486E+02  0.12520199216E+03  0.47000000000E+01 0. -1.
        -11    1    4    4    0    0  0.32999080097E+02  0.63907499205E+02 -0.73228573827E+02  0.10264273850E+03  0.00000000000E+00 0.  1.
         12    1    4    4    0    0  0.30579754199E+02  0.42371800590E+02  0.17330802511E+02  0.55053134042E+02  0.00000000000E+00 0. -1.
         -5    1    5    5    0  502 -0.16407364911E+03 -0.43323836749E+02 -0.65082699783E+02  0.18181024441E+03  0.47000000000E+01 0.  1.
         13    1    6    6    0    0  0.20665537286E+01 -0.62508445422E+02 -0.13105637577E+02  0.63900971273E+02  0.00000000000E+00 0. -1.
        -14    1    6    6    0    0 -0.16697588010E+02  0.18423670419E+02 -0.28818147909E+02  0.38062142950E+02  0.00000000000E+00 0.  1.
</event>
<event>
12    1  0.1039610E+000  0.3325880E+03  0.7818608E-02  0.1070132E+00
         21   -1    0    0  501  502  0.00000000000E+00  0.00000000000E+00  0.14327389207E+04  0.14327389207E+04  0.00000000000E+00 0. -1.
         21   -1    0    0  502  503 -0.00000000000E+00 -0.00000000000E+00 -0.10834470186E+03  0.10834470186E+03  0.00000000000E+00 0. -1.
         -6    2    1    2    0  503  0.19148523761E+02 -0.28268633977E+03  0.10763051254E+04  0.11261583969E+04  0.17181903072E+03 0.  0.
        -24    2    3    3    0    0 -0.70249200368E+01 -0.20645958733E+03  0.53460196708E+03  0.57847238405E+03  0.78460978857E+02 0.  0.
          6    2    1    2  501    0 -0.19148523761E+02  0.28268633977E+03  0.24808909350E+03  0.41492522571E+03  0.17417379815E+03 0.  0.
         24    2    5    5    0    0 -0.11219712942E+02  0.15915320816E+03  0.22772528892E+03  0.28938608766E+03  0.80186500670E+02 0.  0.
          5    1    5    5  501    0 -0.79288108181E+01  0.12353313161E+03  0.20363804584E+02  0.12553913805E+03  0.47000000000E+01 0. -1.
        -11    1    6    6    0    0 -0.23774394075E+02  0.15680432211E+03  0.17963222385E+03  0.23962586065E+03  0.00000000000E+00 0.  1.
         12    1    6    6    0    0  0.12554681132E+02  0.23488860487E+01  0.48093065073E+02  0.49760227011E+02  0.00000000000E+00 0. -1.
         -5    1    3    3    0  503  0.26173443797E+02 -0.76226752439E+02  0.54170315831E+03  0.54768601285E+03  0.47000000000E+01 0.  1.
         13    1    4    4    0    0 -0.12577290309E+02 -0.64553823443E+00  0.57127426037E+02  0.58499126120E+02  0.00000000000E+00 0. -1.
        -14    1    4    4    0    0  0.55523702723E+01 -0.20581404910E+03  0.47747454104E+03  0.51997325793E+03  0.00000000000E+00 0.  1.
</event>
<event>
12    1  0.1039610E+000  0.2939794E+03  0.7818608E-02  0.1088426E+00
         21   -1    0    0  503  502  0.00000000000E+00  0.00000000000E+00  0.34730073942E+03  0.34730073942E+03  0.00000000000E+00 0. -1.
         21   -1    0    0  501  503 -0.00000000000E+00 -0.00000000000E+00 -0.25026333212E+03  0.25026333212E+03  0.00000000000E+00 0.  1.
          6    2    1    2  501    0 -0.23463635813E+03  0.41500801538E+02  0.77362861478E+02  0.30398832324E+03  0.17218406211E+03 0.  0.
         24    2    3    3    0    0 -0.27782961867E+02  0.16094662599E+02  0.38165457693E+01  0.82934144370E+02  0.76371297923E+02 0.  0.
         -6    2    1    2    0  502  0.23463635813E+03 -0.41500801538E+02  0.19674545817E+02  0.29357574830E+03  0.17036165986E+03 0.  0.
        -24    2    5    5    0    0  0.24690485660E+03 -0.41056372059E+02 -0.82768956014E+01  0.26268745522E+03  0.79300430169E+02 0.  0.
          5    1    3    3  501    0 -0.20685339626E+03  0.25406138939E+02  0.73546315708E+02  0.22105417887E+03  0.47000000000E+01 0. -1.
        -13    1    4    4    0    0  0.14492883487E+02  0.19086491584E+02  0.25780739876E+02  0.35199209953E+02  0.00000000000E+00 0.  1.
         14    1    4    4    0    0 -0.42275845354E+02 -0.29918289848E+01 -0.21964194106E+02  0.47734934418E+02  0.00000000000E+00 0. -1.
         -5    1    5    5    0  502 -0.12268498473E+02 -0.44442947920E+00  0.27951441419E+02  0.30888293086E+02  0.47000000000E+01 0.  1.
         13    1    6    6    0    0  0.17679054882E+03 -0.61903919098E+02  0.89836678604E+01  0.18753052989E+03  0.00000000000E+00 0. -1.
        -14    1    6    6    0    0  0.70114307787E+02  0.20847547039E+02 -0.17260563462E+02  0.75156925330E+02  0.00000000000E+00 0.  1.
</event>
<event>
12    1  0.1039610E+000  0.2473230E+03  0.7818608E-02  0.1115169E+00
         21   -1    0    0  501  502  0.00000000000E+00  0.00000000000E+00  0.54618759031E+02  0.54618759031E+02  0.00000000000E+00 0.  1.
         21   -1    0    0  502  503 -0.00000000000E+00 -0.00000000000E+00 -0.16536243268E+04  0.16536243268E+04  0.00000000000E+00 0.  1.
         -6    2    1    2    0  503 -0.77093274909E+02  0.15908327456E+03 -0.12878798709E+04  0.13114126804E+04  0.17296761313E+03 0.  0.
        -24    2    3    3    0    0 -0.75938340345E+02  0.18096137700E+03 -0.96628313927E+03  0.98903629629E+03  0.77304842375E+02 0.  0.
          6    2    1    2  501    0  0.77093274909E+02 -0.15908327456E+03 -0.31112569688E+03  0.39683040544E+03  0.17153515714E+03 0.  0.
         24    2    5    5    0    0  0.81561501370E+01 -0.15281292434E+03 -0.25340715734E+03  0.30657984161E+03  0.79735182062E+02 0.  0.
          5    1    5    5  501    0  0.68937124772E+02 -0.62703502195E+01 -0.57718539544E+02  0.90250563826E+02  0.47000000000E+01 0. -1.
        -13    1    6    6    0    0  0.21765591471E+02 -0.19826734330E+02 -0.14509350116E+02  0.32823187034E+02  0.00000000000E+00 0.  1.
         14    1    6    6    0    0 -0.13609441334E+02 -0.13298619001E+03 -0.23889780722E+03  0.27375665458E+03  0.00000000000E+00 0. -1.
         -5    1    3    3    0  503 -0.11549345645E+01 -0.21878102433E+02 -0.32159673164E+03  0.32237638412E+03  0.47000000000E+01 0.  1.
         11    1    4    4    0    0 -0.35786793724E+02  0.12987113934E+02 -0.16066254334E+03  0.16511151555E+03  0.00000000000E+00 0. -1.
        -12    1    4    4    0    0 -0.40151546621E+02  0.16797426306E+03 -0.80562059593E+03  0.82392478075E+03  0.00000000000E+00 0.  1.
</event>
<event>
12    1  0.1039610E+000  0.2242880E+03  0.7818608E-02  0.1130849E+00
         21   -1    0    0  501  502  0.00000000000E+00  0.00000000000E+00  0.53165171734E+02  0.53165171734E+02  0.00000000000E+00 0. -1.
         21   -1    0    0  502  503 -0.00000000000E+00 -0.00000000000E+00 -0.98532837200E+03  0.98532837200E+03  0.00000000000E+00 0. -1.
         -6    2    1    2    0  503 -0.12728305380E+03 -0.65980298706E+02 -0.35823923747E+03  0.42230054296E+03  0.17160425904E+03 0.  0.
        -24    2    3    3    0    0 -0.10966980109E+03 -0.57057053627E+02 -0.37034834804E+03  0.39866642498E+03  0.80585649245E+02 0.  0.
          6    2    1    2  501    0  0.12728305380E+03  0.65980298706E+02 -0.57392396280E+03  0.61619300077E+03  0.17248398049E+03 0.  0.
         24    2    5    5    0    0  0.13437586720E+02  0.61971683236E+02 -0.18900608531E+03  0.21474472044E+03  0.79818145882E+02 0.  0.
          5    1    5    5  501    0  0.11384546708E+03  0.40086154697E+01 -0.38491787749E+03  0.40144828033E+03  0.47000000000E+01 0. -1.
        -11    1    6    6    0    0  0.45736834253E+02  0.40636205513E+02 -0.94018250797E+02  0.11217214756E+03  0.00000000000E+00 0.  1.
         12    1    6    6    0    0 -0.32299247533E+02  0.21335477723E+02 -0.94987834514E+02  0.10257257288E+03  0.00000000000E+00 0. -1.
         -5    1    3    3    0  503 -0.17613252713E+02 -0.89232450792E+01  0.12109110578E+02  0.23634117984E+02  0.47000000000E+01 0.  1.
         11    1    4    4    0    0 -0.43583309739E+01 -0.22596674912E+02 -0.17738358412E+02  0.29056051437E+02  0.00000000000E+00 0. -1.
        -12    1    4    4    0    0 -0.10531147012E+03 -0.34460378715E+02 -0.35260998963E+03  0.36961037354E+03  0.00000000000E+00 0.  1.
</event>
<event>
12    1  0.1039610E+000  0.2213696E+03  0.7818608E-02  0.1132883E+00
         21   -1    0    0  503  502  0.00000000000E+00  0.00000000000E+00  0.12293735537E+04  0.12293735537E+04  0.00000000000E+00 0.  1.
         21   -1    0    0  501  503 -0.00000000000E+00 -0.00000000000E+00 -0.64567544664E+02  0.64567544664E+02  0.00000000000E+00 0.  1.
          6    2    1    2  501    0  0.12704300826E+03 -0.57939951996E+02  0.18214050646E+03  0.28666992292E+03  0.17177752073E+03 0.  0.
         24    2    3    3    0    0  0.56124151817E+02  0.29470018525E+02  0.50383504284E+02  0.11331484002E+03  0.79267604075E+02 0.  0.
         -6    2    1    2    0  502 -0.12704300826E+03  0.57939951996E+02  0.98266550254E+03  0.10072711754E+04  0.17165886793E+03 0.  0.
        -24    2    5    5    0    0 -0.14641877306E+03  0.38062993078E+02  0.94423590365E+03  0.95963255842E+03  0.80162066417E+02 0.  0.
          5    1    3    3  501    0  0.70918856439E+02 -0.87409970521E+02  0.13175700217E+03  0.17335508290E+03  0.47000000000E+01 0. -1.
        -13    1    4    4    0    0 -0.15821145152E+02 -0.82849781301E+01  0.28574515252E+00  0.17861443022E+02  0.00000000000E+00 0.  1.
         14    1    4    4    0    0  0.71945296969E+02  0.37754996655E+02  0.50097759131E+02  0.95453396998E+02  0.00000000000E+00 0. -1.
         -5    1    5    5    0  502  0.19375764803E+02  0.19876958918E+02  0.38429598893E+02  0.47638616989E+02  0.47000000000E+01 0.  1.
         13    1    6    6    0    0 -0.77793947316E+02 -0.15609539458E+02  0.56333403535E+03  0.56889435868E+03  0.00000000000E+00 0. -1.
        -14    1    6    6    0    0 -0.68624825742E+02  0.53672532536E+02  0.38090186830E+03  0.39073819974E+03  0.00000000000E+00 0.  1.
</event>
<event>
12    1  0.1039610E+000  0.1854566E+03  0.7818608E-02  0.1163691E+00
         21   -1    0    0  503  502  0.00000000000E+00  0.00000000000E+00  0.64293019437E+03  0.64293019437E+03  0.00000000000E+00 0.  1.
         21   -1    0    0  501  503 -0.00000000000E+00 -0.00000000000E+00 -0.63637214876E+02  0.63637214876E+02  0.00000000000E+00 0.  1.
          6    2    1    2  501    0 -0.39347885037E+02 -0.57911717001E+02  0.43648331756E+03  0.47249744721E+03  0.16683563196E+03 0.  0.
         24    2    3    3    0    0 -0.49001903049E+01 -0.78266904953E+02  0.40830395620E+03  0.42333299099E+03  0.79680489064E+02 0.  0.
         -6    2    1    2    0  502  0.39347885037E+02  0.57911717001E+02  0.14280966193E+03  0.23406996203E+03  0.17173271255E+03 0.  0.
        -24    2    5    5    0    0  0.76582047905E+02  0.83661538600E+02  0.12017442880E+03  0.18323808251E+03  0.79184837199E+02 0.  0.
          5    1    3    3  501    0 -0.34447694732E+02  0.20355187952E+02  0.28179361364E+02  0.49164456224E+02  0.47000000000E+01 0. -1.
        -13    1    4    4    0    0  0.30705915342E+02 -0.63542461199E+02  0.21700112640E+03  0.22818848891E+03  0.00000000000E+00 0.  1.
         14    1    4    4    0    0 -0.35606105647E+02 -0.14724443754E+02  0.19130282979E+03  0.19514450208E+03  0.00000000000E+00 0. -1.
         -5    1    5    5    0  502 -0.37234162868E+02 -0.25749821599E+02  0.22635233136E+02  0.50831879524E+02  0.47000000000E+01 0.  1.
         11    1    6    6    0    0  0.66872505234E+02  0.39069194855E+02  0.31697181707E+02  0.83684199649E+02  0.00000000000E+00 0. -1.
        -12    1    6    6    0    0  0.97095426710E+01  0.44592343745E+02  0.88477247089E+02  0.99553882857E+02  0.00000000000E+00 0.  1.
</event>
<event>
12    1  0.1039610E+000  0.1918528E+03  0.7818608E-02  0.1156804E+00
         21   -1    0    0  503  502  0.00000000000E+00  0.00000000000E+00  0.20118756990E+04  0.20118756990E+04  0.00000000000E+00 0. -1.
         21   -1    0    0  501  503 -0.00000000000E+00 -0.00000000000E+00 -0.44118886466E+02  0.44118886466E+02  0.00000000000E+00 0. -1.
          6    2    1    2  501    0 -0.65554671969E+02 -0.54147572547E+02  0.17703930397E+04  0.17807579854E+04  0.17198288566E+03 0.  0.
         24    2    3    3    0    0 -0.33496610988E+02 -0.94622685071E+02  0.15016914929E+04  0.15071002334E+04  0.78729270623E+02 0.  0.
         -6    2    1    2    0  502  0.65554671969E+02  0.54147572547E+02  0.19736377285E+03  0.27523660007E+03  0.17196904534E+03 0.  0.
        -24    2    5    5    0    0  0.56745642632E+02  0.93399153273E+02  0.18902001786E+03  0.23388452836E+03  0.83844711606E+02 0.  0.
          5    1    3    3  501    0 -0.32058060981E+02  0.40475112524E+02  0.26870154678E+03  0.27365775203E+03  0.47000000000E+01 0. -1.
        -11    1    4    4    0    0 -0.11613881422E+01 -0.95194847716E+02  0.11341216523E+04  0.11381104209E+04  0.00000000000E+00 0.  1.
         12    1    4    4    0    0 -0.32335222845E+02  0.57216264446E+00  0.36756984062E+03  0.36898981252E+03  0.00000000000E+00 0. -1.
         -5    1    5    5    0  502  0.88090293367E+01 -0.39251580726E+02  0.83437549890E+01  0.41352071710E+02  0.47000000000E+01 0.  1.
         11    1    6    6    0    0  0.22461744632E+01 -0.14658072088E+02  0.34949931729E+02  0.37965801782E+02  0.00000000000E+00 0. -1.
        -12    1    6    6    0    0  0.54499468169E+02  0.10805722536E+03  0.15407008613E+03  0.19591872658E+03  0.00000000000E+00 0.  1.
</event>
<event>
12    1  0.1039610E+000  0.2220144E+03  0.7818608E-02  0.1132518E+00
         21   -1    0    0  501  502  0.00000000000E+00  0.00000000000E+00  0.31867480826E+03  0.31867480826E+03  0.00000000000E+00 0. -1.
         21   -1    0    0  502  503 -0.00000000000E+00 -0.00000000000E+00 -0.15753381345E+03  0.15753381345E+03  0.00000000000E+00 0. -1.
         -6    2    1    2    0  503  0.13806809603E+03 -0.24348854293E+02  0.11514010221E+03  0.24947865469E+03  0.17125037274E+03 0.  0.
        -24    2    3    3    0    0  0.11956394666E+01  0.31634163919E+01  0.41940627398E+02  0.91772448360E+02  0.81558134447E+02 0.  0.
          6    2    1    2  501    0 -0.13806809603E+03  0.24348854293E+02  0.46000892601E+02  0.22672996702E+03  0.17214740771E+03 0.  0.
         24    2    5    5    0    0 -0.10270279930E+03  0.58091911214E+02  0.84028808556E+02  0.16462110699E+03  0.78209545878E+02 0.  0.
          5    1    5    5  501    0 -0.35365296724E+02 -0.33743056921E+02 -0.38027915954E+02  0.62108860033E+02  0.47000000000E+01 0. -1.
        -13    1    6    6    0    0 -0.55486257002E+02 -0.89738963540E+01  0.51992692157E+02  0.76566935224E+02  0.00000000000E+00 0.  1.
         14    1    6    6    0    0 -0.47216542301E+02  0.67065807568E+02  0.32036116399E+02  0.88054171766E+02  0.00000000000E+00 0. -1.
         -5    1    3    3    0  503  0.13687245656E+03 -0.27512270685E+02  0.73199474811E+02  0.15770620633E+03  0.47000000000E+01 0.  1.
         13    1    4    4    0    0 -0.13198362695E+02 -0.33095410330E+02  0.38734523515E+02  0.52629519042E+02  0.00000000000E+00 0. -1.
        -14    1    4    4    0    0  0.14394002162E+02  0.36258826722E+02  0.32061038830E+01  0.39142929318E+02  0.00000000000E+00 0.  1.
</event>
<event>
12    1  0.1039610E+000  0.1878503E+03  0.7818608E-02  0.1160561E+00
         21   -1    0    0  503  502  0.00000000000E+00  0.00000000000E+00  0.21639003424E+02  0.21639003424E+02  0.00000000000E+00 0. -1.
         21   -1    0    0  501  503 -0.00000000000E+00 -0.00000000000E+00 -0.16438442855E+04  0.16438442855E+04  0.00000000000E+00 0. -1.
          6    2    1    2  501    0 -0.60376636804E+02  0.44762332907E+02 -0.72103990759E+03  0.74494715567E+03  0.17146052515E+03 0.  0.
         24    2    3    3    0    0 -0.10030737735E+02  0.35197174186E+02 -0.17420439860E+03  0.19569551415E+03  0.81302552225E+02 0.  0.
         -6    2    1    2    0  502  0.60376636804E+02 -0.44762332907E+02 -0.90116537448E+03  0.92053613325E+03  0.17215904198E+03 0.  0.
        -24    2    5    5    0    0  0.58697831491E+02 -0.22230422091E+02 -0.88873407785E+03  0.89432292039E+03  0.77624723649E+02 0.  0.
          5    1    3    3  501    0 -0.50345899070E+02  0.95651587212E+01 -0.54683550899E+03  0.54925164152E+03  0.47000000000E+01 0. -1.
        -13    1    4    4    0    0 -0.41139640636E+02  0.10523424543E+02 -0.51625059388E+02  0.66845787096E+02  0.00000000000E+00 0.  1.
         14    1    4    4    0    0  0.31108902901E+02  0.24673749643E+02 -0.12257933921E+03  0.12884972706E+03  0.00000000000E+00 0. -1.
         -5    1    5    5    0  502  0.16788053133E+01 -0.22531910816E+02 -0.12431296630E+02  0.26213212855E+02  0.47000000000E+01 0.  1.
         11    1    6    6    0    0  0.29254707285E+02  0.22263714753E+02 -0.56738679025E+03  0.56857653895E+03  0.00000000000E+00 0. -1.
        -12    1    6    6    0    0  0.29443124206E+02 -0.44494136844E+02 -0.32134728760E+03  0.32574638144E+03  0.00000000000E+00 0.  1.
</event>
<event>
12    1  0.1039610E+000  0.1874268E+03  0.7818608E-02  0.1160955E+00
         21   -1    0    0  503  502  0.00000000000E+00  0.00000000000E+00  0.50639664751E+02  0.50639664751E+02  0.00000000000E+00 0.  1.
         21   -1    0    0  501  503 -0.00000000000E+00 -0.00000000000E+00 -0.74357060854E+03  0.74357060854E+03  0.00000000000E+00 0.  1.
          6    2    1    2  501    0  0.72849511143E+02 -0.25919128452E+01 -0.24170493978E+03  0.30585959661E+03  0.17267033804E+03 0.  0.
         24    2    3    3    0    0  0.63056827478E+02 -0.48148565734E+02 -0.81429698651E+02  0.13888190889E+03  0.79768044491E+02 0.  0.
         -6    2    1    2    0  502 -0.72849511143E+02  0.25919128452E+01 -0.45122600401E+03  0.48835067668E+03  0.17195263137E+03 0.  0.
        -24    2    5    5    0    0 -0.10633123783E+03  0.65707185504E+01 -0.42467079809E+03  0.44517515262E+03  0.80536471726E+02 0.  0.
          5    1    3    3  501    0  0.97926836646E+01  0.45556652888E+02 -0.16027524113E+03  0.16697768772E+03  0.47000000000E+01 0. -1.
        -13    1    4    4    0    0  0.75086208090E+02 -0.30217414375E+02 -0.84572342969E+02  0.11706200055E+03  0.00000000000E+00 0.  1.
         14    1    4    4    0    0 -0.12029380612E+02 -0.17931151358E+02  0.31426443179E+01  0.21819908347E+02  0.00000000000E+00 0. -1.
         -5    1    5    5    0  502  0.33481726687E+02 -0.39788057052E+01 -0.26555205919E+02  0.43175524064E+02  0.47000000000E+01 0.  1.
         13    1    6    6    0    0 -0.59504283420E+02 -0.30156709514E+02 -0.15053622343E+03  0.16465521990E+03  0.00000000000E+00 0. -1.
        -14    1    6    6    0    0 -0.46826954409E+02  0.36727428065E+02 -0.27413457465E+03  0.28051993272E+03  0.00000000000E+00 0.  1.
</event>
<event>
12    1  0.1039610E+000  0.2016023E+03  0.7818608E-02  0.1148515E+00
         21   -1    0    0  503  502  0.00000000000E+00  0.00000000000E+00  0.18219243255E+03  0.18219243255E+03  0.00000000000E+00 0.  1.
         21   -1    0    0  501  503 -0.00000000000E+00 -0.00000000000E+00 -0.30445933284E+03  0.30445933284E+03  0.00000000000E+00 0.  1.
          6    2    1    2  501    0  0.17377937826E+02  0.98636785098E+02 -0.18736338315E+03  0.27480028522E+03  0.17429558605E+03 0.  0.
         24    2    3    3    0    0  0.67085879986E+01  0.30163908448E+02 -0.12212822634E+02  0.86380066800E+02  0.79733909837E+02 0.  0.
         -6    2    1    2    0  502 -0.17377937826E+02 -0.98636785098E+02  0.65096482863E+02  0.21185148017E+03  0.17496368043E+03 0.  0.
        -24    2    5    5    0    0  0.11278324255E+02 -0.40173074760E+01 -0.17822187723E+02  0.82732841568E+02  0.79898393859E+02 0.  0.
          5    1    3    3  501    0  0.10669349827E+02  0.68472876650E+02 -0.17515056051E+03  0.18842021842E+03  0.47000000000E+01 0. -1.
        -11    1    4    4    0    0  0.36521877953E+01  0.51059903699E+02  0.13661040404E+02  0.52981848461E+02  0.00000000000E+00 0.  1.
         12    1    4    4    0    0  0.30564002032E+01 -0.20895995251E+02 -0.25873863038E+02  0.33398218339E+02  0.00000000000E+00 0. -1.
         -5    1    5    5    0  502 -0.28656262081E+02 -0.94619477622E+02  0.82918670586E+02  0.12911863860E+03  0.47000000000E+01 0.  1.
         11    1    6    6    0    0 -0.32828665377E+02 -0.12386173744E+02 -0.20443834581E+01  0.35147091974E+02  0.00000000000E+00 0. -1.
        -12    1    6    6    0    0  0.44106989632E+02  0.83688662679E+01 -0.15777804265E+02  0.47585749594E+02  0.00000000000E+00 0.  1.
</event>
<event>
12    1  0.1039610E+000  0.6052184E+03  0.7818608E-02  0.9894938E-01
         21   -1    0    0  503  502  0.00000000000E+00  0.00000000000E+00  0.10257583171E+04  0.10257583171E+04  0.00000000000E+00 0. -1.
         21   -1    0    0  501  503 -0.00000000000E+00 -0.00000000000E+00 -0.42913563993E+03  0.42913563993E+03  0.00000000000E+00 0.  1.
          6    2    1    2  501    0 -0.53839818724E+03  0.21681175632E+03  0.59696284773E+03  0.84967544156E+03  0.16942186610E+03 0.  0.
         24    2    3    3    0    0 -0.52183712993E+03  0.22096256572E+03  0.60268154165E+03  0.83106653783E+03  0.79423573526E+02 0.  0.
         -6    2    1    2    0  502  0.53839818724E+03 -0.21681175632E+03 -0.34017053317E+00  0.60521851550E+03  0.17149166187E+03 0.  0.
        -24    2    5    5    0    0  0.34676542387E+03 -0.19962076084E+03  0.36508927513E+02  0.40926292781E+03  0.77900801926E+02 0.  0.
          5    1    3    3  501    0 -0.16561057309E+02 -0.41508093949E+01 -0.57186939186E+01  0.18608903728E+02  0.47000000000E+01 0. -1.
        -11    1    4    4    0    0 -0.11308809936E+03  0.32040504605E+02  0.85644589547E+02  0.14543214181E+03  0.00000000000E+00 0.  1.
         12    1    4    4    0    0 -0.40874903057E+03  0.18892206111E+03  0.51703695210E+03  0.68563439602E+03  0.00000000000E+00 0. -1.
         -5    1    5    5    0  502  0.19163276337E+03 -0.17190995481E+02 -0.36849098046E+02  0.19595558769E+03  0.47000000000E+01 0.  1.
         11    1    6    6    0    0  0.19115025912E+02 -0.48368174645E+01  0.19463080304E+02  0.27705423904E+02  0.00000000000E+00 0. -1.
        -12    1    6    6    0    0  0.32765039796E+03 -0.19478394338E+03  0.17045847209E+02  0.38155750391E+03  0.00000000000E+00 0.  1.
</event>
<event>
12    1  0.1039610E+000  0.4650505E+03  0.7818608E-02  0.1023329E+00
         21   -1    0    0  503  502  0.00000000000E+00  0.00000000000E+00  0.68213667493E+03  0.68213667493E+03  0.00000000000E+00 0. -1.
         21   -1    0    0  501  503 -0.00000000000E+00 -0.00000000000E+00 -0.31929186659E+03  0.31929186659E+03  0.00000000000E+00 0. -1.
          6    2    1    2  501    0 -0.11237652235E+02  0.43201209369E+03  0.13925958858E+03  0.48542243503E+03  0.17170024316E+03 0.  0.
         24    2    3    3    0    0 -0.10020125457E+02  0.15685399984E+03 -0.12939166020E+01  0.17640651829E+03  0.80087485263E+02 0.  0.
         -6    2    1    2    0  502  0.11237652235E+02 -0.43201209369E+03  0.22358521976E+03  0.51600610649E+03  0.17178829273E+03 0.  0.
        -24    2    5    5    0    0 -0.64356137292E+00 -0.15494573216E+03  0.14153555009E+03  0.22676369913E+03  0.85911985285E+02 0.  0.
          5    1    3    3  501    0 -0.12175267773E+01  0.27515809384E+03  0.14055350518E+03  0.30901591674E+03  0.47000000000E+01 0. -1.
        -13    1    4    4    0    0  0.97288539708E+01  0.15209444481E+03  0.10760741657E+02  0.15278469918E+03  0.00000000000E+00 0.  1.
         14    1    4    4    0    0 -0.19748979428E+02  0.47595550299E+01 -0.12054658259E+02  0.23621819115E+02  0.00000000000E+00 0. -1.
         -5    1    5    5    0  502  0.11881213608E+02 -0.27706636152E+03  0.82049669667E+02  0.28924240736E+03  0.47000000000E+01 0.  1.
         13    1    6    6    0    0  0.32934631895E+02 -0.21681730054E+02  0.26100946916E+02  0.47286856801E+02  0.00000000000E+00 0. -1.
        -14    1    6    6    0    0 -0.33578193268E+02 -0.13326400211E+03  0.11543460317E+03  0.17947684233E+03  0.00000000000E+00 0.  1.
</event>
<event>
12    1  0.1151731E+000  0.4238344E+03  0.7818608E-02  0.1035827E+00
         21   -1    0    0  501  502  0.00000000000E+00  0.00000000000E+00  0.40547829705E+03  0.40547829705E+03  0.00000000000E+00 0. -1.
         21   -1    0    0  502  503 -0.00000000000E+00 -0.00000000000E+00 -0.65894111713E+03  0.65894111713E+03  0.00000000000E+00 0.  1.
         -6    2    1    2    0  503 -0.33755824169E+03 -0.18967553911E+03  0.17793362706E+03  0.45965624502E+03  0.17234010352E+03 0.  0.
        -24    2    3    3    0    0 -0.23349997586E+03 -0.16859884888E+03  0.68124474715E+02  0.30684103145E+03  0.81010270714E+02 0.  0.
          6    2    1    2  501    0  0.33755824169E+03  0.18967553911E+03 -0.43139644714E+03  0.60476316915E+03  0.17237522876E+03 0.  0.
         24    2    5    5    0    0  0.24987608331E+03  0.17195606985E+03 -0.24811623034E+03  0.40076349180E+03  0.83921187035E+02 0.  0.
          5    1    5    5  501    0  0.87682158375E+02  0.17719469262E+02 -0.18328021680E+03  0.20399967735E+03  0.47000000000E+01 0. -1.
        -11    1    6    6    0    0  0.47512364236E+02  0.75110295249E+02 -0.53266954938E+02  0.10361635825E+03  0.00000000000E+00 0.  1.
         12    1    6    6    0    0  0.20236371908E+03  0.96845774604E+02 -0.19484927540E+03  0.29714713356E+03  0.00000000000E+00 0. -1.
         -5    1    3    3    0  503 -0.10405826583E+03 -0.21076690239E+02  0.10980915235E+03  0.15281521357E+03  0.47000000000E+01 0.  1.
         13    1    4    4    0    0 -0.14568639462E+03 -0.89095950414E+02  0.78464205719E+02  0.18793415213E+03  0.00000000000E+00 0. -1.
        -14    1    4    4    0    0 -0.87813581237E+02 -0.79502898461E+02 -0.10339731004E+02  0.11890687932E+03  0.00000000000E+00 0.  1.
</event>
<event>
12    1  0.1039610E+000  0.2520626E+03  0.7818608E-02  0.1112126E+00
         21   -1    0    0  503  502  0.00000000000E+00  0.00000000000E+00  0.91983572455E+03  0.91983572455E+03  0.00000000000E+00 0. -1.
         21   -1    0    0  501  503 -0.00000000000E+00 -0.00000000000E+00 -0.14029779013E+03  0.14029779013E+03  0.00000000000E+00 0. -1.
          6    2    1    2  501    0 -0.10693600185E+03 -0.14958344886E+03  0.76827743962E+03  0.80857020623E+03  0.17240950528E+03 0.  0.
         24    2    3    3    0    0 -0.14365602651E+03 -0.12543567641E+03  0.65060971719E+03  0.68287510678E+03  0.81573552572E+02 0.  0.
         -6    2    1    2    0  502  0.10693600185E+03  0.14958344886E+03  0.11260494800E+02  0.25156330846E+03  0.17130902706E+03 0.  0.
        -24    2    5    5    0    0 -0.62756625011E+01  0.34424279043E+02  0.22897977705E+02  0.89587889498E+02  0.79229146368E+02 0.  0.
          5    1    3    3  501    0  0.36720024664E+02 -0.24147772457E+02  0.11766772243E+03  0.12569509946E+03  0.47000000000E+01 0. -1.
        -13    1    4    4    0    0 -0.10184936185E+03 -0.12843903982E+03  0.54931246006E+03  0.57324868795E+03  0.00000000000E+00 0.  1.
         14    1    4    4    0    0 -0.41806664658E+02  0.30033634162E+01  0.10129725714E+03  0.10962641883E+03  0.00000000000E+00 0. -1.
         -5    1    5    5    0  502  0.11321166435E+03  0.11515916982E+03 -0.11637482905E+02  0.16197541896E+03  0.47000000000E+01 0.  1.
         13    1    6    6    0    0  0.39850228648E+01 -0.20497370527E+02  0.26336801535E+02  0.33610262136E+02  0.00000000000E+00 0. -1.
        -14    1    6    6    0    0 -0.10260685366E+02  0.54921649570E+02 -0.34388238302E+01  0.55977627361E+02  0.00000000000E+00 0.  1.
</event>
<event>
12    1  0.1039610E+000  0.2003656E+03  0.7818608E-02  0.1149592E+00
         21   -1    0    0  503  502  0.00000000000E+00  0.00000000000E+00  0.35174941550E+03  0.35174941550E+03  0.00000000000E+00 0. -1.
         21   -1    0    0  501  503 -0.00000000000E+00 -0.00000000000E+00 -0.14240948980E+03  0.14240948980E+03  0.00000000000E+00 0. -1.
          6    2    1    2  501    0  0.93223934584E+02 -0.46549956059E+02 -0.61102489688E+01  0.20045873777E+03  0.17113962141E+03 0.  0.
         24    2    3    3    0    0  0.10282471111E+03 -0.13296242388E+02 -0.53705318568E+02  0.14142175755E+03  0.79788100562E+02 0.  0.
         -6    2    1    2    0  502 -0.93223934584E+02  0.46549956059E+02  0.21545017467E+03  0.29370016753E+03  0.17024514752E+03 0.  0.
        -24    2    5    5    0    0 -0.20843590500E+02  0.83841659294E+00  0.18607345105E+03  0.20307157965E+03  0.78610298741E+02 0.  0.
          5    1    3    3  501    0 -0.96007765250E+01 -0.33253713671E+02  0.47595069599E+02  0.59036980215E+02  0.47000000000E+01 0. -1.
        -13    1    4    4    0    0  0.26038212673E+02 -0.17280626813E+02  0.18186941952E+02  0.36157619389E+02  0.00000000000E+00 0.  1.
         14    1    4    4    0    0  0.76786498435E+02  0.39843844255E+01 -0.71892260520E+02  0.10526413817E+03  0.00000000000E+00 0. -1.
         -5    1    5    5    0  502 -0.72380344084E+02  0.45711539466E+02  0.29376723613E+02  0.90628587876E+02  0.47000000000E+01 0.  1.
         11    1    6    6    0    0 -0.41236173964E+02 -0.24718563046E+02  0.98853340161E+02  0.10992457534E+03  0.00000000000E+00 0. -1.
        -12    1    6    6    0    0  0.20392583464E+02  0.25556979639E+02  0.87220110893E+02  0.93147004315E+02  0.00000000000E+00 0.  1.
</event>
<event>
12    1  0.1039610E+000  0.2057640E+03  0.7818608E-02  0.1145027E+00
         21   -1    0    0  503  502  0.00000000000E+00  0.00000000000E+00  0.38489544321E+02  0.38489544321E+02  0.00000000000E+00 0. -1.
         21   -1    0    0  501  503 -0.00000000000E+00 -0.00000000000E+00 -0.13173864382E+04  0.13173864382E+04  0.00000000000E+00 0. -1.
          6    2    1    2  501    0 -0.11244402394E+03  0.34545741157E+01 -0.36263289369E+03  0.41679209227E+03  0.17192277333E+03 0.  0.
         24    2    3    3    0    0 -0.11925184038E+03  0.52634058536E+02 -0.26235352337E+03  0.30479651126E+03  0.84143903538E+02 0.  0.
         -6    2    1    2    0  502  0.11244402394E+03 -0.34545741157E+01 -0.91626400021E+03  0.93908389027E+03  0.17228825348E+03 0.  0.
        -24    2    5    5    0    0  0.10010395342E+03 -0.51260331748E+02 -0.45400274058E+03  0.47416967242E+03  0.77909990966E+02 0.  0.
          5    1    3    3  501    0  0.68078164394E+01 -0.49179484420E+02 -0.10027937032E+03  0.11199558101E+03  0.47000000000E+01 0. -1.
        -11    1    4    4    0    0 -0.10673311498E+03  0.60410995335E+01 -0.18119001497E+03  0.21037650592E+03  0.00000000000E+00 0.  1.
         12    1    4    4    0    0 -0.12518725402E+02  0.46592959002E+02 -0.81163508392E+02  0.94420005342E+02  0.00000000000E+00 0. -1.
         -5    1    5    5    0  502  0.12340070523E+02  0.47805757632E+02 -0.46226125963E+03  0.46491421785E+03  0.47000000000E+01 0.  1.
         11    1    6    6    0    0  0.47592699072E+02 -0.28561891972E+02 -0.35905331054E+03  0.36331821657E+03  0.00000000000E+00 0. -1.
        -12    1    6    6    0    0  0.52511254347E+02 -0.22698439776E+02 -0.94949430038E+02  0.11085145586E+03  0.00000000000E+00 0.  1.
</event>
<event>
12    1  0.1039610E+000  0.1961000E+03  0.7818608E-02  0.1153165E+00
         21   -1    0    0  503  502  0.00000000000E+00  0.00000000000E+00  0.43622736684E+02  0.43622736684E+02  0.00000000000E+00 0.  1.
         21   -1    0    0  501  503 -0.00000000000E+00 -0.00000000000E+00 -0.10583689502E+04  0.10583689502E+04  0.00000000000E+00 0.  1.
          6    2    1    2  501    0 -0.81297931439E+02 -0.46094245658E+02 -0.73428138194E+03  0.76001601877E+03  0.17239828244E+03 0.  0.
         24    2    3    3    0    0 -0.11502196400E+03 -0.31537079822E+02 -0.43767214911E+03  0.46110407781E+03  0.82676604076E+02 0.  0.
         -6    2    1    2    0  502  0.81297931439E+02  0.46094245658E+02 -0.28046483156E+03  0.34197566809E+03  0.17190928622E+03 0.  0.
        -24    2    5    5    0    0  0.11708523137E+02  0.58637669747E+02 -0.79196555979E+02  0.12859565031E+03  0.81788024623E+02 0.  0.
          5    1    3    3  501    0  0.33724032561E+02 -0.14557165836E+02 -0.29660923283E+03  0.29891194096E+03  0.47000000000E+01 0. -1.
        -11    1    4    4    0    0 -0.84381632042E+02 -0.51068653026E+02 -0.22968755845E+03  0.24996928142E+03  0.00000000000E+00 0.  1.
         12    1    4    4    0    0 -0.30640331958E+02  0.19531573204E+02 -0.20798459066E+03  0.21113479639E+03  0.00000000000E+00 0. -1.
         -5    1    5    5    0  502  0.69589408302E+02 -0.12543424089E+02 -0.20126827558E+03  0.21338001778E+03  0.47000000000E+01 0.  1.
         11    1    6    6    0    0  0.80150336671E+01  0.71562787781E+02 -0.30718843502E+02  0.78288701010E+02  0.00000000000E+00 0. -1.
        -12    1    6    6    0    0  0.36934894698E+01 -0.12925118034E+02 -0.48477712478E+02  0.50306949299E+02  0.00000000000E+00 0.  1.
</event>
<event>
12    1  0.1039610E+000  0.2946022E+03  0.7818608E-02  0.1089429E+00
         21   -1    0    0  503  502  0.00000000000E+00  0.00000000000E+00  0.10369895182E+04  0.10369895182E+04  0.00000000000E+00 0.  1.
         21   -1    0    0  501  503 -0.00000000000E+00 -0.00000000000E+00 -0.10989396855E+03  0.10989396855E+03  0.00000000000E+00 0.  1.
          6    2    1    2  501    0  0.23891716920E+03 -0.44993138485E+00  0.75325743618E+03  0.80481598780E+03  0.15248079511E+03 0.  0.
         24    2    3    3    0    0  0.80677240517E+02  0.20756193033E+02  0.41468439837E+03  0.43045871636E+03  0.79949481278E+02 0.  0.
         -6    2    1    2    0  502 -0.23891716920E+03  0.44993138485E+00  0.17383811350E+03  0.34206749898E+03  0.17236260609E+03 0.  0.
        -24    2    5    5    0    0 -0.17498078706E+03 -0.16419122398E+02  0.19273622403E+03  0.27313525312E+03  0.81041662280E+02 0.  0.
          5    1    3    3  501    0  0.15823992868E+03 -0.21206124417E+02  0.33857303782E+03  0.37435727144E+03  0.47000000000E+01 0. -1.
        -13    1    4    4    0    0 -0.16119651647E+02 -0.13216385568E+01  0.56602911414E+02  0.58868323216E+02  0.00000000000E+00 0.  1.
         14    1    4    4    0    0  0.96796892164E+02  0.22077831589E+02  0.35808148695E+03  0.37159039315E+03  0.00000000000E+00 0. -1.
         -5    1    5    5    0  502 -0.63936382141E+02  0.16869053783E+02 -0.18898110538E+02  0.68932245855E+02  0.47000000000E+01 0.  1.
         13    1    6    6    0    0 -0.16123201442E+03 -0.19504004728E+02  0.12772684465E+03  0.20661634862E+03  0.00000000000E+00 0. -1.
        -14    1    6    6    0    0 -0.13748772639E+02  0.30848823304E+01  0.65009379388E+02  0.66518904505E+02  0.00000000000E+00 0.  1.
</event>
<event>
12    1  0.1039610E+000  0.1969513E+03  0.7818608E-02  0.1152362E+00
         21   -1    0    0  501  502  0.00000000000E+00  0.00000000000E+00  0.57146211906E+03  0.57146211906E+03  0.00000000000E+00 0.  1.
         21   -1    0    0  502  503 -0.00000000000E+00 -0.00000000000E+00 -0.71616495427E+02  0.71616495427E+02  0.00000000000E+00 0. -1.
         -6    2    1    2    0  503  0.38248378234E+02 -0.87389401832E+02  0.32384668722E+03  0.37903365260E+03  0.17230782626E+03 0.  0.
        -24    2    3    3    0    0 -0.93181380254E+01 -0.50708095029E+01  0.24037842012E+03  0.25243205022E+03  0.76338812641E+02 0.  0.
          6    2    1    2  501    0 -0.38248378234E+02  0.87389401832E+02  0.17599893641E+03  0.26404496188E+03  0.17217511518E+03 0.  0.
         24    2    5    5    0    0 -0.73093169076E+02  0.10432699007E+03  0.12800099527E+03  0.20218274645E+03  0.90922362212E+02 0.  0.
          5    1    5    5  501    0  0.34844790842E+02 -0.16937588238E+02  0.47997941142E+02  0.61862215431E+02  0.47000000000E+01 0. -1.
        -11    1    6    6    0    0 -0.75458023210E+02  0.76819175508E+02  0.13597194168E+03  0.17344586451E+03  0.00000000000E+00 0.  1.
         12    1    6    6    0    0  0.23648541335E+01  0.27507814562E+02 -0.79709464079E+01  0.28736881941E+02  0.00000000000E+00 0. -1.
         -5    1    3    3    0  503  0.47566516260E+02 -0.82318592329E+02  0.83468267099E+02  0.12660160238E+03  0.47000000000E+01 0.  1.
         13    1    4    4    0    0 -0.39506555964E+02 -0.13661376649E+02  0.17480927008E+03  0.17973781484E+03  0.00000000000E+00 0. -1.
        -14    1    4    4    0    0  0.30188417939E+02  0.85905671466E+01  0.65569150033E+02  0.72694235380E+02  0.00000000000E+00 0.  1.
</event>
<event>
12    1  0.1039610E+000  0.2830723E+03  0.7818608E-02  0.1094668E+00
         21   -1    0    0  501  502  0.00000000000E+00  0.00000000000E+00  0.11422867744E+03  0.11422867744E+03  0.00000000000E+00 0. -1.
         21   -1    0    0  502  503 -0.00000000000E+00 -0.00000000000E+00 -0.69207380709E+03  0.69207380709E+03  0.00000000000E+00 0. -1.
         -6    2    1    2    0  503  0.21709639894E+03 -0.56952764393E+02 -0.26318414407E+03  0.38305141937E+03  0.16458442326E+03 0.  0.
        -24    2    3    3    0    0  0.19735986729E+03 -0.73833647357E+02 -0.27254217263E+03  0.35504860541E+03  0.85895003589E+02 0.  0.
          6    2    1    2  501    0 -0.21709639894E+03  0.56952764393E+02 -0.31466098558E+03  0.42325106516E+03  0.17249772320E+03 0.  0.
         24    2    5    5    0    0 -0.22755603461E+03  0.71893729906E+02 -0.31608413538E+03  0.40436319116E+03  0.81547240523E+02 0.  0.
          5    1    5    5  501    0  0.10459635672E+02 -0.14940965513E+02  0.14231498027E+01  0.18887873999E+02  0.47000000000E+01 0. -1.
        -11    1    6    6    0    0 -0.11935777901E+03  0.65742605187E+02 -0.12619083235E+03  0.18572155426E+03  0.00000000000E+00 0.  1.
         12    1    6    6    0    0 -0.10819825560E+03  0.61511247191E+01 -0.18989330303E+03  0.21864163690E+03  0.00000000000E+00 0. -1.
         -5    1    3    3    0  503  0.19736531650E+02  0.16880882964E+02  0.93580285536E+01  0.28002813959E+02  0.47000000000E+01 0.  1.
         11    1    4    4    0    0  0.12875655386E+03 -0.72256655195E+02 -0.12947150372E+03  0.19637246411E+03  0.00000000000E+00 0. -1.
        -12    1    4    4    0    0  0.68603313429E+02 -0.15769921623E+01 -0.14307066890E+03  0.15867614130E+03  0.00000000000E+00 0.  1.
</event>
<event>
12    1  0.1039610E+000  0.4338289E+03  0.7818608E-02  0.1032700E+00
         21   -1    0    0  501  502  0.00000000000E+00  0.00000000000E+00  0.69179423902E+03  0.69179423902E+03  0.00000000000E+00 0. -1.
         21   -1    0    0  502  503 -0.00000000000E+00 -0.00000000000E+00 -0.31954480467E+03  0.31954480467E+03  0.00000000000E+00 0. -1.
         -6    2    1    2    0  503 -0.25301648487E+03 -0.30705488040E+03  0.38166661847E+03  0.57740797415E+03  0.17155325638E+03 0.  0.
        -24    2    3    3    0    0 -0.74738329441E+02 -0.16210648316E+03  0.22981145250E+03  0.30195340441E+03  0.80611568413E+02 0.  0.
          6    2    1    2  501    0  0.25301648487E+03  0.30705488040E+03 -0.94171841173E+01  0.43393106954E+03  0.17293770141E+03 0.  0.
         24    2    5    5    0    0  0.21520917037E+03  0.31434291980E+03 -0.30685795020E+02  0.38969361530E+03  0.76112006604E+02 0.  0.
          5    1    5    5  501    0  0.37807314498E+02 -0.72880394073E+01  0.21268610902E+02  0.44237454240E+02  0.47000000000E+01 0. -1.
        -13    1    6    6    0    0  0.77211993992E+02  0.17093173488E+03 -0.34128297081E+02  0.19064126171E+03  0.00000000000E+00 0.  1.
         14    1    6    6    0    0  0.13799717638E+03  0.14341118492E+03  0.34425020613E+01  0.19905235359E+03  0.00000000000E+00 0. -1.
         -5    1    3    3    0  503 -0.17827815543E+03 -0.14494839723E+03  0.15185516596E+03  0.27545456974E+03  0.47000000000E+01 0.  1.
         11    1    4    4    0    0 -0.26824045208E+02 -0.51377427473E+02  0.22665815713E+02  0.62232697652E+02  0.00000000000E+00 0. -1.
        -12    1    4    4    0    0 -0.47914284232E+02 -0.11072905569E+03  0.20714563679E+03  0.23972070676E+03  0.00000000000E+00 0.  1.
</event>
<event>
12    1  0.1039610E+000  0.1957004E+03  0.7818608E-02  0.1153933E+00
         21   -1    0    0  503  502  0.00000000000E+00  0.00000000000E+00  0.98576431920E+02  0.98576431920E+02  0.00000000000E+00 0.  1.
         21   -1    0    0  501  503 -0.00000000000E+00 -0.00000000000E+00 -0.56018338220E+03  0.56018338220E+03  0.00000000000E+00 0.  1.
          6    2    1    2  501    0  0.63624317170E+02  0.65095832980E+02 -0.41655781243E+03  0.46023806186E+03  0.17324301222E+03 0.  0.
         24    2    3    3    0    0  0.31402214592E+02 -0.24923206314E+02 -0.11786911691E+03  0.14658424288E+03  0.77372774574E+02 0.  0.
         -6    2    1    2    0  502 -0.63624317170E+02 -0.65095832980E+02 -0.45049137847E+02  0.19852175226E+03  0.17057532087E+03 0.  0.
        -24    2    5    5    0    0  0.80035248847E+01  0.54184756135E+01  0.10507670259E+02  0.83580617753E+02  0.82352244907E+02 0.  0.
          5    1    3    3  501    0  0.32222102578E+02  0.90019039294E+02 -0.29868869552E+03  0.31365381898E+03  0.47000000000E+01 0. -1.
        -13    1    4    4    0    0  0.23367791140E+02 -0.48139288696E+02 -0.10717371787E+03  0.11979002705E+03  0.00000000000E+00 0.  1.
         14    1    4    4    0    0  0.80344234517E+01  0.23216082382E+02 -0.10695399045E+02  0.26794215833E+02  0.00000000000E+00 0. -1.
         -5    1    5    5    0  502 -0.71627842055E+02 -0.70514308594E+02 -0.55556808106E+02  0.11494113450E+03  0.47000000000E+01 0.  1.
         11    1    6    6    0    0 -0.15750184777E+02 -0.32800493730E+02  0.12671793170E+02  0.38529405025E+02  0.00000000000E+00 0. -1.
        -12    1    6    6    0    0  0.23753709662E+02  0.38218969343E+02 -0.21641229108E+01  0.45051212729E+02  0.00000000000E+00 0.  1.
</event>
<event>
12    1  0.1039610E+000  0.3145101E+03  0.7818608E-02  0.1078391E+00
         21   -1    0    0  503  502  0.00000000000E+00  0.00000000000E+00  0.13802830214E+03  0.13802830214E+03  0.00000000000E+00 0.  1.
         21   -1    0    0  501  503 -0.00000000000E+00 -0.00000000000E+00 -0.96446520680E+03  0.96446520680E+03  0.00000000000E+00 0.  1.
          6    2    1    2  501    0  0.13597184983E+03  0.22388195630E+03 -0.13099094041E+03  0.33923620670E+03  0.17120485731E+03 0.  0.
         24    2    3    3    0    0  0.37895159432E+01  0.63232565943E+02 -0.66760173338E+02  0.12145632368E+03  0.79259068817E+02 0.  0.
         -6    2    1    2    0  502 -0.13597184983E+03 -0.22388195630E+03 -0.69544596425E+03  0.76325730224E+03  0.17408373253E+03 0.  0.
        -24    2    5    5    0    0 -0.16349879087E+03 -0.16832943826E+03 -0.49868946460E+03  0.55691044644E+03  0.79946287281E+02 0.  0.
          5    1    3    3  501    0  0.13218233388E+03  0.16064939035E+03 -0.64230767076E+02  0.21777988303E+03  0.47000000000E+01 0. -1.
        -11    1    4    4    0    0  0.35376394827E+02  0.60414408197E+01 -0.27711799090E+02  0.45342387751E+02  0.00000000000E+00 0.  1.
         12    1    4    4    0    0 -0.31586878884E+02  0.57191125124E+02 -0.39048374248E+02  0.76113935925E+02  0.00000000000E+00 0. -1.
         -5    1    5    5    0  502  0.27526941049E+02 -0.55552518041E+02 -0.19675649965E+03  0.20634685580E+03  0.47000000000E+01 0.  1.
         11    1    6    6    0    0 -0.72823507238E+02 -0.66352023872E+02 -0.30087727170E+03  0.31659593634E+03  0.00000000000E+00 0. -1.
        -12    1    6    6    0    0 -0.90675283636E+02 -0.10197741438E+03 -0.19781219290E+03  0.24031451010E+03  0.00000000000E+00 0.  1.
</event>
<event>
12    1  0.1039610E+000  0.2662124E+03  0.7818608E-02  0.1104018E+00
         21   -1    0    0  501  502  0.00000000000E+00  0.00000000000E+00  0.20091733504E+04  0.20091733504E+04  0.00000000000E+00 0. -1.
         21   -1    0    0  502  503 -0.00000000000E+00 -0.00000000000E+00 -0.35095111952E+02  0.35095111952E+02  0.00000000000E+00 0.  1.
         -6    2    1    2    0  503  0.19648529441E+03  0.31156063006E+02  0.89670234063E+03  0.93538449472E+03  0.17689514996E+03 0.  0.
        -24    2    3    3    0    0  0.11473424542E+03  0.60437145177E+02  0.74628498747E+03  0.76163730505E+03  0.79583329492E+02 0.  0.
          6    2    1    2  501    0 -0.19648529441E+03 -0.31156063006E+02  0.10773758978E+04  0.11088839677E+04  0.17119479344E+03 0.  0.
         24    2    5    5    0    0 -0.12540961835E+03  0.44709168905E+02  0.55593191306E+03  0.57715734203E+03  0.79522470658E+02 0.  0.
          5    1    5    5  501    0 -0.71075676064E+02 -0.75865231912E+02  0.52144398478E+03  0.53172662563E+03  0.47000000000E+01 0. -1.
        -13    1    6    6    0    0 -0.13290236300E+03  0.26786286177E+02  0.49220940250E+03  0.51053955687E+03  0.00000000000E+00 0.  1.
         14    1    6    6    0    0  0.74927446466E+01  0.17922882728E+02  0.63722510555E+02  0.66617785156E+02  0.00000000000E+00 0. -1.
         -5    1    3    3    0  503  0.81751048993E+02 -0.29281082170E+02  0.15041735316E+03  0.17374718966E+03  0.47000000000E+01 0.  1.
         11    1    4    4    0    0  0.84503734852E+02 -0.49188525102E-01  0.40731847137E+03  0.41599185178E+03  0.00000000000E+00 0. -1.
        -12    1    4    4    0    0  0.30230510568E+02  0.60486333702E+02  0.33896651610E+03  0.34564545328E+03  0.00000000000E+00 0.  1.
</event>
<event>
12    1  0.1039610E+000  0.4829291E+03  0.7818608E-02  0.1018339E+00
         21   -1    0    0  501  502  0.00000000000E+00  0.00000000000E+00  0.41861997392E+03  0.41861997392E+03  0.00000000000E+00 0.  1.
         21   -1    0    0  502  503 -0.00000000000E+00 -0.00000000000E+00 -0.62137350485E+03  0.62137350485E+03  0.00000000000E+00 0.  1.
         -6    2    1    2    0  503  0.29292562851E+03 -0.34307204871E+03  0.65965355414E+02  0.48733596332E+03  0.17216578809E+03 0.  0.
        -24    2    3    3    0    0  0.15479440895E+03 -0.11674105097E+03  0.73740591564E+02  0.22202765464E+03  0.79175896331E+02 0.  0.
          6    2    1    2  501    0 -0.29292562851E+03  0.34307204871E+03 -0.26871888635E+03  0.55265751545E+03  0.17238513586E+03 0.  0.
         24    2    5    5    0    0 -0.70092289825E+02  0.65223455262E+02 -0.53414807035E+02  0.13644546100E+03  0.81223112514E+02 0.  0.
          5    1    5    5  501    0 -0.22283333868E+03  0.27784859345E+03 -0.21530407931E+03  0.41621205446E+03  0.47000000000E+01 0. -1.
        -13    1    6    6    0    0  0.93035107118E+01  0.36965966540E+02 -0.29865709550E+01  0.38235554133E+02  0.00000000000E+00 0.  1.
         14    1    6    6    0    0 -0.79395800537E+02  0.28257488722E+02 -0.50428236080E+02  0.98209906862E+02  0.00000000000E+00 0. -1.
         -5    1    3    3    0  503  0.13813121956E+03 -0.22633099774E+03 -0.77752361493E+01  0.26530830868E+03  0.47000000000E+01 0.  1.
         13    1    4    4    0    0  0.13832454171E+03 -0.11963635438E+03  0.44305608058E+02  0.18817418270E+03  0.00000000000E+00 0. -1.
        -14    1    4    4    0    0  0.16469867233E+02  0.28953034126E+01  0.29434983506E+02  0.33853471942E+02  0.00000000000E+00 0.  1.
</event>
<event>
12    1  0.1039610E+000  0.2350280E+03  0.7818608E-02  0.1123274E+00
         21   -1    0    0  501  502  0.00000000000E+00  0.00000000000E+00  0.37096162566E+03  0.37096162566E+03  0.00000000000E+00 0. -1.
         21   -1    0    0  502  503 -0.00000000000E+00 -0.00000000000E+00 -0.16993876641E+03  0.16993876641E+03  0.00000000000E+00 0. -1.
         -6    2    1    2    0  503 -0.12356291828E+03  0.98970201119E+02  0.19655321342E+03  0.30582991707E+03  0.17273064866E+03 0.  0.
        -24    2    3    3    0    0 -0.80043022988E+02  0.59425640534E+02  0.21087201769E+03  0.24512677289E+03  0.75377945441E+02 0.  0.
          6    2    1    2  501    0  0.12356291828E+03 -0.98970201119E+02  0.44696458344E+01  0.23507047500E+03  0.17371026165E+03 0.  0.
         24    2    5    5    0    0  0.77768200827E+02 -0.11805017441E+03  0.47935430131E+02  0.16894509461E+03  0.79125866778E+02 0.  0.
          5    1    5    5  501    0  0.45794717454E+02  0.19079973292E+02 -0.43465784296E+02  0.66125380392E+02  0.47000000000E+01 0. -1.
        -13    1    6    6    0    0 -0.13543969097E+02 -0.38792946819E+02  0.11895435067E+02  0.42776549618E+02  0.00000000000E+00 0.  1.
         14    1    6    6    0    0  0.91312169924E+02 -0.79257227592E+02  0.36039995064E+02  0.12616854499E+03  0.00000000000E+00 0. -1.
         -5    1    3    3    0  503 -0.43519895293E+02  0.39544560584E+02 -0.14318804274E+02  0.60703144185E+02  0.47000000000E+01 0.  1.
         13    1    4    4    0    0 -0.82521889127E+02  0.59775385491E+02  0.21632738059E+03  0.23912443307E+03  0.00000000000E+00 0. -1.
        -14    1    4    4    0    0  0.24788661391E+01 -0.34974495663E+00 -0.54553629040E+01  0.60023398175E+01  0.00000000000E+00 0.  1.
</event>
<event>
12    1  0.1039610E+000  0.2713810E+03  0.7818608E-02  0.1100668E+00
         21   -1    0    0  503  502  0.00000000000E+00  0.00000000000E+00  0.69251893370E+02  0.69251893370E+02  0.00000000000E+00 0.  1.
         21   -1    0    0  501  503 -0.00000000000E+00 -0.00000000000E+00 -0.14181818327E+04  0.14181818327E+04  0.00000000000E+00 0.  1.
          6    2    1    2  501    0 -0.18177860756E+03 -0.10222102431E+03 -0.10477838760E+04  0.10820492497E+04  0.17171758212E+03 0.  0.
         24    2    3    3    0    0 -0.10991033217E+03 -0.97824528635E+01 -0.36197290286E+03  0.38629877765E+03  0.77629799046E+02 0.  0.
         -6    2    1    2    0  502  0.18177860756E+03  0.10222102431E+03 -0.30114606328E+03  0.40538447632E+03  0.17365201477E+03 0.  0.
        -24    2    5    5    0    0  0.54793941236E+02  0.89589659480E+02 -0.10185735417E+03  0.16869325038E+03  0.83986957572E+02 0.  0.
          5    1    3    3  501    0 -0.71868275380E+02 -0.92438571444E+02 -0.68581097318E+03  0.69575047210E+03  0.47000000000E+01 0. -1.
        -13    1    4    4    0    0 -0.10939945086E+03  0.30577895911E+01 -0.35539133800E+03  0.37186098619E+03  0.00000000000E+00 0.  1.
         14    1    4    4    0    0 -0.51088131152E+00 -0.12840242455E+02 -0.65815648649E+01  0.14437791454E+02  0.00000000000E+00 0. -1.
         -5    1    5    5    0  502  0.12698466632E+03  0.12631364827E+02 -0.19928870912E+03  0.23669122594E+03  0.47000000000E+01 0.  1.
         11    1    6    6    0    0  0.77408645084E+02  0.71740610995E+02 -0.77029761836E+02  0.13066138606E+03  0.00000000000E+00 0. -1.
        -12    1    6    6    0    0 -0.22614703848E+02  0.17849048486E+02 -0.24827592332E+02  0.38031864311E+02  0.00000000000E+00 0.  1.
</event>
<event>
12    1  0.1039610E+000  0.2075518E+03  0.7818608E-02  0.1144224E+00
         21   -1    0    0  501  502  0.00000000000E+00  0.00000000000E+00  0.19667963306E+03  0.19667963306E+03  0.00000000000E+00 0.  1.
         21   -1    0    0  502  503 -0.00000000000E+00 -0.00000000000E+00 -0.21889785775E+03  0.21889785775E+03  0.00000000000E+00 0.  1.
         -6    2    1    2    0  503  0.10194990362E+03 -0.41680619423E+02  0.15343982304E+02  0.20465411976E+03  0.17180458102E+03 0.  0.
        -24    2    3    3    0    0  0.43954116931E+02 -0.52018817140E+02 -0.50539954246E+02  0.11614890692E+03  0.79362206816E+02 0.  0.
          6    2    1    2  501    0 -0.10194990362E+03  0.41680619423E+02 -0.37562206988E+02  0.21092337105E+03  0.17591671944E+03 0.  0.
         24    2    5    5    0    0 -0.13514480141E+02 -0.57795919202E+01 -0.68642970782E+02  0.10575018214E+03  0.79089814320E+02 0.  0.
          5    1    5    5  501    0 -0.88435423478E+02  0.47460211344E+02  0.31080763795E+02  0.10517318891E+03  0.47000000000E+01 0. -1.
        -13    1    6    6    0    0 -0.41833889332E+02  0.86104146253E+01 -0.18845465099E+02  0.46683670501E+02  0.00000000000E+00 0.  1.
         14    1    6    6    0    0  0.28319409191E+02 -0.14390006545E+02 -0.49797505683E+02  0.59066511642E+02  0.00000000000E+00 0. -1.
         -5    1    3    3    0  503  0.57995786689E+02  0.10338197717E+02  0.65883936550E+02  0.88505212847E+02  0.47000000000E+01 0.  1.
         13    1    4    4    0    0 -0.22463519293E+02 -0.12403511252E+02 -0.21719486642E+02  0.33618341577E+02  0.00000000000E+00 0. -1.
        -14    1    4    4    0    0  0.66417636224E+02 -0.39615305888E+02 -0.28820467604E+02  0.82530565339E+02  0.00000000000E+00 0.  1.
</event>
<event>
12    1  0.1039610E+000  0.2143767E+03  0.7818608E-02  0.1138385E+00
         21   -1    0    0  501  502  0.00000000000E+00  0.00000000000E+00  0.66519077559E+03  0.66519077559E+03  0.00000000000E+00 0.  1.
         21   -1    0    0  502  503 -0.00000000000E+00 -0.00000000000E+00 -0.76009637938E+02  0.76009637938E+02  0.00000000000E+00 0.  1.
         -6    2    1    2    0  503  0.79072647826E+02  0.10090589948E+03  0.40881519216E+03  0.46104111444E+03  0.17027790135E+03 0.  0.
        -24    2    3    3    0    0 -0.13248231062E+02  0.89998413569E+02  0.21093414417E+03  0.24236071505E+03  0.77267541381E+02 0.  0.
          6    2    1    2  501    0 -0.79072647826E+02 -0.10090589948E+03  0.18036594550E+03  0.28015929909E+03  0.17182221738E+03 0.  0.
         24    2    5    5    0    0 -0.21770203529E+02 -0.10810325789E+03  0.17427182054E+03  0.22189609930E+03  0.81896003090E+02 0.  0.
          5    1    5    5  501    0 -0.57302444297E+02  0.71973584156E+01  0.60941249618E+01  0.58263199789E+02  0.47000000000E+01 0. -1.
        -11    1    6    6    0    0 -0.32637348617E+02 -0.11620627893E+03  0.16823807298E+03  0.20705831301E+03  0.00000000000E+00 0.  1.
         12    1    6    6    0    0  0.10867145088E+02  0.81030210378E+01  0.60337475569E+01  0.14837786286E+02  0.00000000000E+00 0. -1.
         -5    1    3    3    0  503  0.92320878888E+02  0.10907485907E+02  0.19788104799E+03  0.21868039939E+03  0.47000000000E+01 0.  1.
         13    1    4    4    0    0 -0.28258252227E+02  0.40686778034E+02  0.39537707687E+02  0.63381172716E+02  0.00000000000E+00 0. -1.
        -14    1    4    4    0    0  0.15010021165E+02  0.49311635534E+02  0.17139643648E+03  0.17897954233E+03  0.00000000000E+00 0.  1.
</event>
<event>
12    1  0.1039610E+000  0.2033752E+03  0.7818608E-02  0.1148893E+00
         21   -1    0    0  501  502  0.00000000000E+00  0.00000000000E+00  0.81349185937E+02  0.81349185937E+02  0.00000000000E+00 0. -1.
         21   -1    0    0  502  503 -0.00000000000E+00 -0.00000000000E+00 -0.53109610358E+03  0.53109610358E+03  0.00000000000E+00 0. -1.
         -6    2    1    2    0  503 -0.76156740824E+02 -0.45807833161E+02 -0.31946655034E+03  0.37870880636E+03  0.18292970364E+03 0.  0.
        -24    2    3    3    0    0 -0.19409925969E+02 -0.90452684224E+01 -0.29523704430E+03  0.30673071160E+03  0.80375711530E+02 0.  0.
          6    2    1    2  501    0  0.76156740824E+02  0.45807833161E+02 -0.13028036731E+03  0.23373648316E+03  0.17251539845E+03 0.  0.
         24    2    5    5    0    0  0.38281993448E+02  0.94421855596E+02 -0.10703733822E+03  0.16770506589E+03  0.79290601685E+02 0.  0.
          5    1    5    5  501    0  0.37874747375E+02 -0.48614022435E+02 -0.23243029094E+02  0.66031417277E+02  0.47000000000E+01 0. -1.
        -13    1    6    6    0    0 -0.23662402145E+02  0.40077199794E+02 -0.42668664518E+02  0.63140368626E+02  0.00000000000E+00 0.  1.
         14    1    6    6    0    0  0.61944395593E+02  0.54344655803E+02 -0.64368673698E+02  0.10456469726E+03  0.00000000000E+00 0. -1.
         -5    1    3    3    0  503 -0.56746814855E+02 -0.36762564739E+02 -0.24229506040E+02  0.71978094760E+02  0.47000000000E+01 0.  1.
         13    1    4    4    0    0 -0.31351227489E+02 -0.16894793684E+02 -0.51725158846E+02  0.62799885162E+02  0.00000000000E+00 0. -1.
        -14    1    4    4    0    0  0.11941301520E+02  0.78495252617E+01 -0.24351188545E+03  0.24393082643E+03  0.00000000000E+00 0.  1.
</event>
<event>
12    1  0.1039610E+000  0.2070835E+03  0.7818608E-02  0.1143933E+00
         21   -1    0    0  503  502  0.00000000000E+00  0.00000000000E+00  0.65168685768E+03  0.65168685768E+03  0.00000000000E+00 0. -1.
         21   -1    0    0  501  503 -0.00000000000E+00 -0.00000000000E+00 -0.65965792431E+02  0.65965792431E+02  0.00000000000E+00 0. -1.
          6    2    1    2  501    0  0.65525393450E+02  0.97471102300E+02  0.31341486743E+03  0.37555000318E+03  0.17033711513E+03 0.  0.
         24    2    3    3    0    0  0.76901668064E+02  0.11293728636E+03  0.17619447161E+03  0.23691324938E+03  0.80091814227E+02 0.  0.
         -6    2    1    2    0  502 -0.65525393450E+02 -0.97471102300E+02  0.27230619782E+03  0.34210264693E+03  0.17055603976E+03 0.  0.
        -24    2    5    5    0    0 -0.27555376192E+02 -0.11575862155E+02  0.45875789719E+02  0.96924070783E+02  0.79977422271E+02 0.  0.
          5    1    3    3  501    0 -0.11376274613E+02 -0.15466184061E+02  0.13722039582E+03  0.13863675379E+03  0.47000000000E+01 0. -1.
        -11    1    4    4    0    0  0.74550902235E+02  0.76143069351E+02  0.78098059788E+02  0.13211703515E+03  0.00000000000E+00 0.  1.
         12    1    4    4    0    0  0.23507658286E+01  0.36794217011E+02  0.98096411823E+02  0.10479621423E+03  0.00000000000E+00 0. -1.
         -5    1    5    5    0  502 -0.37970017259E+02 -0.85895240145E+02  0.22643040810E+03  0.24517857615E+03  0.47000000000E+01 0.  1.
         11    1    6    6    0    0 -0.38186490677E+02 -0.39362854454E+02  0.35889310053E+02  0.65541475091E+02  0.00000000000E+00 0. -1.
        -12    1    6    6    0    0  0.10631114486E+02  0.27786992299E+02  0.99864796654E+01  0.31382595692E+02  0.00000000000E+00 0.  1.
</event>
<event>
12    1  0.1039610E+000  0.1821295E+03  0.7818608E-02  0.1166325E+00
         21   -1    0    0  501  502  0.00000000000E+00  0.00000000000E+00  0.12674108498E+04  0.12674108498E+04  0.00000000000E+00 0. -1.
         21   -1    0    0  502  503 -0.00000000000E+00 -0.00000000000E+00 -0.42209906555E+02  0.42209906555E+02  0.00000000000E+00 0. -1.
         -6    2    1    2    0  503  0.57617242642E+02 -0.12879855538E+02  0.20230053944E+03  0.27063259269E+03  0.16979650952E+03 0.  0.
        -24    2    3    3    0    0  0.93073691724E+02 -0.38182014492E+02  0.11523810917E+03  0.17316815922E+03  0.81159172246E+02 0.  0.
          6    2    1    2  501    0 -0.57617242642E+02  0.12879855538E+02  0.10229004038E+04  0.10389881637E+04  0.17229489484E+03 0.  0.
         24    2    5    5    0    0 -0.11370339370E+02 -0.10830837996E+02  0.92008433261E+03  0.92368765392E+03  0.79981943079E+02 0.  0.
          5    1    5    5  501    0 -0.46246903272E+02  0.23710693534E+02  0.10281607120E+03  0.11530050974E+03  0.47000000000E+01 0. -1.
        -11    1    6    6    0    0 -0.24652933108E+02  0.21151118678E+02  0.71205766925E+03  0.71279819113E+03  0.00000000000E+00 0.  1.
         12    1    6    6    0    0  0.13282593738E+02 -0.31981956674E+02  0.20802666335E+03  0.21088946279E+03  0.00000000000E+00 0. -1.
         -5    1    3    3    0  503 -0.35456449082E+02  0.25302158954E+02  0.87062430265E+02  0.97464433476E+02  0.47000000000E+01 0.  1.
         11    1    4    4    0    0  0.93817568066E+01  0.20093600352E+02  0.42388293853E+02  0.47838662101E+02  0.00000000000E+00 0. -1.
        -12    1    4    4    0    0  0.83691934917E+02 -0.58275614844E+02  0.72849815319E+02  0.12532949712E+03  0.00000000000E+00 0.  1.
</event>
<event>
12    1  0.1039610E+000  0.1769248E+03  0.7818608E-02  0.1171409E+00
         21   -1    0    0  501  502  0.00000000000E+00  0.00000000000E+00  0.25591808600E+03  0.25591808600E+03  0.00000000000E+00 0. -1.
         21   -1    0    0  502  503 -0.00000000000E+00 -0.00000000000E+00 -0.12117073229E+03  0.12117073229E+03  0.00000000000E+00 0. -1.
         -6    2    1    2    0  503  0.14506131262E+01  0.40977641157E+02  0.54765493090E+02  0.18292527930E+03  0.16965001391E+03 0.  0.
        -24    2    3    3    0    0 -0.45916642386E+01 -0.76974513848E+01  0.83152364388E+02  0.12605983978E+03  0.94320906286E+02 0.  0.
          6    2    1    2  501    0 -0.14506131262E+01 -0.40977641157E+02  0.79981860621E+02  0.19416353900E+03  0.17210784554E+03 0.  0.
         24    2    5    5    0    0  0.50641036190E+02 -0.69259251181E+02  0.46761728402E+02  0.12605291884E+03  0.79632409764E+02 0.  0.
          5    1    5    5  501    0 -0.52091649316E+02  0.28281610024E+02  0.33220132218E+02  0.68110620160E+02  0.47000000000E+01 0. -1.
        -11    1    6    6    0    0  0.28070716351E+02  0.64750580187E+01  0.36293044274E+02  0.46336557441E+02  0.00000000000E+00 0.  1.
         12    1    6    6    0    0  0.22570319839E+02 -0.75734309200E+02  0.10468684128E+02  0.79716361400E+02  0.00000000000E+00 0. -1.
         -5    1    3    3    0  503  0.60422773648E+01  0.48675092542E+02 -0.28386871299E+02  0.56865439520E+02  0.47000000000E+01 0.  1.
         11    1    4    4    0    0  0.25893811644E+02  0.32850309052E+02  0.51167311588E+02  0.66088774095E+02  0.00000000000E+00 0. -1.
        -12    1    4    4    0    0 -0.30485475883E+02 -0.40547760436E+02  0.31985052801E+02  0.59971065681E+02  0.00000000000E+00 0.  1.
</event>
<event>
12    1  0.1039610E+000  0.2664264E+03  0.7818608E-02  0.1103353E+00
         21   -1    0    0  501  502  0.00000000000E+00  0.00000000000E+00  0.26770555885E+03  0.26770555885E+03  0.00000000000E+00 0.  1.
         21   -1    0    0  502  503 -0.00000000000E+00 -0.00000000000E+00 -0.28333194394E+03  0.28333194394E+03  0.00000000000E+00 0. -1.
         -6    2    1    2    0  503  0.19516259423E+03  0.58878464074E+02  0.62106378637E+02  0.27356941471E+03  0.17154565188E+03 0.  0.
        -24    2    3    3    0    0  0.11492345953E+03  0.38845244353E+02 -0.31320631081E+02  0.14870811256E+03  0.80104720524E+02 0.  0.
          6    2    1    2  501    0 -0.19516259423E+03 -0.58878464074E+02 -0.77732763732E+02  0.27746808808E+03  0.17143816853E+03 0.  0.
         24    2    5    5    0    0 -0.10582357792E+03 -0.78688967652E+02  0.68886291408E+01  0.15274124246E+03  0.76758391481E+02 0.  0.
          5    1    5    5  501    0 -0.89339016310E+02  0.19810503578E+02 -0.84621392872E+02  0.12472684562E+03  0.47000000000E+01 0. -1.
        -11    1    6    6    0    0 -0.12612441754E+02  0.15313285323E+02  0.44806540996E+01  0.20338305130E+02  0.00000000000E+00 0.  1.
         12    1    6    6    0    0 -0.93211136168E+02 -0.94002252976E+02  0.24079750413E+01  0.13240293733E+03  0.00000000000E+00 0. -1.
         -5    1    3    3    0  503  0.80239134704E+02  0.20033219721E+02  0.93427009718E+02  0.12486130215E+03  0.47000000000E+01 0.  1.
         11    1    4    4    0    0 -0.31759082345E+01  0.25831044344E+02 -0.80643107206E+00  0.26038040942E+02  0.00000000000E+00 0. -1.
        -12    1    4    4    0    0  0.11809936776E+03  0.13014200008E+02 -0.30514200009E+02  0.12267007161E+03  0.00000000000E+00 0.  1.
</event>
<event>
12    1  0.1039610E+000  0.3330276E+03  0.7818608E-02  0.1069840E+00
         21   -1    0    0  501  502  0.00000000000E+00  0.00000000000E+00  0.18531513008E+04  0.18531513008E+04  0.00000000000E+00 0.  1.
         21   -1    0    0  502  503 -0.00000000000E+00 -0.00000000000E+00 -0.60719174746E+02  0.60719174746E+02  0.00000000000E+00 0.  1.
         -6    2    1    2    0  503  0.27618070420E+03  0.69957062656E+02  0.10149380386E+04  0.10681791096E+04  0.17244597986E+03 0.  0.
        -24    2    3    3    0    0  0.85916070810E+02  0.76142031305E+02  0.36784277665E+03  0.39364723295E+03  0.80440384895E+02 0.  0.
          6    2    1    2  501    0 -0.27618070420E+03 -0.69957062656E+02  0.77749408742E+03  0.84569136593E+03  0.17183439249E+03 0.  0.
         24    2    5    5    0    0 -0.19031015356E+03 -0.76974190116E+02  0.68085294424E+03  0.71613600286E+03  0.84540300512E+02 0.  0.
          5    1    5    5  501    0 -0.85870550647E+02  0.70171274596E+01  0.96641143176E+02  0.12955536307E+03  0.47000000000E+01 0. -1.
        -13    1    6    6    0    0 -0.91588798247E+01  0.14496980008E+02  0.32230064481E+02  0.36507869911E+02  0.00000000000E+00 0.  1.
         14    1    6    6    0    0 -0.18115127373E+03 -0.91471170124E+02  0.64862287976E+03  0.67962813294E+03  0.00000000000E+00 0. -1.
         -5    1    3    3    0  503  0.19026463339E+03 -0.61849686493E+01  0.64709526197E+03  0.67453187665E+03  0.47000000000E+01 0.  1.
         11    1    4    4    0    0  0.48828399660E+02  0.76497531997E+02  0.32271965898E+03  0.33523732386E+03  0.00000000000E+00 0. -1.
        -12    1    4    4    0    0  0.37087671151E+02 -0.35550069205E+00  0.45123117670E+02  0.58409909094E+02  0.00000000000E+00 0.  1.
</event>
<event>
12    1  0.1039610E+000  0.2865665E+03  0.7818608E-02  0.1092217E+00
         21   -1    0    0  503  502  0.00000000000E+00  0.00000000000E+00  0.16669122932E+03  0.16669122932E+03  0.00000000000E+00 0. -1.
         21   -1    0    0  501  503 -0.00000000000E+00 -0.00000000000E+00 -0.49318380747E+03  0.49318380747E+03  0.00000000000E+00 0. -1.
          6    2    1    2  501    0  0.12973972071E+03  0.18891515271E+03 -0.18024549559E+03  0.33814759130E+03  0.17127178627E+03 0.  0.
         24    2    3    3    0    0  0.80661396841E+02  0.18530249154E+03 -0.18864692735E+03  0.28800372578E+03  0.80716841788E+02 0.  0.
         -6    2    1    2    0  502 -0.12973972071E+03 -0.18891515271E+03 -0.14624708257E+03  0.32172744549E+03  0.17204362810E+03 0.  0.
        -24    2    5    5    0    0 -0.73734161535E+02 -0.15122230256E+03 -0.32372936870E+02  0.18926316854E+03  0.80421567718E+02 0.  0.
          5    1    3    3  501    0  0.49078323865E+02  0.36126611651E+01  0.84014317666E+01  0.50143865526E+02  0.47000000000E+01 0. -1.
        -13    1    4    4    0    0  0.34872823089E+02  0.13501149122E+03 -0.82751469649E+02  0.16214814917E+03  0.00000000000E+00 0.  1.
         14    1    4    4    0    0  0.45788573753E+02  0.50291000328E+02 -0.10589545770E+03  0.12585557660E+03  0.00000000000E+00 0. -1.
         -5    1    5    5    0  502 -0.56005559171E+02 -0.37692850149E+02 -0.11387414570E+03  0.13246427695E+03  0.47000000000E+01 0.  1.
         13    1    6    6    0    0  0.16397067431E+02 -0.29882035272E+02 -0.14559620997E+02  0.37064570899E+02  0.00000000000E+00 0. -1.
        -14    1    6    6    0    0 -0.90131228967E+02 -0.12134026729E+03 -0.17813315872E+02  0.15219859764E+03  0.00000000000E+00 0.  1.
</event>
<event>
12    1  0.1039610E+000  0.3009662E+03  0.7818608E-02  0.1084837E+00
         21   -1    0    0  501  502  0.00000000000E+00  0.00000000000E+00  0.79738520218E+03  0.79738520218E+03  0.00000000000E+00 0. -1.
         21   -1    0    0  502  503 -0.00000000000E+00 -0.00000000000E+00 -0.11508254364E+03  0.11508254364E+03  0.00000000000E+00 0. -1.
         -6    2    1    2    0  503  0.12773831623E+03 -0.20765822413E+03  0.39663156557E+03  0.49751157355E+03  0.17539142375E+03 0.  0.
        -24    2    3    3    0    0  0.57137468013E+02 -0.10532460656E+03  0.98234807263E+02  0.17421702608E+03  0.79646291945E+02 0.  0.
          6    2    1    2  501    0 -0.12773831623E+03  0.20765822413E+03  0.28567109298E+03  0.41495617227E+03  0.17646992963E+03 0.  0.
         24    2    5    5    0    0 -0.43241000245E+02  0.15505541567E+03  0.10161787997E+03  0.20566086156E+03  0.77834635078E+02 0.  0.
          5    1    5    5  501    0 -0.84497315986E+02  0.52602808457E+02  0.18405321301E+03  0.20929531071E+03  0.47000000000E+01 0. -1.
        -13    1    6    6    0    0 -0.53041063788E+02  0.98356594272E+02  0.96934046121E+02  0.14793100886E+03  0.00000000000E+00 0.  1.
         14    1    6    6    0    0  0.98000635431E+01  0.56698821401E+02  0.46838338476E+01  0.57729852704E+02  0.00000000000E+00 0. -1.
         -5    1    3    3    0  503  0.70600848218E+02 -0.10233361757E+03  0.29839675830E+03  0.32329454746E+03  0.47000000000E+01 0.  1.
         11    1    4    4    0    0  0.64868491657E+02 -0.58723289297E+02  0.32655299511E+02  0.93395473670E+02  0.00000000000E+00 0. -1.
        -12    1    4    4    0    0 -0.77310236443E+01 -0.46601317265E+02  0.65579507752E+02  0.80821552413E+02  0.00000000000E+00 0.  1.
</event>
<event>
12    1  0.1039610E+000  0.1816043E+03  0.7818608E-02  0.1169556E+00
         21   -1    0    0  503  502  0.00000000000E+00  0.00000000000E+00  0.34862650042E+02  0.34862650042E+02  0.00000000000E+00 0. -1.
         21   -1    0    0  501  503 -0.00000000000E+00 -0.00000000000E+00 -0.91289017413E+03  0.91289017413E+03  0.00000000000E+00 0. -1.
          6    2    1    2  501    0  0.41168858832E+02 -0.17598557813E+02 -0.51521234089E+03  0.54202511847E+03  0.16230492498E+03 0.  0.
         24    2    3    3    0    0  0.80402731366E+02 -0.80184017251E+01 -0.26581000288E+03  0.28933025832E+03  0.80796947759E+02 0.  0.
         -6    2    1    2    0  502 -0.41168858832E+02  0.17598557813E+02 -0.36281518320E+03  0.40572770570E+03  0.17599866431E+03 0.  0.
        -24    2    5    5    0    0 -0.81598597669E+02  0.44079380849E+02 -0.31452245307E+03  0.33724357941E+03  0.78787914100E+02 0.  0.
          5    1    3    3  501    0 -0.39233872534E+02 -0.95801560881E+01 -0.24940233801E+03  0.25269486015E+03  0.47000000000E+01 0. -1.
        -13    1    4    4    0    0  0.13888269131E+02 -0.33937066689E+02 -0.49894012453E+02  0.61919471845E+02  0.00000000000E+00 0.  1.
         14    1    4    4    0    0  0.66514462235E+02  0.25918664964E+02 -0.21591599043E+03  0.22741078647E+03  0.00000000000E+00 0. -1.
         -5    1    5    5    0  502  0.40429738837E+02 -0.26480823036E+02 -0.48292730124E+02  0.68484126291E+02  0.47000000000E+01 0.  1.
         13    1    6    6    0    0 -0.72422600907E+02  0.15053920896E+01 -0.24239425890E+03  0.25298671126E+03  0.00000000000E+00 0. -1.
        -14    1    6    6    0    0 -0.91759967622E+01  0.42573988759E+02 -0.72128194180E+02  0.84256868154E+02  0.00000000000E+00 0.  1.
</event>
<event>
12    1  0.1039610E+000  0.2564182E+03  0.7818608E-02  0.1109343E+00
         21   -1    0    0  503  502  0.00000000000E+00  0.00000000000E+00  0.79318868768E+02  0.79318868768E+02  0.00000000000E+00 0.  1.
         21   -1    0    0  501  503 -0.00000000000E+00 -0.00000000000E+00 -0.87503614462E+03  0.87503614462E+03  0.00000000000E+00 0.  1.
          6    2    1    2  501    0  0.91012090177E+02 -0.16655964619E+03 -0.50824004758E+03  0.56926114378E+03  0.17240936041E+03 0.  0.
         24    2    3    3    0    0 -0.13019773548E+02 -0.94516056485E+02 -0.30746614389E+03  0.33188979359E+03  0.80700718796E+02 0.  0.
         -6    2    1    2    0  502 -0.91012090177E+02  0.16655964619E+03 -0.28747722827E+03  0.38509386961E+03  0.17213022784E+03 0.  0.
        -24    2    5    5    0    0 -0.11105956377E+03  0.16527339908E+03 -0.19637789630E+03  0.29168758548E+03  0.82872469606E+02 0.  0.
          5    1    3    3  501    0  0.10403186372E+03 -0.72043589709E+02 -0.20077390369E+03  0.23737135019E+03  0.47000000000E+01 0. -1.
        -11    1    4    4    0    0 -0.21851545755E+02 -0.52532647850E+01 -0.14114158933E+03  0.14291968053E+03  0.00000000000E+00 0.  1.
         12    1    4    4    0    0  0.88317722071E+01 -0.89262791700E+02 -0.16632455456E+03  0.18897011307E+03  0.00000000000E+00 0. -1.
         -5    1    5    5    0  502  0.20047473593E+02  0.12862471136E+01 -0.91099331970E+02  0.93406284128E+02  0.47000000000E+01 0.  1.
         11    1    6    6    0    0 -0.41258460614E+02  0.12922223063E+03 -0.14038589938E+03  0.19521487189E+03  0.00000000000E+00 0. -1.
        -12    1    6    6    0    0 -0.69801103156E+02  0.36051168449E+02 -0.55991996922E+02  0.96472713591E+02  0.00000000000E+00 0.  1.
</event>
<event>
12    1  0.1039610E+000  0.2014324E+03  0.7818608E-02  0.1149522E+00
         21   -1    0    0  503  502  0.00000000000E+00  0.00000000000E+00  0.61282493193E+03  0.61282493193E+03  0.00000000000E+00 0. -1.
         21   -1    0    0  501  503 -0.00000000000E+00 -0.00000000000E+00 -0.91124678742E+02  0.91124678742E+02  0.00000000000E+00 0. -1.
          6    2    1    2  501    0 -0.26175253376E+01  0.96277212988E+02  0.73441531719E+02  0.21440307293E+03  0.17691485501E+03 0.  0.
         24    2    3    3    0    0 -0.60219065876E+01  0.12380144745E+03  0.13508850860E+02  0.14819741207E+03  0.80105693576E+02 0.  0.
         -6    2    1    2    0  502  0.26175253376E+01 -0.96277212988E+02  0.44825872147E+03  0.48954653774E+03  0.17159189392E+03 0.  0.
        -24    2    5    5    0    0 -0.44390182474E+02 -0.12072664139E+02  0.15025847262E+03  0.17629525050E+03  0.79913510978E+02 0.  0.
          5    1    3    3  501    0  0.34043812500E+01 -0.27524234467E+02  0.59932680859E+02  0.66205660858E+02  0.47000000000E+01 0. -1.
        -11    1    4    4    0    0 -0.12276528496E+02  0.47164752311E+02 -0.32512408991E+02  0.58585695787E+02  0.00000000000E+00 0.  1.
         12    1    4    4    0    0  0.62546219087E+01  0.76636695144E+02  0.46021259851E+02  0.89611716288E+02  0.00000000000E+00 0. -1.
         -5    1    5    5    0  502  0.47007707812E+02 -0.84204548849E+02  0.29800024885E+03  0.31325128724E+03  0.47000000000E+01 0.  1.
         11    1    6    6    0    0 -0.74331552601E+01  0.34803484663E-01 -0.93913195262E+01  0.11977056852E+02  0.00000000000E+00 0. -1.
        -12    1    6    6    0    0 -0.36957027214E+02 -0.12107467624E+02  0.15964979215E+03  0.16431819365E+03  0.00000000000E+00 0.  1.
</event>
<event>
12    1  0.1039610E+000  0.2047311E+03  0.7818608E-02  0.1145859E+00
         21   -1    0    0  501  502  0.00000000000E+00  0.00000000000E+00  0.61192600382E+03  0.61192600382E+03  0.00000000000E+00 0.  1.
         21   -1    0    0  502  503 -0.00000000000E+00 -0.00000000000E+00 -0.83783930696E+02  0.83783930696E+02  0.00000000000E+00 0. -1.
         -6    2    1    2    0  503 -0.87010535727E+02 -0.69682860944E+02  0.41319971012E+03  0.46113859961E+03  0.17172149885E+03 0.  0.
        -24    2    3    3    0    0 -0.75433741893E+02 -0.15874097148E+02  0.12186267577E+03  0.16461075471E+03  0.79397433486E+02 0.  0.
          6    2    1    2  501    0  0.87010535727E+02  0.69682860944E+02  0.11494236300E+03  0.23457133490E+03  0.17142178948E+03 0.  0.
         24    2    5    5    0    0  0.70049630628E+02 -0.24232771561E+02  0.63604771539E+02  0.12610264529E+03  0.79762975225E+02 0.  0.
          5    1    5    5  501    0  0.16960905098E+02  0.93915632504E+02  0.51337591462E+02  0.10846868962E+03  0.47000000000E+01 0. -1.
        -13    1    6    6    0    0  0.56566866713E+02  0.10860690449E+02  0.68220676121E+01  0.58002634538E+02  0.00000000000E+00 0.  1.
         14    1    6    6    0    0  0.13482763915E+02 -0.35093462010E+02  0.56782703927E+02  0.68100010748E+02  0.00000000000E+00 0. -1.
         -5    1    3    3    0  503 -0.11576793834E+02 -0.53808763795E+02  0.29133703435E+03  0.29652784490E+03  0.47000000000E+01 0.  1.
         11    1    4    4    0    0 -0.53210038140E+02  0.61324946064E+01  0.12210248843E+03  0.13333391665E+03  0.00000000000E+00 0. -1.
        -12    1    4    4    0    0 -0.22223703753E+02 -0.22006591755E+02 -0.23981265329E+00  0.31276838064E+02  0.00000000000E+00 0.  1.
</event>
<event>
12    1  0.1039610E+000  0.2931741E+03  0.7818608E-02  0.1088854E+00
         21   -1    0    0  501  502  0.00000000000E+00  0.00000000000E+00  0.84005555898E+03  0.84005555898E+03  0.00000000000E+00 0. -1.
         21   -1    0    0  502  503 -0.00000000000E+00 -0.00000000000E+00 -0.21669599146E+03  0.21669599146E+03  0.00000000000E+00 0.  1.
         -6    2    1    2    0  503 -0.61671897359E+02 -0.22913564123E+03 -0.73174167564E+02  0.30103313489E+03  0.17017615724E+03 0.  0.
        -24    2    3    3    0    0 -0.62457065982E+02 -0.12556118650E+03 -0.10518417022E+03  0.19252039631E+03  0.79585781918E+02 0.  0.
          6    2    1    2  501    0  0.61671897359E+02  0.22913564123E+03  0.69653373508E+03  0.75571841555E+03  0.17217582434E+03 0.  0.
         24    2    5    5    0    0  0.89249561018E+02  0.22705076792E+03  0.66900585743E+03  0.71641512971E+03  0.78512836201E+02 0.  0.
          5    1    5    5  501    0 -0.27577663659E+02  0.20848733094E+01  0.27527877650E+02  0.39303285836E+02  0.47000000000E+01 0. -1.
        -13    1    6    6    0    0  0.71794890757E+02  0.12333685234E+03  0.47187442396E+03  0.49298271518E+03  0.00000000000E+00 0.  1.
         14    1    6    6    0    0  0.17454670261E+02  0.10371391558E+03  0.19713143348E+03  0.22343241453E+03  0.00000000000E+00 0. -1.
         -5    1    3    3    0  503  0.78516862256E+00 -0.10357445474E+03  0.32010002658E+02  0.10851273858E+03  0.47000000000E+01 0.  1.
         13    1    4    4    0    0 -0.83498668550E+01  0.11239184521E+02 -0.70064876667E+01  0.15656641230E+02  0.00000000000E+00 0. -1.
        -14    1    4    4    0    0 -0.54107199127E+02 -0.13680037102E+03 -0.98177682554E+02  0.17686375508E+03  0.00000000000E+00 0.  1.
</event>
<event>
12    1  0.1039610E+000  0.2195229E+03  0.7818608E-02  0.1134307E+00
         21   -1    0    0  503  502  0.00000000000E+00  0.00000000000E+00  0.99785387994E+02  0.99785387994E+02  0.00000000000E+00 0. -1.
         21   -1    0    0  501  503 -0.00000000000E+00 -0.00000000000E+00 -0.49591452064E+03  0.49591452064E+03  0.00000000000E+00 0. -1.
          6    2    1    2  501    0  0.13201830890E+03 -0.31958996422E+02 -0.24785365395E+03  0.33109176396E+03  0.17245321409E+03 0.  0.
         24    2    3    3    0    0  0.25342898422E+01  0.18611116139E+02 -0.87076755047E+02  0.11850119809E+03  0.78149705125E+02 0.  0.
         -6    2    1    2    0  502 -0.13201830890E+03  0.31958996422E+02 -0.14827547870E+03  0.26460814467E+03  0.17199314320E+03 0.  0.
        -24    2    5    5    0    0 -0.13114199168E+03 -0.21338489333E+02 -0.14290800051E+03  0.21082813220E+03  0.79826384172E+02 0.  0.
          5    1    3    3  501    0  0.12948401906E+03 -0.50570112561E+02 -0.16077689890E+03  0.21259056587E+03  0.47000000000E+01 0. -1.
        -13    1    4    4    0    0 -0.45545368742E+01 -0.30081477228E+02 -0.25633267435E+02  0.39783205977E+02  0.00000000000E+00 0.  1.
         14    1    4    4    0    0  0.70888267164E+01  0.48692593367E+02 -0.61443487612E+02  0.78717992117E+02  0.00000000000E+00 0. -1.
         -5    1    5    5    0  502 -0.87631722518E+00  0.53297485754E+02 -0.53674781917E+01  0.53780012474E+02  0.47000000000E+01 0.  1.
         13    1    6    6    0    0 -0.13216384312E+03 -0.19264505974E+02 -0.97502146543E+02  0.16536345182E+03  0.00000000000E+00 0. -1.
        -14    1    6    6    0    0  0.10218514442E+01 -0.20739833587E+01 -0.45405853966E+02  0.45464680376E+02  0.00000000000E+00 0.  1.
</event>
<event>
12    1  0.1039610E+000  0.3814222E+03  0.7818608E-02  0.1051081E+00
         21   -1    0    0  503  502  0.00000000000E+00  0.00000000000E+00  0.64704825900E+03  0.64704825900E+03  0.00000000000E+00 0.  1.
         21   -1    0    0  501  503 -0.00000000000E+00 -0.00000000000E+00 -0.23229969494E+03  0.23229969494E+03  0.00000000000E+00 0.  1.
          6    2    1    2  501    0 -0.31049029087E+03  0.11736883401E+03  0.11058206579E+03  0.39712883155E+03  0.18789159548E+03 0.  0.
         24    2    3    3    0    0 -0.31485320543E+03  0.10286018798E+03  0.62760873209E+02  0.34674537898E+03  0.81121337489E+02 0.  0.
         -6    2    1    2    0  502  0.31049029087E+03 -0.11736883401E+03  0.30416649826E+03  0.48221912239E+03  0.17273783436E+03 0.  0.
        -24    2    5    5    0    0  0.26006550734E+03 -0.13407192727E+03  0.19275381951E+03  0.35870180740E+03  0.76834900279E+02 0.  0.
          5    1    3    3  501    0  0.43629145606E+01  0.14508646026E+02  0.47821192583E+02  0.50383452571E+02  0.47000000000E+01 0. -1.
        -11    1    4    4    0    0 -0.67814976290E+02 -0.92833221007E+01  0.24800401633E+02  0.72801861237E+02  0.00000000000E+00 0.  1.
         12    1    4    4    0    0 -0.24703822914E+03  0.11214351008E+03  0.37960471575E+02  0.27394351774E+03  0.00000000000E+00 0. -1.
         -5    1    5    5    0  502  0.50424783522E+02  0.16703093265E+02  0.11141267875E+03  0.12351731499E+03  0.47000000000E+01 0.  1.
         11    1    6    6    0    0  0.47489668769E+02 -0.70706795055E+00  0.54126240054E+02  0.72009849654E+02  0.00000000000E+00 0. -1.
        -12    1    6    6    0    0  0.21257583858E+03 -0.13336485932E+03  0.13862757946E+03  0.28669195774E+03  0.00000000000E+00 0.  1.
</event>
<event>
12    1  0.1039610E+000  0.1772338E+03  0.7818608E-02  0.1171232E+00
         21   -1    0    0  501  502  0.00000000000E+00  0.00000000000E+00  0.74289782842E+03  0.74289782842E+03  0.00000000000E+00 0. -1.
         21   -1    0    0  502  503 -0.00000000000E+00 -0.00000000000E+00 -0.16997379950E+03  0.16997379950E+03  0.00000000000E+00 0. -1.
         -6    2    1    2    0  503  0.30699229129E+02  0.10668951145E+02  0.68371892575E+03  0.70631677013E+03  0.17422841663E+03 0.  0.
        -24    2    3    3    0    0  0.49805551772E+02 -0.35451545825E+02  0.60179034247E+03  0.61026191828E+03  0.80812050663E+02 0.  0.
          6    2    1    2  501    0 -0.30699229129E+02 -0.10668951145E+02 -0.11079489683E+03  0.20655485778E+03  0.17126917680E+03 0.  0.
         24    2    5    5    0    0 -0.27340708886E+02  0.16665936899E+02 -0.14374368073E+03  0.16335545821E+03  0.70692942821E+02 0.  0.
          5    1    5    5  501    0 -0.33585202428E+01 -0.27334888044E+02  0.32948783899E+02  0.43199399568E+02  0.47000000000E+01 0. -1.
        -11    1    6    6    0    0 -0.50995335325E+02  0.15966487304E+02 -0.90672706737E+02  0.10524729302E+03  0.00000000000E+00 0.  1.
         12    1    6    6    0    0  0.23654626439E+02  0.69944959418E+00 -0.53070973988E+02  0.58108165190E+02  0.00000000000E+00 0. -1.
         -5    1    3    3    0  503 -0.19106322643E+02  0.46120496970E+02  0.81928583281E+02  0.96054851852E+02  0.47000000000E+01 0.  1.
         13    1    4    4    0    0  0.99633502518E-01  0.19917261970E+02  0.24428221677E+03  0.24509285726E+03  0.00000000000E+00 0. -1.
        -14    1    4    4    0    0  0.49705918270E+02 -0.55368807794E+02  0.35750812569E+03  0.36516906102E+03  0.00000000000E+00 0.  1.
</event>
<event>
12    1  0.1039610E+000  0.1854264E+03  0.7818608E-02  0.1162858E+00
         21   -1    0    0  501  502  0.00000000000E+00  0.00000000000E+00  0.14704259623E+03  0.14704259623E+03  0.00000000000E+00 0.  1.
         21   -1    0    0  502  503 -0.00000000000E+00 -0.00000000000E+00 -0.23436851863E+03  0.23436851863E+03  0.00000000000E+00 0.  1.
         -6    2    1    2    0  503  0.60434115364E+02  0.30771336588E+02 -0.27562251343E+02  0.18659157857E+03  0.17163211249E+03 0.  0.
        -24    2    3    3    0    0  0.18883132525E+02 -0.46960422595E+02 -0.26493305008E+02  0.98319594302E+02  0.80018706746E+02 0.  0.
          6    2    1    2  501    0 -0.60434115364E+02 -0.30771336588E+02 -0.59763671056E+02  0.19481953630E+03  0.17257983048E+03 0.  0.
         24    2    5    5    0    0  0.25935326495E+02 -0.45068882559E+02 -0.55633097242E+02  0.10705136469E+03  0.75240333843E+02 0.  0.
          5    1    5    5  501    0 -0.86369441858E+02  0.14297545971E+02 -0.41305738139E+01  0.87768171610E+02  0.47000000000E+01 0. -1.
        -13    1    6    6    0    0  0.76550600042E+01  0.16424244748E+02 -0.35426003933E+02  0.39791425130E+02  0.00000000000E+00 0.  1.
         14    1    6    6    0    0  0.18280266490E+02 -0.61493127308E+02 -0.20207093309E+02  0.67259939555E+02  0.00000000000E+00 0. -1.
         -5    1    3    3    0  503  0.41550982839E+02  0.77731759183E+02 -0.10689463352E+01  0.88271984269E+02  0.47000000000E+01 0.  1.
         13    1    4    4    0    0 -0.20086780876E+02 -0.26763619375E+02 -0.40229612533E+02  0.52327734640E+02  0.00000000000E+00 0. -1.
        -14    1    4    4    0    0  0.38969913401E+02 -0.20196803220E+02  0.13736307525E+02  0.45991859662E+02  0.00000000000E+00 0.  1.
</event>
<event>
12    1  0.1039610E+000  0.2213060E+03  0.7818608E-02  0.1134734E+00
         21   -1    0    0  501  502  0.00000000000E+00  0.00000000000E+00  0.18307422013E+04  0.18307422013E+04  0.00000000000E+00 0. -1.
         21   -1    0    0  502  503 -0.00000000000E+00 -0.00000000000E+00 -0.28176088597E+02  0.28176088597E+02  0.00000000000E+00 0. -1.
         -6    2    1    2    0  503  0.10205505853E+03  0.67103435039E+02  0.63862342570E+03  0.67588182104E+03  0.18454877457E+03 0.  0.
        -24    2    3    3    0    0  0.48389688903E+02  0.79074714245E+02  0.20426269161E+03  0.23802953917E+03  0.79626891860E+02 0.  0.
          6    2    1    2  501    0 -0.10205505853E+03 -0.67103435039E+02  0.11639426870E+04  0.11830364689E+04  0.17290055538E+03 0.  0.
         24    2    5    5    0    0 -0.12991584592E+03 -0.18444555870E+02  0.92269473920E+03  0.93531369575E+03  0.78916405462E+02 0.  0.
          5    1    5    5  501    0  0.27860787388E+02 -0.48658879169E+02  0.24124794781E+03  0.24772277312E+03  0.47000000000E+01 0. -1.
        -13    1    6    6    0    0 -0.13908168529E+03 -0.20353383079E+02  0.79939484437E+03  0.81165885234E+03  0.00000000000E+00 0.  1.
         14    1    6    6    0    0  0.91658393701E+01  0.19088272096E+01  0.12329989483E+03  0.12365484341E+03  0.00000000000E+00 0. -1.
         -5    1    3    3    0  503  0.53665369627E+02 -0.11971279206E+02  0.43436073408E+03  0.43785228187E+03  0.47000000000E+01 0.  1.
         11    1    4    4    0    0 -0.12017636897E+02 -0.50918629704E+01  0.60732531020E+01  0.14395661441E+02  0.00000000000E+00 0. -1.
        -12    1    4    4    0    0  0.60407325800E+02  0.84166577215E+02  0.19818943851E+03  0.22363387773E+03  0.00000000000E+00 0.  1.
</event>
<event>
12    1  0.1039610E+000  0.2857652E+03  0.7818608E-02  0.1092694E+00
         21   -1    0    0  503  502  0.00000000000E+00  0.00000000000E+00  0.95488601697E+02  0.95488601697E+02  0.00000000000E+00 0.  1.
         21   -1    0    0  501  503 -0.00000000000E+00 -0.00000000000E+00 -0.10083259644E+04  0.10083259644E+04  0.00000000000E+00 0.  1.
          6    2    1    2  501    0  0.95722333246E+02 -0.20631072184E+03 -0.67268851355E+03  0.73054091825E+03  0.17161968985E+03 0.  0.
         24    2    3    3    0    0 -0.92111191684E+01 -0.86265964001E+02 -0.36852853291E+03  0.38709200335E+03  0.80624302963E+02 0.  0.
         -6    2    1    2    0  502 -0.95722333246E+02  0.20631072184E+03 -0.24014884913E+03  0.37327364782E+03  0.17301695695E+03 0.  0.
        -24    2    5    5    0    0 -0.10632681832E+03  0.21474201422E+03 -0.25054408230E+03  0.35556227669E+03  0.78947263820E+02 0.  0.
          5    1    3    3  501    0  0.10493345241E+03 -0.12004475784E+03 -0.30415998064E+03  0.34344891490E+03  0.47000000000E+01 0. -1.
        -11    1    4    4    0    0 -0.47349465033E+01 -0.57723679970E+02 -0.34501270135E+03  0.34984025932E+03  0.00000000000E+00 0.  1.
         12    1    4    4    0    0 -0.44761726651E+01 -0.28542284031E+02 -0.23515831559E+02  0.37251744031E+02  0.00000000000E+00 0. -1.
         -5    1    5    5    0  502  0.10604485073E+02 -0.84312923716E+01  0.10395233174E+02  0.17711371134E+02  0.47000000000E+01 0.  1.
         11    1    6    6    0    0 -0.57869533327E+02  0.16616007203E+03 -0.13741791650E+03  0.22325262865E+03  0.00000000000E+00 0. -1.
        -12    1    6    6    0    0 -0.48457284992E+02  0.48581942190E+02 -0.11312616580E+03  0.13230964804E+03  0.00000000000E+00 0.  1.
</event>
<event>
12    1  0.1039610E+000  0.1796289E+03  0.7818608E-02  0.1168273E+00
         21   -1    0    0  501  502  0.00000000000E+00  0.00000000000E+00  0.83727228702E+03  0.83727228702E+03  0.00000000000E+00 0. -1.
         21   -1    0    0  502  503 -0.00000000000E+00 -0.00000000000E+00 -0.38657371188E+02  0.38657371188E+02  0.00000000000E+00 0. -1.
         -6    2    1    2    0  503  0.44490246595E+02  0.28292882657E+02  0.36600456238E+03  0.40750863409E+03  0.17124274562E+03 0.  0.
        -24    2    3    3    0    0  0.47980729516E+02 -0.13703107904E+01  0.36567601483E+03  0.37727146392E+03  0.79440427446E+02 0.  0.
          6    2    1    2  501    0 -0.44490246595E+02 -0.28292882657E+02  0.43261035346E+03  0.46842102412E+03  0.17171682697E+03 0.  0.
         24    2    5    5    0    0 -0.48404235251E+02  0.45531937897E+02  0.25915491689E+03  0.27980951357E+03  0.81950994966E+02 0.  0.
          5    1    5    5  501    0  0.39139886557E+01 -0.73824820554E+02  0.17345543656E+03  0.18861151055E+03  0.47000000000E+01 0. -1.
        -13    1    6    6    0    0  0.15218599058E+02 -0.13636610490E+00  0.11276167886E+03  0.11378409630E+03  0.00000000000E+00 0.  1.
         14    1    6    6    0    0 -0.63622834309E+02  0.45668304001E+02  0.14639323803E+03  0.16602541726E+03  0.00000000000E+00 0. -1.
         -5    1    3    3    0  503 -0.34904829203E+01  0.29663193448E+02  0.32854755098E+00  0.30237170172E+02  0.47000000000E+01 0.  1.
         13    1    4    4    0    0 -0.48861508520E+01  0.27605323634E+02  0.68003619171E+02  0.73555561200E+02  0.00000000000E+00 0. -1.
        -14    1    4    4    0    0  0.52866880368E+02 -0.28975634424E+02  0.29767239565E+03  0.30371590272E+03  0.00000000000E+00 0.  1.
</event>
<event>
12    1  0.1039610E+000  0.2149956E+03  0.7818608E-02  0.1137969E+00
         21   -1    0    0  501  502  0.00000000000E+00  0.00000000000E+00  0.23324819448E+03  0.23324819448E+03  0.00000000000E+00 0.  1.
         21   -1    0    0  502  503 -0.00000000000E+00 -0.00000000000E+00 -0.21681787800E+03  0.21681787800E+03  0.00000000000E+00 0.  1.
         -6    2    1    2    0  503 -0.12115494648E+03  0.35498043423E+02 -0.60280687836E+02  0.22179496741E+03  0.17210640342E+03 0.  0.
        -24    2    3    3    0    0 -0.13077857615E+03  0.30874101921E+02  0.56237820057E+01  0.15486601830E+03  0.76782879293E+02 0.  0.
          6    2    1    2  501    0  0.12115494648E+03 -0.35498043423E+02  0.76711004322E+02  0.22827110508E+03  0.17402438647E+03 0.  0.
         24    2    5    5    0    0  0.10932604036E+03  0.17621610795E+02  0.35424983243E+01  0.13696206415E+03  0.80519273805E+02 0.  0.
          5    1    5    5  501    0  0.11828906115E+02 -0.53119654217E+02  0.73168505998E+02  0.91309040922E+02  0.47000000000E+01 0. -1.
        -11    1    6    6    0    0  0.13475914002E+02  0.36664509241E+02  0.37106035253E+01  0.39238438738E+02  0.00000000000E+00 0.  1.
         12    1    6    6    0    0  0.95850126363E+02 -0.19042898447E+02 -0.16810520098E+00  0.97723625416E+02  0.00000000000E+00 0. -1.
         -5    1    3    3    0  503  0.96236296658E+01  0.46239415015E+01 -0.65904469842E+02  0.66928949104E+02  0.47000000000E+01 0.  1.
         11    1    4    4    0    0 -0.82263991516E+02  0.34497008448E+02  0.37433105006E+02  0.96740091185E+02  0.00000000000E+00 0. -1.
        -12    1    4    4    0    0 -0.48514584629E+02 -0.36229065273E+01 -0.31809323001E+02  0.58125927117E+02  0.00000000000E+00 0.  1.
</event>
<event>
12    1  0.1039610E+000  0.3540083E+03  0.7818608E-02  0.1061088E+00
         21   -1    0    0  501  502  0.00000000000E+00  0.00000000000E+00  0.17345406416E+03  0.17345406416E+03  0.00000000000E+00 0. -1.
         21   -1    0    0  502  503 -0.00000000000E+00 -0.00000000000E+00 -0.74812249722E+03  0.74812249722E+03  0.00000000000E+00 0. -1.
         -6    2    1    2    0  503  0.29926628962E+03 -0.77301406817E+02 -0.19816997754E+03  0.40478553038E+03  0.17042349020E+03 0.  0.
        -24    2    3    3    0    0  0.10513480978E+03  0.68813032057E+01 -0.30501221633E+02  0.13476949042E+03  0.78305877589E+02 0.  0.
          6    2    1    2  501    0 -0.29926628962E+03  0.77301406817E+02 -0.37649845553E+03  0.51679103099E+03  0.17258639315E+03 0.  0.
         24    2    5    5    0    0 -0.16793249461E+03 -0.61255992674E+01 -0.13786014476E+03  0.23187180661E+03  0.80748185591E+02 0.  0.
          5    1    5    5  501    0 -0.13133379501E+03  0.83427006084E+02 -0.23863831077E+03  0.28491922439E+03  0.47000000000E+01 0. -1.
        -11    1    6    6    0    0 -0.13561433896E+03  0.28735189676E+01 -0.14393376816E+03  0.19777875432E+03  0.00000000000E+00 0.  1.
         12    1    6    6    0    0 -0.32318155645E+02 -0.89991182350E+01  0.60736234005E+01  0.34093052291E+02  0.00000000000E+00 0. -1.
         -5    1    3    3    0  503  0.19413147984E+03 -0.84182710023E+02 -0.16766875590E+03  0.27001603996E+03  0.47000000000E+01 0.  1.
         11    1    4    4    0    0  0.11697475538E+03  0.10132874661E+02 -0.33562003375E+02  0.12211542334E+03  0.00000000000E+00 0. -1.
        -12    1    4    4    0    0 -0.11839945604E+02 -0.32515714557E+01  0.30607817419E+01  0.12654067081E+02  0.00000000000E+00 0.  1.
</event>
<event>
12    1  0.1039610E+000  0.1839124E+03  0.7818608E-02  0.1164554E+00
         21   -1    0    0  501  502  0.00000000000E+00  0.00000000000E+00  0.66502983491E+02  0.66502983491E+02  0.00000000000E+00 0.  1.
         21   -1    0    0  502  503 -0.00000000000E+00 -0.00000000000E+00 -0.63001305829E+03  0.63001305829E+03  0.00000000000E+00 0.  1.
         -6    2    1    2    0  503 -0.37138878659E+02 -0.46707489779E+02 -0.43940142633E+03  0.47633746339E+03  0.17396229380E+03 0.  0.
        -24    2    3    3    0    0 -0.76856263878E+02 -0.67829564976E+02 -0.24825707677E+03  0.27991479383E+03  0.78822461631E+02 0.  0.
          6    2    1    2  501    0  0.37138878659E+02  0.46707489779E+02 -0.12410864847E+03  0.22017857839E+03  0.17179861421E+03 0.  0.
         24    2    5    5    0    0 -0.43562571069E+02  0.45292708483E+01 -0.54980860247E+02  0.10575625869E+03  0.79014425049E+02 0.  0.
          5    1    5    5  501    0  0.80701449728E+02  0.42178218931E+02 -0.69127788223E+02  0.11442231970E+03  0.47000000000E+01 0. -1.
        -13    1    6    6    0    0 -0.55014571235E+02  0.19033179707E+02 -0.12657342202E+02  0.59574099150E+02  0.00000000000E+00 0.  1.
         14    1    6    6    0    0  0.11452000166E+02 -0.14503908859E+02 -0.42323518045E+02  0.46182159539E+02  0.00000000000E+00 0. -1.
         -5    1    3    3    0  503  0.39717385219E+02  0.21122075197E+02 -0.19114434956E+03  0.19642266956E+03  0.47000000000E+01 0.  1.
         13    1    4    4    0    0 -0.87376583509E+01 -0.90884717063E+01  0.30707250585E+01  0.12975991053E+02  0.00000000000E+00 0. -1.
        -14    1    4    4    0    0 -0.68118605527E+02 -0.58741093270E+02 -0.25132780183E+03  0.26693880278E+03  0.00000000000E+00 0.  1.
</event>
<event>
12    1  0.1039610E+000  0.2556705E+03  0.7818608E-02  0.1109866E+00
         21   -1    0    0  503  502  0.00000000000E+00  0.00000000000E+00  0.28703053765E+03  0.28703053765E+03  0.00000000000E+00 0. -1.
         21   -1    0    0  501  503 -0.00000000000E+00 -0.00000000000E+00 -0.23354737855E+03  0.23354737855E+03  0.00000000000E+00 0. -1.
          6    2    1    2  501    0 -0.18764195360E+03 -0.21219958351E+02 -0.16215933170E+02  0.25557725292E+03  0.17145549376E+03 0.  0.
         24    2    3    3    0    0 -0.73714681599E+02  0.47315286045E+02  0.13399824171E+02  0.11928460414E+03  0.79854060136E+02 0.  0.
         -6    2    1    2    0  502  0.18764195360E+03  0.21219958351E+02  0.69699092268E+02  0.26500066328E+03  0.17235892404E+03 0.  0.
        -24    2    5    5    0    0  0.95163730462E+02 -0.47365690151E+01  0.97674188082E+02  0.16484748534E+03  0.92497976860E+02 0.  0.
          5    1    3    3  501    0 -0.11392727200E+03 -0.68535244395E+02 -0.29615757341E+02  0.13629264878E+03  0.47000000000E+01 0. -1.
        -11    1    4    4    0    0 -0.90310129540E+02  0.32576166236E+02  0.14329764238E+02  0.97069399129E+02  0.00000000000E+00 0.  1.
         12    1    4    4    0    0  0.16595447941E+02  0.14739119809E+02 -0.92994006698E+00  0.22215205010E+02  0.00000000000E+00 0. -1.
         -5    1    5    5    0  502  0.92478223133E+02  0.25956527366E+02 -0.27975095814E+02  0.10015317795E+03  0.47000000000E+01 0.  1.
         13    1    6    6    0    0  0.94383214084E+02  0.28699905825E+02  0.80047872419E+02  0.12704147974E+03  0.00000000000E+00 0. -1.
        -14    1    6    6    0    0  0.78051637762E+00 -0.33436474840E+02  0.17626315663E+02  0.37806005600E+02  0.00000000000E+00 0.  1.
</event>
<event>
12    1  0.1039610E+000  0.3603942E+03  0.7818608E-02  0.1058468E+00
         21   -1    0    0  501  502  0.00000000000E+00  0.00000000000E+00  0.31568613046E+03  0.31568613046E+03  0.00000000000E+00 0.  1.
         21   -1    0    0  502  503 -0.00000000000E+00 -0.00000000000E+00 -0.41238107358E+03  0.41238107358E+03  0.00000000000E+00 0.  1.
         -6    2    1    2    0  503 -0.31610453127E+03 -0.15546266948E+02 -0.69670199734E+02  0.36706664665E+03  0.17239554880E+03 0.  0.
        -24    2    3    3    0    0 -0.27617026762E+03  0.40338708352E+02 -0.67418342521E+02  0.29818241958E+03  0.80438139795E+02 0.  0.
          6    2    1    2  501    0  0.31610453127E+03  0.15546266948E+02 -0.27024743383E+02  0.36100055739E+03  0.17154388527E+03 0.  0.
         24    2    5    5    0    0  0.11142207357E+03 -0.13255380850E+02  0.45811389048E+02  0.14179372448E+03  0.73594791493E+02 0.  0.
          5    1    5    5  501    0  0.20468245770E+03  0.28801647797E+02 -0.72836132431E+02  0.21920683291E+03  0.47000000000E+01 0. -1.
        -11    1    6    6    0    0  0.10171583878E+03 -0.28598231452E+02  0.57410528722E+02  0.12024948860E+03  0.00000000000E+00 0.  1.
         12    1    6    6    0    0  0.97062347956E+01  0.15342850603E+02 -0.11599139674E+02  0.21544235881E+02  0.00000000000E+00 0. -1.
         -5    1    3    3    0  503 -0.39934263656E+02 -0.55884975299E+02 -0.22518572127E+01  0.68884227069E+02  0.47000000000E+01 0.  1.
         13    1    4    4    0    0 -0.17005965533E+03 -0.97541918211E+01 -0.60038484204E+02  0.18061021626E+03  0.00000000000E+00 0. -1.
        -14    1    4    4    0    0 -0.10611061228E+03  0.50092900173E+02 -0.73798583178E+01  0.11757220333E+03  0.00000000000E+00 0.  1.
</event>
<event>
12    1  0.1039610E+000  0.2064330E+03  0.7818608E-02  0.1144767E+00
         21   -1    0    0  501  502  0.00000000000E+00  0.00000000000E+00  0.14759178846E+03  0.14759178846E+03  0.00000000000E+00 0.  1.
         21   -1    0    0  502  503 -0.00000000000E+00 -0.00000000000E+00 -0.39067881024E+03  0.39067881024E+03  0.00000000000E+00 0.  1.
         -6    2    1    2    0  503  0.97856823589E+02 -0.55316872968E+02 -0.26097905796E+03  0.33275311808E+03  0.17314345077E+03 0.  0.
        -24    2    3    3    0    0  0.12875876390E+02 -0.33689766319E+02 -0.21869042961E+03  0.23528563008E+03  0.78949573619E+02 0.  0.
          6    2    1    2  501    0 -0.97856823589E+02  0.55316872968E+02  0.17892036171E+02  0.20551748062E+03  0.17111807480E+03 0.  0.
         24    2    5    5    0    0 -0.37782180119E+02  0.72238061307E+02 -0.39185956682E+02  0.12081047576E+03  0.80086211157E+02 0.  0.
          5    1    5    5  501    0 -0.60074643471E+02 -0.16921188339E+02  0.57077992853E+02  0.84707004853E+02  0.47000000000E+01 0. -1.
        -11    1    6    6    0    0 -0.10840041288E+02  0.15972166099E+01 -0.43718289810E+02  0.45070461057E+02  0.00000000000E+00 0.  1.
         12    1    6    6    0    0 -0.26942138831E+02  0.70640844697E+02  0.45323331275E+01  0.75740014708E+02  0.00000000000E+00 0. -1.
         -5    1    3    3    0  503  0.84980947199E+02 -0.21627106649E+02 -0.42288628349E+02  0.97467487997E+02  0.47000000000E+01 0.  1.
         11    1    4    4    0    0  0.23342924545E+01 -0.59140242718E+02 -0.15338136489E+03  0.16440456297E+03  0.00000000000E+00 0. -1.
        -12    1    4    4    0    0  0.10541583936E+02  0.25450476400E+02 -0.65309064715E+02  0.70881067111E+02  0.00000000000E+00 0.  1.
</event>
<event>
12    1  0.1039610E+000  0.1933542E+03  0.7818608E-02  0.1157405E+00
         21   -1    0    0  501  502  0.00000000000E+00  0.00000000000E+00  0.68750944521E+02  0.68750944521E+02  0.00000000000E+00 0. -1.
         21   -1    0    0  502  503 -0.00000000000E+00 -0.00000000000E+00 -0.63519892602E+03  0.63519892602E+03  0.00000000000E+00 0. -1.
         -6    2    1    2    0  503  0.54811929543E+01  0.67481023590E+02 -0.13859119506E+03  0.23789359016E+03  0.18111352481E+03 0.  0.
        -24    2    3    3    0    0 -0.89638316801E+01  0.68786035632E+02 -0.17215552083E+03  0.20102875925E+03  0.77221562515E+02 0.  0.
          6    2    1    2  501    0 -0.54811929543E+01 -0.67481023590E+02 -0.42785678643E+03  0.46605628038E+03  0.17193979981E+03 0.  0.
         24    2    5    5    0    0 -0.69765336598E+02 -0.50490465551E+02 -0.30234498218E+03  0.32394212488E+03  0.78163435940E+02 0.  0.
          5    1    5    5  501    0  0.64284143643E+02 -0.16990558039E+02 -0.12551180426E+03  0.14211415550E+03  0.47000000000E+01 0. -1.
        -13    1    6    6    0    0 -0.78978497131E+02 -0.21877621511E+02 -0.17713419903E+03  0.19517366061E+03  0.00000000000E+00 0.  1.
         14    1    6    6    0    0  0.92131605335E+01 -0.28612844040E+02 -0.12521078315E+03  0.12876846426E+03  0.00000000000E+00 0. -1.
         -5    1    3    3    0  503  0.14445024634E+02 -0.13050120422E+01  0.33564325773E+02  0.36864830906E+02  0.47000000000E+01 0.  1.
         13    1    4    4    0    0 -0.15015853847E+02  0.15374353097E+02 -0.87164680565E+00  0.21508286033E+02  0.00000000000E+00 0. -1.
        -14    1    4    4    0    0  0.60520221670E+01  0.53411682535E+02 -0.17128387403E+03  0.17952047322E+03  0.00000000000E+00 0.  1.
</event>
<event>
12    1  0.1039610E+000  0.1781886E+03  0.7818608E-02  0.1170753E+00
         21   -1    0    0  503  502  0.00000000000E+00  0.00000000000E+00  0.20801239710E+02  0.20801239710E+02  0.00000000000E+00 0.  1.
         21   -1    0    0  501  503 -0.00000000000E+00 -0.00000000000E+00 -0.14868937843E+04  0.14868937843E+04  0.00000000000E+00 0.  1.
          6    2    1    2  501    0  0.12600911830E+02 -0.20739665202E+02 -0.74285607680E+03  0.76283116355E+03  0.17171871345E+03 0.  0.
         24    2    3    3    0    0  0.18099678334E+02  0.52935503729E+02 -0.34763466043E+03  0.36073624327E+03  0.78428401557E+02 0.  0.
         -6    2    1    2    0  502 -0.12600911830E+02  0.20739665202E+02 -0.72323646777E+03  0.74486386044E+03  0.17652837049E+03 0.  0.
        -24    2    5    5    0    0 -0.22949652117E+02 -0.38170449620E+02 -0.61045169844E+03  0.61711413540E+03  0.78707752058E+02 0.  0.
          5    1    3    3  501    0 -0.54987665037E+01 -0.73675168930E+02 -0.39522141638E+03  0.40209492028E+03  0.47000000000E+01 0. -1.
        -11    1    4    4    0    0 -0.23438919379E+02  0.10347363874E+02 -0.40727413858E+02  0.48116245909E+02  0.00000000000E+00 0.  1.
         12    1    4    4    0    0  0.41538597713E+02  0.42588139854E+02 -0.30690724657E+03  0.31261999737E+03  0.00000000000E+00 0. -1.
         -5    1    5    5    0  502  0.10348740287E+02  0.58910114821E+02 -0.11278476933E+03  0.12774972504E+03  0.47000000000E+01 0.  1.
         11    1    6    6    0    0 -0.27854404191E+02 -0.43063981112E+02 -0.19583113678E+03  0.20243568963E+03  0.00000000000E+00 0. -1.
        -12    1    6    6    0    0  0.49047520738E+01  0.48935314925E+01 -0.41462056166E+03  0.41467844578E+03  0.00000000000E+00 0.  1.
</event>
<event>
12    1  0.1039610E+000  0.2003443E+03  0.7818608E-02  0.1149722E+00
         21   -1    0    0  501  502  0.00000000000E+00  0.00000000000E+00  0.92222568417E+02  0.92222568417E+02  0.00000000000E+00 0. -1.
         21   -1    0    0  502  503 -0.00000000000E+00 -0.00000000000E+00 -0.43654233097E+03  0.43654233097E+03  0.00000000000E+00 0. -1.
         -6    2    1    2    0  503 -0.74254212952E+02  0.73861839863E+02 -0.19837959560E+03  0.28194378374E+03  0.17078809593E+03 0.  0.
        -24    2    3    3    0    0  0.28772798418E+02  0.35015115758E+02 -0.92756640804E+02  0.12929408140E+03  0.77841074062E+02 0.  0.
          6    2    1    2  501    0  0.74254212952E+02 -0.73861839863E+02 -0.14594016695E+03  0.24682111564E+03  0.16927159026E+03 0.  0.
         24    2    5    5    0    0  0.74425624827E+02  0.23464318577E+01 -0.44085632194E+02  0.11952552927E+03  0.82450772023E+02 0.  0.
          5    1    5    5  501    0 -0.17141187439E+00 -0.76208271720E+02 -0.10185453476E+03  0.12729558638E+03  0.47000000000E+01 0. -1.
        -13    1    6    6    0    0  0.49423993119E+01 -0.18448852909E+02 -0.42931145391E+02  0.46987984945E+02  0.00000000000E+00 0.  1.
         14    1    6    6    0    0  0.69483225515E+02  0.20795284767E+02 -0.11544868033E+01  0.72537544322E+02  0.00000000000E+00 0. -1.
         -5    1    3    3    0  503 -0.10302701137E+03  0.38846724105E+02 -0.10562295480E+03  0.15264970234E+03  0.47000000000E+01 0.  1.
         13    1    4    4    0    0 -0.25963789014E+01  0.20166811886E+02 -0.92374730013E+02  0.94586110133E+02  0.00000000000E+00 0. -1.
        -14    1    4    4    0    0  0.31369177319E+02  0.14848303872E+02 -0.38191079107E+00  0.34707971266E+02  0.00000000000E+00 0.  1.
</event>
<event>
12    1  0.1039610E+000  0.1930188E+03  0.7818608E-02  0.1155866E+00
         21   -1    0    0  503  502  0.00000000000E+00  0.00000000000E+00  0.15525288153E+02  0.15525288153E+02  0.00000000000E+00 0. -1.
         21   -1    0    0  501  503 -0.00000000000E+00 -0.00000000000E+00 -0.26380649235E+04  0.26380649235E+04  0.00000000000E+00 0. -1.
          6    2    1    2  501    0  0.61567468829E+02 -0.60310622326E+02 -0.90643067311E+03  0.92666049802E+03  0.17220682055E+03 0.  0.
         24    2    3    3    0    0 -0.28439361269E+02 -0.51656425987E+02 -0.40094072170E+03  0.41312539157E+03  0.80261717054E+02 0.  0.
         -6    2    1    2    0  502 -0.61567468829E+02  0.60310622326E+02 -0.17161089623E+04  0.17269297137E+04  0.17270883357E+03 0.  0.
        -24    2    5    5    0    0 -0.40514830176E+01  0.34562800995E+02 -0.41472872685E+03  0.42401619158E+03  0.81109876793E+02 0.  0.
          5    1    3    3  501    0  0.90006830098E+02 -0.86541963396E+01 -0.50548995141E+03  0.51353510645E+03  0.47000000000E+01 0. -1.
        -13    1    4    4    0    0 -0.40763282102E+02 -0.38988727548E+02 -0.38565610484E+03  0.38975940943E+03  0.00000000000E+00 0.  1.
         14    1    4    4    0    0  0.12323920833E+02 -0.12667698439E+02 -0.15284616864E+02  0.23365982134E+02  0.00000000000E+00 0. -1.
         -5    1    5    5    0  502 -0.57515985812E+02  0.25747821331E+02 -0.13013802354E+04  0.13029135221E+04  0.47000000000E+01 0.  1.
         13    1    6    6    0    0 -0.34680849329E+02 -0.62834904918E+01 -0.12733542963E+03  0.13212325761E+03  0.00000000000E+00 0. -1.
        -14    1    6    6    0    0  0.30629366311E+02  0.40846291487E+02 -0.28739329722E+03  0.29189293396E+03  0.00000000000E+00 0.  1.
</event>
<event>
12    1  0.1039610E+000  0.3364492E+03  0.7818608E-02  0.1068358E+00
         21   -1    0    0  503  502  0.00000000000E+00  0.00000000000E+00  0.99576547158E+03  0.99576547158E+03  0.00000000000E+00 0. -1.
         21   -1    0    0  501  503 -0.00000000000E+00 -0.00000000000E+00 -0.19528003645E+03  0.19528003645E+03  0.00000000000E+00 0. -1.
          6    2    1    2  501    0 -0.24498072713E+03 -0.15345684671E+03  0.15116774802E+02  0.33678862031E+03  0.17214382772E+03 0.  0.
         24    2    3    3    0    0 -0.11553644595E+03 -0.42373150282E+02  0.69010230038E+02  0.15784168946E+03  0.70763216961E+02 0.  0.
         -6    2    1    2    0  502  0.24498072713E+03  0.15345684671E+03  0.78536866032E+03  0.85425688772E+03  0.17142443564E+03 0.  0.
        -24    2    5    5    0    0  0.12190614434E+03  0.46070366684E+02  0.52438241521E+03  0.54633624996E+03  0.80763815695E+02 0.  0.
          5    1    3    3  501    0 -0.12944428118E+03 -0.11108369643E+03 -0.53893455236E+02  0.17894693085E+03  0.47000000000E+01 0. -1.
        -13    1    4    4    0    0 -0.51526373831E+02  0.17334318920E+02  0.24254769673E+02  0.59529317688E+02  0.00000000000E+00 0.  1.
         14    1    4    4    0    0 -0.64010072121E+02 -0.59707469202E+02  0.44755460366E+02  0.98312371775E+02  0.00000000000E+00 0. -1.
         -5    1    5    5    0  502  0.12307458279E+03  0.10738648002E+03  0.26098624511E+03  0.30792063776E+03  0.47000000000E+01 0.  1.
         11    1    6    6    0    0  0.76396795538E+01 -0.52857500805E+01  0.24891894536E+01  0.96176879620E+01  0.00000000000E+00 0. -1.
        -12    1    6    6    0    0  0.11426646479E+03  0.51356116764E+02  0.52189322576E+03  0.53671856200E+03  0.00000000000E+00 0.  1.
</event>
<event>
12    1  0.1039610E+000  0.1755776E+03  0.7818608E-02  0.1172443E+00
         21   -1    0    0  501  502  0.00000000000E+00  0.00000000000E+00  0.20138748736E+02  0.20138748736E+02  0.00000000000E+00 0. -1.
         21   -1    0    0  502  503 -0.00000000000E+00 -0.00000000000E+00 -0.15647102453E+04  0.15647102453E+04  0.00000000000E+00 0. -1.
         -6    2    1    2    0  503  0.31023316147E+02 -0.37607241813E+01 -0.90769771799E+03  0.92452293277E+03  0.17277417862E+03 0.  0.
        -24    2    3    3    0    0  0.39011989977E+02  0.55515213083E+02 -0.71632722651E+03  0.72396817553E+03  0.80008433836E+02 0.  0.
          6    2    1    2  501    0 -0.31023316147E+02  0.37607241813E+01 -0.63687377859E+03  0.66032606128E+03  0.17159751791E+03 0.  0.
         24    2    5    5    0    0 -0.69979915604E+02  0.45825579376E+02 -0.52093979233E+03  0.53090485802E+03  0.59029896789E+02 0.  0.
          5    1    5    5  501    0  0.38956599457E+02 -0.42064855195E+02 -0.11593398626E+03  0.12942120326E+03  0.47000000000E+01 0. -1.
        -11    1    6    6    0    0 -0.37893130331E+02  0.42775911391E+02 -0.44138255795E+03  0.44506654601E+03  0.00000000000E+00 0.  1.
         12    1    6    6    0    0 -0.32086785272E+02  0.30496679858E+01 -0.79557234387E+02  0.85838312002E+02  0.00000000000E+00 0. -1.
         -5    1    3    3    0  503 -0.79886738300E+01 -0.59275937264E+02 -0.19137049147E+03  0.20055475725E+03  0.47000000000E+01 0.  1.
         13    1    4    4    0    0  0.65651021739E+01  0.11848626584E+00 -0.44871269399E+03  0.44876073397E+03  0.00000000000E+00 0. -1.
        -14    1    4    4    0    0  0.32446887803E+02  0.55396726817E+02 -0.26761453252E+03  0.27520744155E+03  0.00000000000E+00 0.  1.
</event>
<event>
12    1  0.1039610E+000  0.2131615E+03  0.7818608E-02  0.1139455E+00
         21   -1    0    0  503  502  0.00000000000E+00  0.00000000000E+00  0.98235188318E+02  0.98235188318E+02  0.00000000000E+00 0. -1.
         21   -1    0    0  501  503 -0.00000000000E+00 -0.00000000000E+00 -0.47971339042E+03  0.47971339042E+03  0.00000000000E+00 0. -1.
          6    2    1    2  501    0  0.68714002989E+02  0.10357141029E+03 -0.13072187551E+03  0.25005202290E+03  0.17317376876E+03 0.  0.
         24    2    3    3    0    0  0.61230026702E+02  0.42470818714E+02 -0.40935422464E+01  0.10917577587E+03  0.79685044627E+02 0.  0.
         -6    2    1    2    0  502 -0.68714002989E+02 -0.10357141029E+03 -0.25075632659E+03  0.32789655584E+03  0.17084719713E+03 0.  0.
        -24    2    5    5    0    0  0.26700604522E+02 -0.40649190127E+02 -0.89054506888E+02  0.12982403979E+03  0.80983314151E+02 0.  0.
          5    1    3    3  501    0  0.74839762864E+01  0.61100591574E+02 -0.12662833326E+03  0.14087624703E+03  0.47000000000E+01 0. -1.
        -13    1    4    4    0    0 -0.74648209622E+01  0.35023030151E+02 -0.15717903060E+02  0.39107399166E+02  0.00000000000E+00 0.  1.
         14    1    4    4    0    0  0.68694847665E+02  0.74477885635E+01  0.11624360813E+02  0.70068376708E+02  0.00000000000E+00 0. -1.
         -5    1    5    5    0  502 -0.95414607511E+02 -0.62922220161E+02 -0.16170181970E+03  0.19807251604E+03  0.47000000000E+01 0.  1.
         13    1    6    6    0    0 -0.80020111766E+01  0.20695954937E+02 -0.11372589833E+02  0.24933722809E+02  0.00000000000E+00 0. -1.
        -14    1    6    6    0    0  0.34702615699E+02 -0.61345145064E+02 -0.77681917055E+02  0.10489031698E+03  0.00000000000E+00 0.  1.
</event>
<event>
12    1  0.1039610E+000  0.1797152E+03  0.7818608E-02  0.1168410E+00
         21   -1    0    0  503  502  0.00000000000E+00  0.00000000000E+00  0.86528337277E+03  0.86528337277E+03  0.00000000000E+00 0.  1.
         21   -1    0    0  501  503 -0.00000000000E+00 -0.00000000000E+00 -0.37404235308E+02  0.37404235308E+02  0.00000000000E+00 0.  1.
          6    2    1    2  501    0  0.10911901088E+00  0.48669441066E+02  0.45977355715E+03  0.49364893739E+03  0.17299948882E+03 0.  0.
         24    2    3    3    0    0 -0.66402496439E+02  0.21681958315E+02  0.22191136987E+03  0.24514817410E+03  0.77288888856E+02 0.  0.
         -6    2    1    2    0  502 -0.10911901088E+00 -0.48669441066E+02  0.36810558032E+03  0.40903867069E+03  0.17158726486E+03 0.  0.
        -24    2    5    5    0    0  0.52991811203E+02  0.73580811330E+01  0.24755995413E+03  0.26581810644E+03  0.80691148261E+02 0.  0.
          5    1    3    3  501    0  0.66511615450E+02  0.26987482752E+02  0.23786218728E+03  0.24850076328E+03  0.47000000000E+01 0. -1.
        -13    1    4    4    0    0 -0.21622765538E+02 -0.49085521224E+01  0.17060987222E+03  0.17204466389E+03  0.00000000000E+00 0.  1.
         14    1    4    4    0    0 -0.44779730901E+02  0.26590510437E+02  0.51301497643E+02  0.73103510212E+02  0.00000000000E+00 0. -1.
         -5    1    5    5    0  502 -0.53100930214E+02 -0.56027522199E+02  0.12054562618E+03  0.14322056426E+03  0.47000000000E+01 0.  1.
         11    1    6    6    0    0 -0.12328531905E+02 -0.21850045517E+02  0.71480536969E+02  0.75755424581E+02  0.00000000000E+00 0. -1.
        -12    1    6    6    0    0  0.65320343108E+02  0.29208126650E+02  0.17607941716E+03  0.19006268186E+03  0.00000000000E+00 0.  1.
</event>
<event>
12    1  0.1039610E+000  0.2401960E+03  0.7818608E-02  0.1119894E+00
         21   -1    0    0  501  502  0.00000000000E+00  0.00000000000E+00  0.14009451169E+04  0.14009451169E+04  0.00000000000E+00 0. -1.
         21   -1    0    0  502  503 -0.00000000000E+00 -0.00000000000E+00 -0.40975941716E+02  0.40975941716E+02  0.00000000000E+00 0. -1.
         -6    2    1    2    0  503 -0.74821459082E+02 -0.14815826300E+03  0.65813176517E+03  0.70011929757E+03  0.17169883189E+03 0.  0.
        -24    2    3    3    0    0 -0.47610353200E+02 -0.83370301567E+02  0.19799922021E+03  0.23462818792E+03  0.81420774064E+02 0.  0.
          6    2    1    2  501    0  0.74821459082E+02  0.14815826300E+03  0.70183740999E+03  0.74180176102E+03  0.17362310031E+03 0.  0.
         24    2    5    5    0    0 -0.16234544718E+02  0.47124945116E+02  0.39857030762E+03  0.40939846301E+03  0.79148534437E+02 0.  0.
          5    1    5    5  501    0  0.91056003800E+02  0.10103331788E+03  0.30326710237E+03  0.33240329801E+03  0.47000000000E+01 0. -1.
        -13    1    6    6    0    0  0.54613167726E+01 -0.83608382383E+01  0.46810691053E+01  0.11029143435E+02  0.00000000000E+00 0.  1.
         14    1    6    6    0    0 -0.21695861491E+02  0.55485783354E+02  0.39388923852E+03  0.39836931958E+03  0.00000000000E+00 0. -1.
         -5    1    3    3    0  503 -0.27211105881E+02 -0.64787961428E+02  0.46013254496E+03  0.46549110965E+03  0.47000000000E+01 0.  1.
         13    1    4    4    0    0  0.14178360501E+02 -0.55443686665E+02  0.10429121014E+03  0.11896085411E+03  0.00000000000E+00 0. -1.
        -14    1    4    4    0    0 -0.61788713702E+02 -0.27926614903E+02  0.93708010071E+02  0.11566733382E+03  0.00000000000E+00 0.  1.
</event>
<event>
12    1  0.1039610E+000  0.2610382E+03  0.7818608E-02  0.1106608E+00
         21   -1    0    0  503  502  0.00000000000E+00  0.00000000000E+00  0.10500881187E+04  0.10500881187E+04  0.00000000000E+00 0. -1.
         21   -1    0    0  501  503 -0.00000000000E+00 -0.00000000000E+00 -0.11277009123E+03  0.11277009123E+03  0.00000000000E+00 0. -1.
          6    2    1    2  501    0 -0.11460604893E+03 -0.15886623243E+03  0.89533773946E+02  0.27596601209E+03  0.17253381378E+03 0.  0.
         24    2    3    3    0    0 -0.18563439252E+02 -0.50147965483E+02 -0.15871175855E+02  0.96588929154E+02  0.78854976337E+02 0.  0.
         -6    2    1    2    0  502  0.11460604893E+03  0.15886623243E+03  0.84778425349E+03  0.88689219779E+03  0.17165839270E+03 0.  0.
        -24    2    5    5    0    0  0.11158260135E+03  0.15340852394E+03  0.52319055977E+03  0.56220452660E+03  0.79754095596E+02 0.  0.
          5    1    3    3  501    0 -0.96042609677E+02 -0.10871826694E+03  0.10540494980E+03  0.17937708294E+03  0.47000000000E+01 0. -1.
        -13    1    4    4    0    0 -0.46807418495E+02 -0.47706780409E+02 -0.91956807182E+01  0.67464300686E+02  0.00000000000E+00 0.  1.
         14    1    4    4    0    0  0.28243979243E+02 -0.24411850737E+01 -0.66754951365E+01  0.29124628468E+02  0.00000000000E+00 0. -1.
         -5    1    5    5    0  502  0.30234475768E+01  0.54577084866E+01  0.32459369372E+03  0.32468767118E+03  0.47000000000E+01 0.  1.
         13    1    6    6    0    0  0.27561892277E+02  0.72656934659E+02  0.30613907317E+03  0.31584778008E+03  0.00000000000E+00 0. -1.
        -14    1    6    6    0    0  0.84020709075E+02  0.80751589281E+02  0.21705148660E+03  0.24635674653E+03  0.00000000000E+00 0.  1.
</event>
<event>
12    1  0.1039610E+000  0.2428384E+03  0.7818608E-02  0.1118091E+00
         21   -1    0    0  503  502  0.00000000000E+00  0.00000000000E+00  0.30837211641E+03  0.30837211641E+03  0.00000000000E+00 0.  1.
         21   -1    0    0  501  503 -0.00000000000E+00 -0.00000000000E+00 -0.22366984807E+03  0.22366984807E+03  0.00000000000E+00 0.  1.
          6    2    1    2  501    0  0.80270164387E+02 -0.14973569212E+03 -0.60328779951E+02  0.24919128387E+03  0.17202516525E+03 0.  0.
         24    2    3    3    0    0  0.35293197392E+02 -0.29008743461E+02  0.26685971532E+02  0.93654855119E+02  0.77278547032E+02 0.  0.
         -6    2    1    2    0  502 -0.80270164387E+02  0.14973569212E+03  0.14503104829E+03  0.28285068062E+03  0.17351203351E+03 0.  0.
        -24    2    5    5    0    0  0.22774049064E+02  0.74692061088E+02  0.84721762318E+02  0.14175157907E+03  0.82572222067E+02 0.  0.
          5    1    3    3  501    0  0.44976966995E+02 -0.12072694866E+03 -0.87014751483E+02  0.15553642875E+03  0.47000000000E+01 0. -1.
        -13    1    4    4    0    0 -0.87257970693E+01 -0.52842895765E+01 -0.21758830260E+02  0.24031436601E+02  0.00000000000E+00 0.  1.
         14    1    4    4    0    0  0.44018994461E+02 -0.23724453885E+02  0.48444801792E+02  0.69623418518E+02  0.00000000000E+00 0. -1.
         -5    1    5    5    0  502 -0.10304421345E+03  0.75043631030E+02  0.60309285970E+02  0.14109910155E+03  0.47000000000E+01 0.  1.
         13    1    6    6    0    0 -0.30465428483E+02  0.16735289428E+02  0.22235170126E+02  0.41262756033E+02  0.00000000000E+00 0. -1.
        -14    1    6    6    0    0  0.53239477548E+02  0.57956771660E+02  0.62486592191E+02  0.10048882303E+03  0.00000000000E+00 0.  1.
</event>
<event>
12    1  0.1039610E+000  0.2108346E+03  0.7818608E-02  0.1141261E+00
         21   -1    0    0  503  502  0.00000000000E+00  0.00000000000E+00  0.58032248127E+03  0.58032248127E+03  0.00000000000E+00 0. -1.
         21   -1    0    0  501  503 -0.00000000000E+00 -0.00000000000E+00 -0.75948310269E+02  0.75948310269E+02  0.00000000000E+00 0. -1.
          6    2    1    2  501    0  0.64656992305E+02 -0.10323359918E+03  0.25416093745E+03  0.33022569367E+03  0.17208580413E+03 0.  0.
         24    2    3    3    0    0 -0.30974722600E+01 -0.55718013877E+02  0.46517103872E+02  0.10664919684E+03  0.78077646154E+02 0.  0.
         -6    2    1    2    0  502 -0.64656992305E+02  0.10323359918E+03  0.25021323356E+03  0.32604509787E+03  0.16988537590E+03 0.  0.
        -24    2    5    5    0    0 -0.72423648091E+02  0.13672377018E+03  0.20739297842E+03  0.27093088241E+03  0.80331322730E+02 0.  0.
          5    1    3    3  501    0  0.67754464565E+02 -0.47515585301E+02  0.20764383357E+03  0.22357649683E+03  0.47000000000E+01 0. -1.
        -13    1    4    4    0    0 -0.37150331822E+02 -0.33962571805E+02  0.42796364456E+02  0.66069147480E+02  0.00000000000E+00 0.  1.
         14    1    4    4    0    0  0.34052859562E+02 -0.21755442072E+02  0.37207394155E+01  0.40580049358E+02  0.00000000000E+00 0. -1.
         -5    1    5    5    0  502  0.77666557858E+01 -0.33490170999E+02  0.42820255140E+02  0.55114215462E+02  0.47000000000E+01 0.  1.
         13    1    6    6    0    0  0.13312815256E+02  0.61763813467E+00  0.13061842771E+02  0.18660768030E+02  0.00000000000E+00 0. -1.
        -14    1    6    6    0    0 -0.85736463346E+02  0.13610613204E+03  0.19433113565E+03  0.25227011438E+03  0.00000000000E+00 0.  1.
</event>
<event>
12    1  0.1039610E+000  0.1939529E+03  0.7818608E-02  0.1155949E+00
         21   -1    0    0  503  502  0.00000000000E+00  0.00000000000E+00  0.10787965393E+04  0.10787965393E+04  0.00000000000E+00 0.  1.
         21   -1    0    0  501  503 -0.00000000000E+00 -0.00000000000E+00 -0.34162764207E+02  0.34162764207E+02  0.00000000000E+00 0.  1.
          6    2    1    2  501    0  0.70517108684E+02  0.34957221600E+02  0.49819394889E+03  0.53461664375E+03  0.17726554966E+03 0.  0.
         24    2    3    3    0    0  0.49654867957E+02  0.52206690318E+02  0.14935378681E+03  0.18469618716E+03  0.81332548768E+02 0.  0.
         -6    2    1    2    0  502 -0.70517108684E+02 -0.34957221600E+02  0.54643982624E+03  0.57834265980E+03  0.17230518995E+03 0.  0.
        -24    2    5    5    0    0 -0.98842909451E+02 -0.41876452951E+01  0.27417505895E+03  0.30284436339E+03  0.82190561307E+02 0.  0.
          5    1    3    3  501    0  0.20862240727E+02 -0.17249468718E+02  0.34884016208E+03  0.34992045659E+03  0.47000000000E+01 0. -1.
        -13    1    4    4    0    0  0.19625594636E+02 -0.15700862402E+02  0.10503940616E+02  0.27239930497E+02  0.00000000000E+00 0.  1.
         14    1    4    4    0    0  0.30029273321E+02  0.67907552720E+02  0.13884984620E+03  0.15745625666E+03  0.00000000000E+00 0. -1.
         -5    1    5    5    0  502  0.28325800767E+02 -0.30769576305E+02  0.27226476729E+03  0.27549829641E+03  0.47000000000E+01 0.  1.
         11    1    6    6    0    0  0.76957109093E+01  0.14232967205E+02  0.15174861284E+02  0.22182825267E+02  0.00000000000E+00 0. -1.
        -12    1    6    6    0    0 -0.10653862036E+03 -0.18420612500E+02  0.25900019767E+03  0.28066153813E+03  0.00000000000E+00 0.  1.
</event>
<event>
12    1  0.1039610E+000  0.2213254E+03  0.7818608E-02  0.1133009E+00
         21   -1    0    0  501  502  0.00000000000E+00  0.00000000000E+00  0.15191916705E+04  0.15191916705E+04  0.00000000000E+00 0.  1.
         21   -1    0    0  502  503 -0.00000000000E+00 -0.00000000000E+00 -0.38470193405E+02  0.38470193405E+02  0.00000000000E+00 0.  1.
         -6    2    1    2    0  503  0.13998313835E+03  0.56307733093E+01  0.42403612915E+03  0.47804671098E+03  0.17057266612E+03 0.  0.
        -24    2    3    3    0    0  0.59354507577E+02  0.67884266330E+02  0.28572250165E+03  0.30620602009E+03  0.63194521961E+02 0.  0.
          6    2    1    2  501    0 -0.13998313835E+03 -0.56307733093E+01  0.10566853479E+04  0.10796151529E+04  0.17134167394E+03 0.  0.
         24    2    5    5    0    0 -0.64143668982E+02  0.62054983840E+02  0.56941798790E+03  0.58183552598E+03  0.79564458512E+02 0.  0.
          5    1    5    5  501    0 -0.75839469368E+02 -0.67685757150E+02  0.48726736004E+03  0.49777962694E+03  0.47000000000E+01 0. -1.
        -11    1    6    6    0    0 -0.22264267864E+02  0.53425581621E+02  0.47082968592E+03  0.47437388581E+03  0.00000000000E+00 0.  1.
         12    1    6    6    0    0 -0.41879401118E+02  0.86294022188E+01  0.98588301980E+02  0.10746164017E+03  0.00000000000E+00 0. -1.
         -5    1    3    3    0  503  0.80628630773E+02 -0.62253493020E+02  0.13831362750E+03  0.17184069089E+03  0.47000000000E+01 0.  1.
         13    1    4    4    0    0  0.15845852027E+02  0.38387934042E+02  0.51505326140E+02  0.66162853076E+02  0.00000000000E+00 0. -1.
        -14    1    4    4    0    0  0.43508655550E+02  0.29496332288E+02  0.23421717551E+03  0.24004316702E+03  0.00000000000E+00 0.  1.
</event>
<event>
12    1  0.1039610E+000  0.2622198E+03  0.7818608E-02  0.1106697E+00
         21   -1    0    0  503  502  0.00000000000E+00  0.00000000000E+00  0.74079747979E+03  0.74079747979E+03  0.00000000000E+00 0. -1.
         21   -1    0    0  501  503 -0.00000000000E+00 -0.00000000000E+00 -0.11974820997E+03  0.11974820997E+03  0.00000000000E+00 0. -1.
          6    2    1    2  501    0  0.14657068250E+03  0.12462392686E+03  0.52488184024E+03  0.58673686934E+03  0.17817160131E+03 0.  0.
         24    2    3    3    0    0  0.67549344449E+01  0.78600469958E+01  0.18900406597E+03  0.20461356948E+03  0.77696630460E+02 0.  0.
         -6    2    1    2    0  502 -0.14657068250E+03 -0.12462392686E+03  0.96167429582E+02  0.27380882042E+03  0.16943732620E+03 0.  0.
        -24    2    5    5    0    0 -0.15263921366E+03 -0.70488387085E+02  0.31334032156E+02  0.18899759970E+03  0.80442083894E+02 0.  0.
          5    1    3    3  501    0  0.13981574805E+03  0.11676387986E+03  0.33587777427E+03  0.38212329986E+03  0.47000000000E+01 0. -1.
        -13    1    4    4    0    0  0.10189091916E+02  0.95165792794E+01 -0.15440011778E+01  0.14027359513E+02  0.00000000000E+00 0.  1.
         14    1    4    4    0    0 -0.34341574714E+01 -0.16565322836E+01  0.19054806715E+03  0.19058620997E+03  0.00000000000E+00 0. -1.
         -5    1    5    5    0  502  0.60685311636E+01 -0.54135539775E+02  0.64833397426E+02  0.84811220714E+02  0.47000000000E+01 0.  1.
         11    1    6    6    0    0 -0.70171281155E+02 -0.71232916374E+02 -0.20852289483E+01  0.10001242550E+03  0.00000000000E+00 0. -1.
        -12    1    6    6    0    0 -0.82467932504E+02  0.74452928846E+00  0.33419261104E+02  0.88985174204E+02  0.00000000000E+00 0.  1.
</event>
<event>
12    1  0.1039610E+000  0.1806386E+03  0.7818608E-02  0.1167414E+00
         21   -1    0    0  501  502  0.00000000000E+00  0.00000000000E+00  0.80491287087E+02  0.80491287087E+02  0.00000000000E+00 0.  1.
         21   -1    0    0  502  503 -0.00000000000E+00 -0.00000000000E+00 -0.40474899089E+03  0.40474899089E+03  0.00000000000E+00 0.  1.
         -6    2    1    2    0  503 -0.56809999104E+02  0.51311280212E+01 -0.17716897036E+03  0.25302008002E+03  0.17139606869E+03 0.  0.
        -24    2    3    3    0    0 -0.67537429268E+02  0.49565386781E+02 -0.16905223409E+03  0.20635689842E+03  0.83585164688E+02 0.  0.
          6    2    1    2  501    0  0.56809999104E+02 -0.51311280212E+01 -0.14708873345E+03  0.23222019796E+03  0.17040369820E+03 0.  0.
         24    2    5    5    0    0  0.85945680731E+02  0.61661798146E+01 -0.15945446364E+03  0.19828616797E+03  0.80417638748E+02 0.  0.
          5    1    5    5  501    0 -0.29135681627E+02 -0.11297307836E+02  0.12365730194E+02  0.33934029991E+02  0.47000000000E+01 0. -1.
        -13    1    6    6    0    0  0.18768939757E+02 -0.13425436572E+02 -0.11050676930E+03  0.11289048457E+03  0.00000000000E+00 0.  1.
         14    1    6    6    0    0  0.67176740974E+02  0.19591616387E+02 -0.48947694343E+02  0.85395683392E+02  0.00000000000E+00 0. -1.
         -5    1    3    3    0  503  0.10727430164E+02 -0.44434258759E+02 -0.81167362688E+01  0.46663181600E+02  0.47000000000E+01 0.  1.
         13    1    4    4    0    0 -0.29615769539E+02  0.89599021247E+01 -0.14054524387E+03  0.14391087251E+03  0.00000000000E+00 0. -1.
        -14    1    4    4    0    0 -0.37921659729E+02  0.40605484656E+02 -0.28506990218E+02  0.62446025911E+02  0.00000000000E+00 0.  1.
</event>
<event>
12    1  0.1039610E+000  0.2631093E+03  0.7818608E-02  0.1105424E+00
         21   -1    0    0  501  502  0.00000000000E+00  0.00000000000E+00  0.26817329464E+03  0.26817329464E+03  0.00000000000E+00 0. -1.
         21   -1    0    0  502  503 -0.00000000000E+00 -0.00000000000E+00 -0.25851344127E+03  0.25851344127E+03  0.00000000000E+00 0. -1.
         -6    2    1    2    0  503 -0.80293883790E+02  0.18139488506E+03  0.23213666400E+02  0.26322852453E+03  0.17146186083E+03 0.  0.
        -24    2    3    3    0    0 -0.75891402329E+02  0.39440618957E+02 -0.94178157925E+01  0.11742969348E+03  0.79912266170E+02 0.  0.
          6    2    1    2  501    0  0.80293883790E+02 -0.18139488506E+03 -0.13553813028E+02  0.26345821138E+03  0.17284476039E+03 0.  0.
         24    2    5    5    0    0  0.10558012957E+03 -0.19290169853E+03 -0.66961674601E+01  0.23445962030E+03  0.81044715027E+02 0.  0.
          5    1    5    5  501    0 -0.25286245778E+02  0.11506813475E+02 -0.68576455679E+01  0.28998591080E+02  0.47000000000E+01 0. -1.
        -13    1    6    6    0    0  0.81868703767E+02 -0.11051840327E+03  0.30712000315E+02  0.14092561542E+03  0.00000000000E+00 0.  1.
         14    1    6    6    0    0  0.23711425801E+02 -0.82383295261E+02 -0.37408167775E+02  0.93534004875E+02  0.00000000000E+00 0. -1.
         -5    1    3    3    0  503 -0.44024814602E+01  0.14195426610E+03  0.32631482193E+02  0.14579883106E+03  0.47000000000E+01 0.  1.
         11    1    4    4    0    0 -0.20592329389E+02 -0.24829216282E+02 -0.19629904211E+01  0.32316982257E+02  0.00000000000E+00 0. -1.
        -12    1    4    4    0    0 -0.55299072940E+02  0.64269835239E+02 -0.74548253714E+01  0.85112711219E+02  0.00000000000E+00 0.  1.
</event>
<event>
12    1  0.1039610E+000  0.2079227E+03  0.7818608E-02  0.1143461E+00
         21   -1    0    0  503  502  0.00000000000E+00  0.00000000000E+00  0.30685482524E+03  0.30685482524E+03  0.00000000000E+00 0.  1.
         21   -1    0    0  501  503 -0.00000000000E+00 -0.00000000000E+00 -0.16302066154E+03  0.16302066154E+03  0.00000000000E+00 0.  1.
          6    2    1    2  501    0 -0.73128878660E+01  0.11476776769E+03  0.15987084462E+03  0.26133523917E+03  0.17179144753E+03 0.  0.
         24    2    3    3    0    0  0.20898955589E+02 -0.65364106046E+01  0.69852960281E+02  0.10759545485E+03  0.78853375551E+02 0.  0.
         -6    2    1    2    0  502  0.73128878660E+01 -0.11476776769E+03 -0.16036680912E+02  0.20854024761E+03  0.17322453900E+03 0.  0.
        -24    2    5    5    0    0  0.87227924444E+01 -0.33831688933E+02 -0.68732161006E+02  0.11183688522E+03  0.81010546574E+02 0.  0.
          5    1    3    3  501    0 -0.28211843455E+02  0.12130417829E+03  0.90017884335E+02  0.15373978432E+03  0.47000000000E+01 0. -1.
        -13    1    4    4    0    0 -0.23171699323E+02  0.48731138791E+00 -0.17296657925E+01  0.23241275044E+02  0.00000000000E+00 0.  1.
         14    1    4    4    0    0  0.44070654912E+02 -0.70237219925E+01  0.71582626073E+02  0.84354179805E+02  0.00000000000E+00 0. -1.
         -5    1    5    5    0  502 -0.14099045784E+01 -0.80936078752E+02  0.52695480095E+02  0.96703362388E+02  0.47000000000E+01 0.  1.
         13    1    6    6    0    0  0.16284003482E+01 -0.51844578134E+02 -0.75262579943E+02  0.91405513561E+02  0.00000000000E+00 0. -1.
        -14    1    6    6    0    0  0.70943920961E+01  0.18012889201E+02  0.65304189371E+01  0.20431371664E+02  0.00000000000E+00 0.  1.
</event>
<event>
12    1  0.1039610E+000  0.2470890E+03  0.7818608E-02  0.1115437E+00
         21   -1    0    0  501  502  0.00000000000E+00  0.00000000000E+00  0.37390033347E+03  0.37390033347E+03  0.00000000000E+00 0. -1.
         21   -1    0    0  502  503 -0.00000000000E+00 -0.00000000000E+00 -0.40647599182E+03  0.40647599182E+03  0.00000000000E+00 0. -1.
         -6    2    1    2    0  503  0.17368775542E+03 -0.31685780761E+02  0.28620264931E+03  0.37810701491E+03  0.17286275818E+03 0.  0.
        -24    2    3    3    0    0  0.51915851713E+02  0.38838784887E+02  0.88468721026E+02  0.13536660359E+03  0.79332817277E+02 0.  0.
          6    2    1    2  501    0 -0.17368775542E+03  0.31685780761E+02 -0.31877830766E+03  0.40226931038E+03  0.17038064314E+03 0.  0.
         24    2    5    5    0    0 -0.15859759533E+03 -0.25321775038E+02 -0.27690831883E+03  0.32979338118E+03  0.79316251139E+02 0.  0.
          5    1    5    5  501    0 -0.15090160089E+02  0.57007555800E+02 -0.41869988829E+02  0.72475929206E+02  0.47000000000E+01 0. -1.
        -13    1    6    6    0    0 -0.28867079312E+02  0.15532275954E+02 -0.18157786188E+02  0.37473524835E+02  0.00000000000E+00 0.  1.
         14    1    6    6    0    0 -0.12973051602E+03 -0.40854050992E+02 -0.25875053264E+03  0.29231985634E+03  0.00000000000E+00 0. -1.
         -5    1    3    3    0  503  0.12177190371E+03 -0.70524565648E+02  0.19773392828E+03  0.24274041132E+03  0.47000000000E+01 0.  1.
         11    1    4    4    0    0  0.83674272355E+01 -0.11493175353E+02 -0.93766835188E+01  0.17030241104E+02  0.00000000000E+00 0. -1.
        -12    1    4    4    0    0  0.43548424478E+02  0.50331960240E+02  0.97845404545E+02  0.11833636249E+03  0.00000000000E+00 0.  1.
</event>
<event>
12    1  0.1039610E+000  0.2154525E+03  0.7818608E-02  0.1137324E+00
         21   -1    0    0  501  502  0.00000000000E+00  0.00000000000E+00  0.24261322999E+03  0.24261322999E+03  0.00000000000E+00 0.  1.
         21   -1    0    0  502  503 -0.00000000000E+00 -0.00000000000E+00 -0.21921574164E+03  0.21921574164E+03  0.00000000000E+00 0.  1.
         -6    2    1    2    0  503 -0.10669793193E+03  0.70915245455E+02 -0.70684733122E+02  0.22673063150E+03  0.17319649838E+03 0.  0.
        -24    2    3    3    0    0 -0.64794963640E+02  0.10699132237E+03 -0.84065555475E+02  0.16964754746E+03  0.77895714682E+02 0.  0.
          6    2    1    2  501    0  0.10669793193E+03 -0.70915245455E+02  0.94082221470E+02  0.23509834014E+03  0.17322339456E+03 0.  0.
         24    2    5    5    0    0  0.15154097605E+02 -0.74544382095E+02  0.83458110769E+02  0.14274897109E+03  0.87324114182E+02 0.  0.
          5    1    5    5  501    0  0.91543834322E+02  0.36291366403E+01  0.10624110702E+02  0.92349369047E+02  0.47000000000E+01 0. -1.
        -11    1    6    6    0    0  0.48812880417E+02 -0.33532601884E+02  0.61355083939E+02  0.85273553983E+02  0.00000000000E+00 0.  1.
         12    1    6    6    0    0 -0.33658782812E+02 -0.41011780211E+02  0.22103026830E+02  0.57475417106E+02  0.00000000000E+00 0. -1.
         -5    1    3    3    0  503 -0.41902968288E+02 -0.36076076916E+02  0.13380822353E+02  0.57083084043E+02  0.47000000000E+01 0.  1.
         11    1    4    4    0    0 -0.50448332552E+02  0.14582166101E+02 -0.41341198699E+02  0.66833887627E+02  0.00000000000E+00 0. -1.
        -12    1    4    4    0    0 -0.14346631088E+02  0.92409156270E+02 -0.42724356776E+02  0.10281365983E+03  0.00000000000E+00 0.  1.
</event>
<event>
12    1  0.1039610E+000  0.2339939E+03  0.7818608E-02  0.1124493E+00
         21   -1    0    0  501  502  0.00000000000E+00  0.00000000000E+00  0.12024310311E+03  0.12024310311E+03  0.00000000000E+00 0. -1.
         21   -1    0    0  502  503 -0.00000000000E+00 -0.00000000000E+00 -0.75390805890E+03  0.75390805890E+03  0.00000000000E+00 0. -1.
         -6    2    1    2    0  503 -0.25162856834E+02  0.15007916752E+03 -0.40031516047E+02  0.23739352631E+03  0.17775330705E+03 0.  0.
        -24    2    3    3    0    0 -0.23604383645E+02  0.10981041350E+02  0.11090879582E+02  0.89115723257E+02  0.84503575814E+02 0.  0.
          6    2    1    2  501    0  0.25162856834E+02 -0.15007916752E+03 -0.59363343974E+03  0.63675763570E+03  0.17292397162E+03 0.  0.
         24    2    5    5    0    0 -0.18923637459E+02 -0.10238989065E+03 -0.25457615769E+03  0.29150437125E+03  0.96560782047E+02 0.  0.
          5    1    5    5  501    0  0.44086494293E+02 -0.47689276873E+02 -0.33905728204E+03  0.34525326445E+03  0.47000000000E+01 0. -1.
        -11    1    6    6    0    0 -0.13746523583E+02 -0.60843186411E+02 -0.23871925158E+03  0.24673415109E+03  0.00000000000E+00 0.  1.
         12    1    6    6    0    0 -0.51771138764E+01 -0.41546704238E+02 -0.15856906119E+02  0.44770220156E+02  0.00000000000E+00 0. -1.
         -5    1    3    3    0  503 -0.15584731891E+01  0.13909812617E+03 -0.51122395629E+02  0.14827780305E+03  0.47000000000E+01 0.  1.
         13    1    4    4    0    0  0.22962649749E+02  0.29482878175E+02 -0.16735114164E+01  0.37407539741E+02  0.00000000000E+00 0. -1.
        -14    1    4    4    0    0 -0.46567033394E+02 -0.18501836825E+02  0.12764390998E+02  0.51708183517E+02  0.00000000000E+00 0.  1.
</event>
<event>
12    1  0.1039610E+000  0.3164187E+03  0.7818608E-02  0.1078337E+00
         21   -1    0    0  503  502  0.00000000000E+00  0.00000000000E+00  0.14997428692E+03  0.14997428692E+03  0.00000000000E+00 0. -1.
         21   -1    0    0  501  503 -0.00000000000E+00 -0.00000000000E+00 -0.80780862469E+03  0.80780862469E+03  0.00000000000E+00 0.  1.
          6    2    1    2  501    0  0.49590315653E+02 -0.25129766247E+03 -0.54463755596E+03  0.62988161470E+03  0.18577154412E+03 0.  0.
         24    2    3    3    0    0  0.72682218309E+02 -0.94736157207E+02 -0.37278517386E+03  0.39621503144E+03  0.61318194268E+02 0.  0.
         -6    2    1    2    0  502 -0.49590315653E+02  0.25129766247E+03 -0.11319678181E+03  0.32790129691E+03  0.17057559771E+03 0.  0.
        -24    2    5    5    0    0 -0.29947249723E+02  0.12365064470E+03  0.12101362617E+02  0.14789761311E+03  0.74437499191E+02 0.  0.
          5    1    3    3  501    0 -0.23091902656E+02 -0.15656150526E+03 -0.17185238210E+03  0.23366658325E+03  0.47000000000E+01 0. -1.
        -13    1    4    4    0    0  0.52966092169E+02 -0.99196881715E+02 -0.29108173964E+03  0.31204808510E+03  0.00000000000E+00 0.  1.
         14    1    4    4    0    0  0.19716126140E+02  0.44607245073E+01 -0.81703434227E+02  0.84166946349E+02  0.00000000000E+00 0. -1.
         -5    1    5    5    0  502 -0.19643065930E+02  0.12764701777E+03 -0.12529814443E+03  0.18000368380E+03  0.47000000000E+01 0.  1.
         13    1    6    6    0    0 -0.14479759062E+02  0.16761497851E+02 -0.25278231002E+02  0.33609525365E+02  0.00000000000E+00 0. -1.
        -14    1    6    6    0    0 -0.15467490662E+02  0.10688914685E+03  0.37379593619E+02  0.11428808774E+03  0.00000000000E+00 0.  1.
</event>
<event>
12    1  0.1039610E+000  0.1901586E+03  0.7818608E-02  0.1158665E+00
         21   -1    0    0  503  502  0.00000000000E+00  0.00000000000E+00  0.18887608829E+03  0.18887608829E+03  0.00000000000E+00 0. -1.
         21   -1    0    0  501  503 -0.00000000000E+00 -0.00000000000E+00 -0.21427241816E+03  0.21427241816E+03  0.00000000000E+00 0. -1.
          6    2    1    2  501    0 -0.59974414803E+02 -0.49962583795E+02 -0.80619139371E+02  0.20513371324E+03  0.17171838709E+03 0.  0.
         24    2    3    3    0    0 -0.10452778909E+03 -0.27236041531E+02 -0.77322699945E+02  0.15479033834E+03  0.79456832728E+02 0.  0.
         -6    2    1    2    0  502  0.59974414803E+02  0.49962583795E+02  0.55222809506E+02  0.19801479321E+03  0.17339870077E+03 0.  0.
        -24    2    5    5    0    0  0.90608405940E+02  0.79326321479E+02  0.29770036460E+02  0.14830962085E+03  0.81283085935E+02 0.  0.
          5    1    3    3  501    0  0.44553374284E+02 -0.22726542264E+02 -0.32964394261E+01  0.50343374899E+02  0.47000000000E+01 0. -1.
        -13    1    4    4    0    0  0.11241014649E+02 -0.13104633814E+02 -0.12899241034E+02  0.21551850431E+02  0.00000000000E+00 0.  1.
         14    1    4    4    0    0 -0.11576880374E+03 -0.14131407717E+02 -0.64423458911E+02  0.13323848791E+03  0.00000000000E+00 0. -1.
         -5    1    5    5    0  502 -0.30633991137E+02 -0.29363737683E+02  0.25452773046E+02  0.49705172361E+02  0.47000000000E+01 0.  1.
         11    1    6    6    0    0  0.10471741663E+03  0.63349128344E+02  0.32980792839E+02  0.12675402205E+03  0.00000000000E+00 0. -1.
        -12    1    6    6    0    0 -0.14109010694E+02  0.15977193135E+02 -0.32107563792E+01  0.21555598803E+02  0.00000000000E+00 0.  1.
</event>
<event>
12    1  0.1039610E+000  0.1879670E+03  0.7818608E-02  0.1160917E+00
         21   -1    0    0  501  502  0.00000000000E+00  0.00000000000E+00  0.15946954481E+03  0.15946954481E+03  0.00000000000E+00 0. -1.
         21   -1    0    0  502  503 -0.00000000000E+00 -0.00000000000E+00 -0.22233504833E+03  0.22233504833E+03  0.00000000000E+00 0. -1.
         -6    2    1    2    0  503 -0.68285571209E+02 -0.20174761745E+02 -0.64244907996E+01  0.18807673095E+03  0.17395873763E+03 0.  0.
        -24    2    3    3    0    0 -0.34633724817E+02  0.49255623313E+02 -0.35023421633E+02  0.10565698830E+03  0.79442732771E+02 0.  0.
          6    2    1    2  501    0  0.68285571209E+02  0.20174761745E+02 -0.56441012723E+02  0.19372786219E+03  0.17109925898E+03 0.  0.
         24    2    5    5    0    0  0.23888048722E+02 -0.46475002210E+02 -0.62843238781E+02  0.11325171953E+03  0.78397159478E+02 0.  0.
          5    1    5    5  501    0  0.44397522486E+02  0.66649763955E+02  0.64022260582E+01  0.80476142655E+02  0.47000000000E+01 0. -1.
        -11    1    6    6    0    0  0.33727084588E+02 -0.52475487480E+02 -0.15159414367E+02  0.64195022120E+02  0.00000000000E+00 0.  1.
         12    1    6    6    0    0 -0.98390358658E+01  0.60004852695E+01 -0.47683824414E+02  0.49056697412E+02  0.00000000000E+00 0. -1.
         -5    1    3    3    0  503 -0.33651846392E+02 -0.69430385058E+02  0.28598930833E+02  0.82419742657E+02  0.47000000000E+01 0.  1.
         13    1    4    4    0    0 -0.63286838920E+01  0.10215031387E+02  0.25548924654E+02  0.28233785737E+02  0.00000000000E+00 0. -1.
        -14    1    4    4    0    0 -0.28305040925E+02  0.39040591925E+02 -0.60572346288E+02  0.77423202559E+02  0.00000000000E+00 0.  1.
</event>
<event>
12    1  0.1039610E+000  0.3013382E+03  0.7818608E-02  0.1084650E+00
         21   -1    0    0  501  502  0.00000000000E+00  0.00000000000E+00  0.96611469064E+02  0.96611469064E+02  0.00000000000E+00 0. -1.
         21   -1    0    0  502  503 -0.00000000000E+00 -0.00000000000E+00 -0.10841252022E+04  0.10841252022E+04  0.00000000000E+00 0. -1.
         -6    2    1    2    0  503  0.11670602306E+03  0.21734105009E+03 -0.27743636954E+03  0.40960423249E+03  0.17305276727E+03 0.  0.
        -24    2    3    3    0    0  0.11496869264E+03  0.10630183144E+03 -0.22851825060E+03  0.28816371720E+03  0.79371641009E+02 0.  0.
          6    2    1    2  501    0 -0.11670602306E+03 -0.21734105009E+03 -0.71007736362E+03  0.77113243880E+03  0.17198240599E+03 0.  0.
         24    2    5    5    0    0 -0.61419226475E+02 -0.68925188659E+02 -0.17572661838E+03  0.21378451628E+03  0.79378661992E+02 0.  0.
          5    1    5    5  501    0 -0.55286796584E+02 -0.14841586143E+03 -0.53435074524E+03  0.55734792252E+03  0.47000000000E+01 0. -1.
        -13    1    6    6    0    0 -0.42847562683E+02 -0.53464653464E+02 -0.17678379478E+03  0.18959665845E+03  0.00000000000E+00 0.  1.
         14    1    6    6    0    0 -0.18571663792E+02 -0.15460535194E+02  0.10571763971E+01  0.24187857830E+02  0.00000000000E+00 0. -1.
         -5    1    3    3    0  503  0.17373304168E+01  0.11103921865E+03 -0.48918118944E+02  0.12144051530E+03  0.47000000000E+01 0.  1.
         11    1    4    4    0    0  0.33702988694E+02 -0.50120621369E+01 -0.71729775667E+02  0.79411415621E+02  0.00000000000E+00 0. -1.
        -12    1    4    4    0    0  0.81265703949E+02  0.11131389358E+03 -0.15678847493E+03  0.20875230157E+03  0.00000000000E+00 0.  1.
</event>
<event>
12    1  0.1039610E+000  0.3222285E+03  0.7818608E-02  0.1074690E+00
         21   -1    0    0  503  502  0.00000000000E+00  0.00000000000E+00  0.15930299609E+03  0.15930299609E+03  0.00000000000E+00 0. -1.
         21   -1    0    0  501  503 -0.00000000000E+00 -0.00000000000E+00 -0.20024686236E+04  0.20024686236E+04  0.00000000000E+00 0. -1.
          6    2    1    2  501    0  0.20748645974E+03  0.17739335182E+03 -0.18099109961E+04  0.18383713029E+04  0.17120806352E+03 0.  0.
         24    2    3    3    0    0  0.19537982916E+03  0.19176972627E+03 -0.14590781494E+04  0.14870039353E+04  0.85573079631E+02 0.  0.
         -6    2    1    2    0  502 -0.20748645974E+03 -0.17739335182E+03 -0.33254631334E+02  0.32340031679E+03  0.17018478824E+03 0.  0.
        -24    2    5    5    0    0 -0.67819621905E+02 -0.13559129564E+03  0.83732948060E+01  0.17171244079E+03  0.80190708229E+02 0.  0.
          5    1    3    3  501    0  0.12106630581E+02 -0.14376374454E+02 -0.35083284670E+03  0.35136736754E+03  0.47000000000E+01 0. -1.
        -11    1    4    4    0    0  0.18921862078E+03  0.14526179599E+03 -0.11606335589E+04  0.11848944821E+04  0.00000000000E+00 0.  1.
         12    1    4    4    0    0  0.61612083767E+01  0.46507930282E+02 -0.29844459058E+03  0.30210945320E+03  0.00000000000E+00 0. -1.
         -5    1    5    5    0  502 -0.13966683783E+03 -0.41802056175E+02 -0.41627926139E+02  0.15168787600E+03  0.47000000000E+01 0.  1.
         11    1    6    6    0    0  0.30018050741E+01  0.58091968686E+01  0.11844470023E+02  0.13529562894E+02  0.00000000000E+00 0. -1.
        -12    1    6    6    0    0 -0.70821426980E+02 -0.14140049251E+03 -0.34711752172E+01  0.15818287789E+03  0.00000000000E+00 0.  1.
</event>
<event>
12    1  0.1039610E+000  0.3161973E+03  0.7818608E-02  0.1077485E+00
         21   -1    0    0  503  502  0.00000000000E+00  0.00000000000E+00  0.94532166417E+03  0.94532166417E+03  0.00000000000E+00 0. -1.
         21   -1    0    0  501  503 -0.00000000000E+00 -0.00000000000E+00 -0.27927356139E+03  0.27927356139E+03  0.00000000000E+00 0. -1.
          6    2    1    2  501    0  0.10386606285E+03  0.24379654952E+03  0.81605673654E+03  0.87517390084E+03  0.17249881996E+03 0.  0.
         24    2    3    3    0    0  0.88040661108E+02  0.87058256796E+02  0.28208239975E+03  0.31842618590E+03  0.80588197206E+02 0.  0.
         -6    2    1    2    0  502 -0.10386606285E+03 -0.24379654952E+03 -0.15000863376E+03  0.34942132471E+03  0.17137022900E+03 0.  0.
        -24    2    5    5    0    0 -0.15452256400E+02 -0.48287066635E+02 -0.89259026374E+02  0.12636625557E+03  0.73694258433E+02 0.  0.
          5    1    3    3  501    0  0.15825401741E+02  0.15673829273E+03  0.53397433679E+03  0.55674771495E+03  0.47000000000E+01 0. -1.
        -13    1    4    4    0    0  0.46520086556E+02  0.37228004281E+02  0.22254286511E+03  0.23038092275E+03  0.00000000000E+00 0.  1.
         14    1    4    4    0    0  0.41520574552E+02  0.49830252515E+02  0.59539534644E+02  0.88045263146E+02  0.00000000000E+00 0. -1.
         -5    1    5    5    0  502 -0.88413806449E+02 -0.19550948289E+03 -0.60749607389E+02  0.22305506914E+03  0.47000000000E+01 0.  1.
         13    1    6    6    0    0  0.20208589427E+02 -0.48776951718E+02 -0.62275037113E+02  0.81644095640E+02  0.00000000000E+00 0. -1.
        -14    1    6    6    0    0 -0.35660845827E+02  0.48988508318E+00 -0.26983989261E+02  0.44722159932E+02  0.00000000000E+00 0.  1.
</event>
<event>
12    1  0.1039610E+000  0.2190004E+03  0.7818608E-02  0.1134807E+00
         21   -1    0    0  503  502  0.00000000000E+00  0.00000000000E+00  0.47990790939E+03  0.47990790939E+03  0.00000000000E+00 0. -1.
         21   -1    0    0  501  503 -0.00000000000E+00 -0.00000000000E+00 -0.13576201850E+03  0.13576201850E+03  0.00000000000E+00 0. -1.
          6    2    1    2  501    0  0.45084270680E+02  0.12775088067E+03  0.12732233601E+02  0.21843422901E+03  0.17087575503E+03 0.  0.
         24    2    3    3    0    0  0.51840939720E+01  0.12918786179E+03 -0.34057545632E+02  0.15674579852E+03  0.81810454562E+02 0.  0.
         -6    2    1    2    0  502 -0.45084270680E+02 -0.12775088067E+03  0.33141365728E+03  0.39723569888E+03  0.17207065192E+03 0.  0.
        -24    2    5    5    0    0  0.30695883736E+02 -0.44476298034E+02  0.21196647507E+03  0.23301935603E+03  0.80298539023E+02 0.  0.
          5    1    3    3  501    0  0.39900176708E+02 -0.14369811153E+01  0.46789779233E+02  0.61688430494E+02  0.47000000000E+01 0. -1.
        -13    1    4    4    0    0  0.29140928000E+02  0.95128211580E+02  0.50500965078E+01  0.99619645642E+02  0.00000000000E+00 0.  1.
         14    1    4    4    0    0 -0.23956834028E+02  0.34059650209E+02 -0.39107642140E+02  0.57126152879E+02  0.00000000000E+00 0. -1.
         -5    1    5    5    0  502 -0.75780154416E+02 -0.83274582640E+02  0.11944718222E+03  0.16421634284E+03  0.47000000000E+01 0.  1.
         11    1    6    6    0    0  0.21695945184E+01  0.18907643420E+02  0.95587259289E+02  0.97463481666E+02  0.00000000000E+00 0. -1.
        -12    1    6    6    0    0  0.28526289217E+02 -0.63383941454E+02  0.11637921578E+03  0.13555587437E+03  0.00000000000E+00 0.  1.
</event>
<event>
12    1  0.1039610E+000  0.6372890E+03  0.7818608E-02  0.9831321E-01
         21   -1    0    0  501  502  0.00000000000E+00  0.00000000000E+00  0.26285761809E+03  0.26285761809E+03  0.00000000000E+00 0. -1.
         21   -1    0    0  502  503 -0.00000000000E+00 -0.00000000000E+00 -0.17248683947E+04  0.17248683947E+04  0.00000000000E+00 0.  1.
         -6    2    1    2    0  503 -0.55433199166E+03 -0.26217270236E+03 -0.40879433756E+03  0.75713277469E+03  0.17354753023E+03 0.  0.
        -24    2    3    3    0    0 -0.32653327005E+03 -0.91035636540E+02 -0.18287544326E+03  0.39348240735E+03  0.80458147975E+02 0.  0.
          6    2    1    2  501    0  0.55433199166E+03  0.26217270236E+03 -0.10532164390E+04  0.12305932381E+04  0.17051793852E+03 0.  0.
         24    2    5    5    0    0  0.40272095475E+03  0.16373570466E+03 -0.61951004442E+03  0.76070061658E+03  0.76675840683E+02 0.  0.
          5    1    5    5  501    0  0.15161103690E+03  0.98436997703E+02 -0.43370639463E+03  0.46989262153E+03  0.47000000000E+01 0. -1.
        -11    1    6    6    0    0  0.14030055065E+03  0.20405083981E+02 -0.21894785938E+03  0.26084243729E+03  0.00000000000E+00 0.  1.
         12    1    6    6    0    0  0.26242040410E+03  0.14333062068E+03 -0.40056218504E+03  0.49985817929E+03  0.00000000000E+00 0. -1.
         -5    1    3    3    0  503 -0.22779872160E+03 -0.17113706582E+03 -0.22591889430E+03  0.36365036734E+03  0.47000000000E+01 0.  1.
         11    1    4    4    0    0 -0.90205864586E+02  0.14626008772E+01 -0.76576535036E+02  0.11833512972E+03  0.00000000000E+00 0. -1.
        -12    1    4    4    0    0 -0.23632740547E+03 -0.92498237417E+02 -0.10629890823E+03  0.27514727763E+03  0.00000000000E+00 0.  1.
</event>
<event>
12    1  0.1039610E+000  0.2045752E+03  0.7818608E-02  0.1146227E+00
         21   -1    0    0  501  502  0.00000000000E+00  0.00000000000E+00  0.13133086424E+03  0.13133086424E+03  0.00000000000E+00 0.  1.
         21   -1    0    0  502  503 -0.00000000000E+00 -0.00000000000E+00 -0.40111853263E+03  0.40111853263E+03  0.00000000000E+00 0.  1.
         -6    2    1    2    0  503  0.95196940779E+02  0.56565368609E+02 -0.25756694363E+03  0.32892512606E+03  0.17201427163E+03 0.  0.
        -24    2    3    3    0    0  0.69184790441E+02 -0.27277421663E+02 -0.18574017988E+03  0.21540235550E+03  0.79800798065E+02 0.  0.
          6    2    1    2  501    0 -0.95196940779E+02 -0.56565368609E+02 -0.12220724764E+02  0.20352427082E+03  0.17032523077E+03 0.  0.
         24    2    5    5    0    0 -0.83118172675E+02 -0.33219780581E+02 -0.69856516632E+02  0.14000350552E+03  0.81907656491E+02 0.  0.
          5    1    5    5  501    0 -0.12078768105E+02 -0.23345588028E+02  0.57635791868E+02  0.63520765294E+02  0.47000000000E+01 0. -1.
        -13    1    6    6    0    0  0.14091300713E+02 -0.47273713568E+01  0.30797253244E+01  0.15178850543E+02  0.00000000000E+00 0.  1.
         14    1    6    6    0    0 -0.97209473388E+02 -0.28492409224E+02 -0.72936241957E+02  0.12482465498E+03  0.00000000000E+00 0. -1.
         -5    1    3    3    0  503  0.26012150338E+02  0.83842790272E+02 -0.71826763746E+02  0.11352277056E+03  0.47000000000E+01 0.  1.
         13    1    4    4    0    0  0.56267582376E+02  0.19933341308E+02 -0.11161579964E+03  0.12657592840E+03  0.00000000000E+00 0. -1.
        -14    1    4    4    0    0  0.12917208066E+02 -0.47210762971E+02 -0.74124380243E+02  0.88826427097E+02  0.00000000000E+00 0.  1.
</event>
<event>
12    1  0.1039610E+000  0.2115335E+03  0.7818608E-02  0.1140463E+00
         21   -1    0    0  501  502  0.00000000000E+00  0.00000000000E+00  0.12361889564E+03  0.12361889564E+03  0.00000000000E+00 0.  1.
         21   -1    0    0  502  503 -0.00000000000E+00 -0.00000000000E+00 -0.36129265345E+03  0.36129265345E+03  0.00000000000E+00 0.  1.
         -6    2    1    2    0  503  0.82337081481E+02  0.92343718106E+02 -0.12496689804E+03  0.24522579685E+03  0.17091579382E+03 0.  0.
        -24    2    3    3    0    0  0.26342116883E+02  0.79580291337E+02 -0.11852606303E+02  0.11827984726E+03  0.82599685837E+02 0.  0.
          6    2    1    2  501    0 -0.82337081481E+02 -0.92343718106E+02 -0.11270685978E+03  0.23968575223E+03  0.17157991235E+03 0.  0.
         24    2    5    5    0    0 -0.76748214806E+02  0.21764513756E+00 -0.26211825715E+02  0.11279082596E+03  0.78386062334E+02 0.  0.
          5    1    5    5  501    0 -0.55888666745E+01 -0.92561363244E+02 -0.86495034060E+02  0.12689492627E+03  0.47000000000E+01 0. -1.
        -11    1    6    6    0    0 -0.13679181859E+01  0.11855106968E+02 -0.34083563673E+02  0.36112381174E+02  0.00000000000E+00 0.  1.
         12    1    6    6    0    0 -0.75380296621E+02 -0.11637461830E+02  0.78717379585E+01  0.76678444787E+02  0.00000000000E+00 0. -1.
         -5    1    3    3    0  503  0.55994964598E+02  0.12763426769E+02 -0.11311429173E+03  0.12694594959E+03  0.47000000000E+01 0.  1.
         11    1    4    4    0    0  0.18762274673E+02 -0.10070649787E+02 -0.18301515321E+02  0.28078219336E+02  0.00000000000E+00 0. -1.
        -12    1    4    4    0    0  0.75798422091E+01  0.89650941124E+02  0.64489090181E+01  0.90201627923E+02  0.00000000000E+00 0.  1.
</event>
<event>
12    1  0.1039610E+000  0.1773919E+03  0.7818608E-02  0.1170620E+00
         21   -1    0    0  503  502  0.00000000000E+00  0.00000000000E+00  0.38450043134E+02  0.38450043134E+02  0.00000000000E+00 0.  1.
         21   -1    0    0  501  503 -0.00000000000E+00 -0.00000000000E+00 -0.91980883362E+03  0.91980883362E+03  0.00000000000E+00 0.  1.
          6    2    1    2  501    0 -0.51582852869E+00 -0.39940206329E+02 -0.60244395199E+03  0.62771177090E+03  0.17172031295E+03 0.  0.
         24    2    3    3    0    0 -0.48998189811E+02  0.22759838011E+02 -0.34637710150E+03  0.35961821105E+03  0.80183093250E+02 0.  0.
         -6    2    1    2    0  502  0.51582852869E+00  0.39940206329E+02 -0.27891483850E+03  0.33054710585E+03  0.17283638475E+03 0.  0.
        -24    2    5    5    0    0  0.61295760365E+02 -0.52950671679E+01 -0.16805645594E+03  0.19618899829E+03  0.80386209608E+02 0.  0.
          5    1    3    3  501    0  0.48482361282E+02 -0.62700044340E+02 -0.25606685049E+03  0.26809355985E+03  0.47000000000E+01 0. -1.
        -11    1    4    4    0    0 -0.14305937160E+02  0.39110147968E+02 -0.77139898348E+02  0.87663147498E+02  0.00000000000E+00 0.  1.
         12    1    4    4    0    0 -0.34692252651E+02 -0.16350309957E+02 -0.26923720315E+03  0.27195506355E+03  0.00000000000E+00 0. -1.
         -5    1    5    5    0  502 -0.60779931836E+02  0.45235273497E+02 -0.11085838256E+03  0.13435810756E+03  0.47000000000E+01 0.  1.
         11    1    6    6    0    0  0.32554512504E+02  0.37450513596E+02 -0.86746853449E+02  0.99936749178E+02  0.00000000000E+00 0. -1.
        -12    1    6    6    0    0  0.28741247861E+02 -0.42745580764E+02 -0.81309602486E+02  0.96252249116E+02  0.00000000000E+00 0.  1.
</event>
<event>
12    1  0.1039610E+000  0.2296752E+03  0.7818608E-02  0.1126941E+00
         21   -1    0    0  503  502  0.00000000000E+00  0.00000000000E+00  0.18379597044E+03  0.18379597044E+03  0.00000000000E+00 0. -1.
         21   -1    0    0  501  503 -0.00000000000E+00 -0.00000000000E+00 -0.33369321706E+03  0.33369321706E+03  0.00000000000E+00 0. -1.
          6    2    1    2  501    0 -0.11354170748E+03  0.10114081739E+03 -0.17220050244E+03  0.28673366164E+03  0.17158669936E+03 0.  0.
         24    2    3    3    0    0 -0.12876198010E+03  0.80017937532E+02 -0.78765833751E+02  0.18962568017E+03  0.82288056040E+02 0.  0.
         -6    2    1    2    0  502  0.11354170748E+03 -0.10114081739E+03  0.22303255819E+02  0.23075552587E+03  0.17213219692E+03 0.  0.
        -24    2    5    5    0    0  0.30007137981E+02 -0.67065734446E+01 -0.34119685377E+02  0.92547389259E+02  0.80345876504E+02 0.  0.
          5    1    3    3  501    0  0.15220272623E+02  0.21122879863E+02 -0.93434668689E+02  0.97107981471E+02  0.47000000000E+01 0. -1.
        -11    1    4    4    0    0 -0.21398204006E+02 -0.11490163250E+02  0.60389326335E+01  0.25027498747E+02  0.00000000000E+00 0.  1.
         12    1    4    4    0    0 -0.10736377610E+03  0.91508100782E+02 -0.84804766385E+02  0.16459818142E+03  0.00000000000E+00 0. -1.
         -5    1    5    5    0  502  0.83534569498E+02 -0.94434243950E+02  0.56422941195E+02  0.13820813661E+03  0.47000000000E+01 0.  1.
         11    1    6    6    0    0  0.24521136110E+02 -0.14665558875E+02  0.21711670237E+02  0.35885391982E+02  0.00000000000E+00 0. -1.
        -12    1    6    6    0    0  0.54860018717E+01  0.79589854305E+01 -0.55831355614E+02  0.56661997276E+02  0.00000000000E+00 0.  1.
</event>
<event>
12    1  0.1039610E+000  0.3200911E+03  0.7818608E-02  0.1075617E+00
         21   -1    0    0  501  502  0.00000000000E+00  0.00000000000E+00  0.92170826920E+03  0.92170826920E+03  0.00000000000E+00 0.  1.
         21   -1    0    0  502  503 -0.00000000000E+00 -0.00000000000E+00 -0.12192330133E+03  0.12192330133E+03  0.00000000000E+00 0.  1.
         -6    2    1    2    0  503  0.55534448797E+02 -0.26428975623E+03  0.24470214899E+03  0.40291125360E+03  0.17182894489E+03 0.  0.
        -24    2    3    3    0    0  0.80415723826E+02 -0.26936509235E+03  0.23713962066E+03  0.37600179952E+03  0.78217082179E+02 0.  0.
          6    2    1    2  501    0 -0.55534448797E+02  0.26428975623E+03  0.55508281888E+03  0.64072031693E+03  0.17167538688E+03 0.  0.
         24    2    5    5    0    0 -0.50318700047E+02  0.25047764364E+03  0.37973462969E+03  0.46468891080E+03  0.80413763162E+02 0.  0.
          5    1    5    5  501    0 -0.52157487493E+01  0.13812112596E+02  0.17534818919E+03  0.17603140612E+03  0.47000000000E+01 0. -1.
        -13    1    6    6    0    0 -0.14372733415E+02  0.13988758306E+03  0.27183895449E+03  0.30605804766E+03  0.00000000000E+00 0.  1.
         14    1    6    6    0    0 -0.35945966632E+02  0.11059006058E+03  0.10789567519E+03  0.15863086314E+03  0.00000000000E+00 0. -1.
         -5    1    3    3    0  503 -0.24881275029E+02  0.50753361157E+01  0.75625283343E+01  0.26909454074E+02  0.47000000000E+01 0.  1.
         13    1    4    4    0    0 -0.13155509236E+01 -0.81105791538E+02  0.36374663528E+02  0.88898797754E+02  0.00000000000E+00 0. -1.
        -14    1    4    4    0    0  0.81731274749E+02 -0.18825930081E+03  0.20076495713E+03  0.28710300177E+03  0.00000000000E+00 0.  1.
</event>
<event>
12    1  0.1039610E+000  0.2169463E+03  0.7818608E-02  0.1136282E+00
         21   -1    0    0  503  502  0.00000000000E+00  0.00000000000E+00  0.71813951885E+03  0.71813951885E+03  0.00000000000E+00 0.  1.
         21   -1    0    0  501  503 -0.00000000000E+00 -0.00000000000E+00 -0.68244047124E+02  0.68244047124E+02  0.00000000000E+00 0.  1.
          6    2    1    2  501    0  0.12401915485E+03  0.42649978296E+02  0.40516343911E+03  0.45933699159E+03  0.17214321954E+03 0.  0.
         24    2    3    3    0    0 -0.55586918392E+01  0.32418334626E+02  0.14963034576E+03  0.17260653160E+03  0.79510545880E+02 0.  0.
         -6    2    1    2    0  502 -0.12401915485E+03 -0.42649978296E+02  0.24473203261E+03  0.32704657438E+03  0.17281759925E+03 0.  0.
        -24    2    5    5    0    0 -0.43839896491E+02 -0.79633349740E+02  0.18285041230E+03  0.21912109933E+03  0.79475631333E+02 0.  0.
          5    1    3    3  501    0  0.12957784669E+03  0.10231643670E+02  0.25553309335E+03  0.28673045998E+03  0.47000000000E+01 0. -1.
        -13    1    4    4    0    0 -0.19192008851E+02 -0.22301658670E+02  0.45443606756E+02  0.54137035181E+02  0.00000000000E+00 0.  1.
         14    1    4    4    0    0  0.13633317012E+02  0.54719993296E+02  0.10418673900E+03  0.11846949642E+03  0.00000000000E+00 0. -1.
         -5    1    5    5    0  502 -0.80179258355E+02  0.36983371444E+02  0.61881620311E+02  0.10792547506E+03  0.47000000000E+01 0.  1.
         13    1    6    6    0    0 -0.60573332804E+02 -0.80139839369E+02  0.13394685680E+03  0.16743142760E+03  0.00000000000E+00 0. -1.
        -14    1    6    6    0    0  0.16733436313E+02  0.50648962908E+00  0.48903555502E+02  0.51689671727E+02  0.00000000000E+00 0.  1.
</event>
<event>
12    1  0.1039610E+000  0.1853151E+03  0.7818608E-02  0.1164390E+00
         21   -1    0    0  501  502  0.00000000000E+00  0.00000000000E+00  0.16916713529E+03  0.16916713529E+03  0.00000000000E+00 0.  1.
         21   -1    0    0  502  503 -0.00000000000E+00 -0.00000000000E+00 -0.35593144449E+03  0.35593144449E+03  0.00000000000E+00 0.  1.
         -6    2    1    2    0  503  0.47764271734E+02  0.92736153523E+01  0.81875307526E+02  0.20259628039E+03  0.17881348173E+03 0.  0.
        -24    2    3    3    0    0  0.29404945548E+02 -0.35116697615E+02  0.11254277040E+03  0.14541107231E+03  0.79879105580E+02 0.  0.
          6    2    1    2  501    0 -0.47764271734E+02 -0.92736153523E+01 -0.26863961672E+03  0.32250229939E+03  0.17167720829E+03 0.  0.
         24    2    5    5    0    0  0.35108736828E+02  0.12795727698E+02 -0.10031603481E+03  0.13353164115E+03  0.79818784124E+02 0.  0.
          5    1    5    5  501    0 -0.82873008563E+02 -0.22069343050E+02 -0.16832358191E+03  0.18897065824E+03  0.47000000000E+01 0. -1.
        -11    1    6    6    0    0 -0.26557979134E+01  0.15581930557E+02 -0.93782149767E+02  0.95104897020E+02  0.00000000000E+00 0.  1.
         12    1    6    6    0    0  0.37764534742E+02 -0.27862028589E+01 -0.65338850444E+01  0.38426744129E+02  0.00000000000E+00 0. -1.
         -5    1    3    3    0  503  0.18359326186E+02  0.44390312967E+02 -0.30667462872E+02  0.57185208073E+02  0.47000000000E+01 0.  1.
         11    1    4    4    0    0  0.45994826684E+02  0.65660878949E+01  0.47951468912E+02  0.66768113369E+02  0.00000000000E+00 0. -1.
        -12    1    4    4    0    0 -0.16589881136E+02 -0.41682785509E+02  0.64591301486E+02  0.78642958945E+02  0.00000000000E+00 0.  1.
</event>
<event>
12    1  0.1039610E+000  0.3180769E+03  0.7818608E-02  0.1077937E+00
         21   -1    0    0  503  502  0.00000000000E+00  0.00000000000E+00  0.47987253366E+03  0.47987253366E+03  0.00000000000E+00 0.  1.
         21   -1    0    0  501  503 -0.00000000000E+00 -0.00000000000E+00 -0.21190043527E+03  0.21190043527E+03  0.00000000000E+00 0. -1.
          6    2    1    2  501    0 -0.25055966545E+03 -0.36394479933E+02  0.65811597538E+02  0.32481394195E+03  0.19253110501E+03 0.  0.
         24    2    3    3    0    0 -0.18248389634E+03  0.50341151075E+02  0.60141395228E+02  0.21430773751E+03  0.80474934123E+02 0.  0.
         -6    2    1    2    0  502  0.25055966545E+03  0.36394479933E+02  0.20216050085E+03  0.36695902698E+03  0.17229438546E+03 0.  0.
        -24    2    5    5    0    0  0.10433635756E+03  0.22242724450E+02  0.27475970256E+02  0.13866469245E+03  0.84214925577E+02 0.  0.
          5    1    3    3  501    0 -0.68075769109E+02 -0.86735631007E+02  0.56702023105E+01  0.11050620444E+03  0.47000000000E+01 0. -1.
        -11    1    4    4    0    0 -0.16559625983E+03  0.18099249915E+02  0.62289895844E+02  0.17784750558E+03  0.00000000000E+00 0.  1.
         12    1    4    4    0    0 -0.16887636504E+02  0.32241901160E+02 -0.21485006162E+01  0.36460231925E+02  0.00000000000E+00 0. -1.
         -5    1    5    5    0  502  0.14622330789E+03  0.14151755483E+02  0.17468453059E+03  0.22829433453E+03  0.47000000000E+01 0.  1.
         13    1    6    6    0    0  0.32911335944E+02 -0.24871759718E+02  0.33136489318E+02  0.52913017202E+02  0.00000000000E+00 0. -1.
        -14    1    6    6    0    0  0.71425021618E+02  0.47114484168E+02 -0.56605190617E+01  0.85751675246E+02  0.00000000000E+00 0.  1.
</event>
<event>
12    1  0.1039610E+000  0.3208687E+03  0.7818608E-02  0.1075292E+00
         21   -1    0    0  503  502  0.00000000000E+00  0.00000000000E+00  0.32630656331E+03  0.32630656331E+03  0.00000000000E+00 0. -1.
         21   -1    0    0  501  503 -0.00000000000E+00 -0.00000000000E+00 -0.47065493546E+03  0.47065493546E+03  0.00000000000E+00 0.  1.
          6    2    1    2  501    0 -0.82723982325E+02 -0.25795872523E+03  0.15684005508E+03  0.35714915075E+03  0.17196148357E+03 0.  0.
         24    2    3    3    0    0 -0.66754308908E+02 -0.64422058335E+02  0.94438961860E+02  0.15312106852E+03  0.76948065283E+02 0.  0.
         -6    2    1    2    0  502  0.82723982325E+02  0.25795872523E+03 -0.30118842723E+03  0.43981234802E+03  0.17127309069E+03 0.  0.
        -24    2    5    5    0    0  0.61482089526E+02  0.10801757073E+03 -0.72582241905E+02  0.16555617983E+03  0.81809681085E+02 0.  0.
          5    1    3    3  501    0 -0.15969673417E+02 -0.19353666690E+03  0.62401093215E+02  0.20402808223E+03  0.47000000000E+01 0. -1.
        -13    1    4    4    0    0 -0.50363152768E+02 -0.63121007357E+02  0.10582926417E+03  0.13311852569E+03  0.00000000000E+00 0.  1.
         14    1    4    4    0    0 -0.16391156140E+02 -0.13010509779E+01 -0.11390302309E+02  0.20002542837E+02  0.00000000000E+00 0. -1.
         -5    1    5    5    0  502  0.21241892799E+02  0.14994115450E+03 -0.22860618532E+03  0.27425616819E+03  0.47000000000E+01 0.  1.
         13    1    6    6    0    0  0.55872487604E+02  0.76299760548E+02 -0.88594722477E+02  0.12958554388E+03  0.00000000000E+00 0. -1.
        -14    1    6    6    0    0  0.56096019225E+01  0.31717810187E+02  0.16012480571E+02  0.35970635953E+02  0.00000000000E+00 0.  1.
</event>
<event>
12    1  0.1039610E+000  0.1843997E+03  0.7818608E-02  0.1164050E+00
         21   -1    0    0  501  502  0.00000000000E+00  0.00000000000E+00  0.80233861847E+03  0.80233861847E+03  0.00000000000E+00 0.  1.
         21   -1    0    0  502  503 -0.00000000000E+00 -0.00000000000E+00 -0.50268224682E+02  0.50268224682E+02  0.00000000000E+00 0.  1.
         -6    2    1    2    0  503 -0.63959595137E+02 -0.14500567751E+01  0.20425554682E+03  0.27517918340E+03  0.17294600919E+03 0.  0.
        -24    2    3    3    0    0 -0.47690272889E+02  0.28540463440E+02  0.21590878215E+03  0.23881972737E+03  0.85611563416E+02 0.  0.
          6    2    1    2  501    0  0.63959595137E+02  0.14500567751E+01  0.54781484696E+03  0.57742765975E+03  0.17096392373E+03 0.  0.
         24    2    5    5    0    0  0.99974870286E+02  0.27601193909E+02  0.33552681441E+03  0.36047310049E+03  0.81276148999E+02 0.  0.
          5    1    5    5  501    0 -0.36015275149E+02 -0.26151137134E+02  0.21228803256E+03  0.21695455926E+03  0.47000000000E+01 0. -1.
        -11    1    6    6    0    0  0.22356854300E+02  0.20445855811E+02  0.21374941618E+03  0.21588579127E+03  0.00000000000E+00 0.  1.
         12    1    6    6    0    0  0.77618015986E+02  0.71553380982E+01  0.12177739823E+03  0.14458730922E+03  0.00000000000E+00 0. -1.
         -5    1    3    3    0  503 -0.16269322248E+02 -0.29990520215E+02 -0.11653235327E+02  0.36359456030E+02  0.47000000000E+01 0.  1.
         13    1    4    4    0    0  0.17153045486E+02  0.30792357762E+02  0.99378151770E+02  0.10544388705E+03  0.00000000000E+00 0. -1.
        -14    1    4    4    0    0 -0.64843318375E+02 -0.22518943217E+01  0.11653063038E+03  0.13337584033E+03  0.00000000000E+00 0.  1.
</event>
<event>
12    1  0.1039610E+000  0.2075210E+03  0.7818608E-02  0.1145363E+00
         21   -1    0    0  503  502  0.00000000000E+00  0.00000000000E+00  0.12040907886E+03  0.12040907886E+03  0.00000000000E+00 0. -1.
         21   -1    0    0  501  503 -0.00000000000E+00 -0.00000000000E+00 -0.39503380623E+03  0.39503380623E+03  0.00000000000E+00 0. -1.
          6    2    1    2  501    0  0.81463730743E+02  0.56316063184E+02 -0.46013704778E+02  0.21256112861E+03  0.18236538589E+03 0.  0.
         24    2    3    3    0    0  0.11964171111E+03  0.43986925663E+02  0.11742527396E+01  0.15044543694E+03  0.79896570391E+02 0.  0.
         -6    2    1    2    0  502 -0.81463730743E+02 -0.56316063184E+02 -0.22861102258E+03  0.30288175648E+03  0.17223971772E+03 0.  0.
        -24    2    5    5    0    0  0.10151458070E+02 -0.30643248615E+01 -0.52625794425E+02  0.97401876718E+02  0.81272437895E+02 0.  0.
          5    1    3    3  501    0 -0.38177980367E+02  0.12329137521E+02 -0.47187957517E+02  0.62115691669E+02  0.47000000000E+01 0. -1.
        -13    1    4    4    0    0  0.10327111716E+03  0.40291181991E+02 -0.30175374421E+02  0.11488627510E+03  0.00000000000E+00 0.  1.
         14    1    4    4    0    0  0.16370593954E+02  0.36957436718E+01  0.31349627161E+02  0.35559161841E+02  0.00000000000E+00 0. -1.
         -5    1    5    5    0  502 -0.91615188813E+02 -0.53251738322E+02 -0.17598522816E+03  0.20547987976E+03  0.47000000000E+01 0.  1.
         11    1    6    6    0    0 -0.10109396621E+02  0.86049903503E+00  0.19716278106E+02  0.22173677660E+02  0.00000000000E+00 0. -1.
        -12    1    6    6    0    0  0.20260854691E+02 -0.39248238966E+01 -0.72342072531E+02  0.75228199058E+02  0.00000000000E+00 0.  1.
</event>
<event>
12    1  0.1318728E+000  0.3049412E+03  0.7818608E-02  0.1084524E+00
         21   -1    0    0  501  502  0.00000000000E+00  0.00000000000E+00  0.14396331815E+03  0.14396331815E+03  0.00000000000E+00 0.  1.
         21   -1    0    0  502  503 -0.00000000000E+00 -0.00000000000E+00 -0.14620314240E+04  0.14620314240E+04  0.00000000000E+00 0.  1.
         -6    2    1    2    0  503 -0.13797401969E+02  0.23465196134E+03 -0.42218368288E+02  0.29420904391E+03  0.17182741237E+03 0.  0.
        -24    2    3    3    0    0 -0.54141909449E+01  0.12392894762E+03  0.43370155030E+02  0.15393306836E+03  0.80166836449E+02 0.  0.
          6    2    1    2  501    0  0.13797401969E+02 -0.23465196134E+03 -0.12758497375E+04  0.13117856982E+04  0.19426078867E+03 0.  0.
         24    2    5    5    0    0 -0.56901671575E+02 -0.11984795311E+03 -0.47030237334E+03  0.49501953507E+03  0.79111855208E+02 0.  0.
          5    1    5    5  501    0  0.70699073544E+02 -0.11480400822E+03 -0.80554736420E+03  0.81676616316E+03  0.47000000000E+01 0. -1.
        -13    1    6    6    0    0 -0.27172102525E+02 -0.25665238404E+02 -0.26009301693E+03  0.26276492360E+03  0.00000000000E+00 0.  1.
         14    1    6    6    0    0 -0.29729569049E+02 -0.94182714707E+02 -0.21020935641E+03  0.23225461147E+03  0.00000000000E+00 0. -1.
         -5    1    3    3    0  503 -0.83832110243E+01  0.11072301372E+03 -0.85588523318E+02  0.14027597556E+03  0.47000000000E+01 0.  1.
         13    1    4    4    0    0 -0.13692853591E+01  0.12330896557E+03  0.13805935679E+02  0.12408698478E+03  0.00000000000E+00 0. -1.
        -14    1    4    4    0    0 -0.40449055858E+01  0.61998204362E+00  0.29564219350E+02  0.29846083574E+02  0.00000000000E+00 0.  1.
</event>
<event>
12    1  0.1039610E+000  0.2045715E+03  0.7818608E-02  0.1146500E+00
         21   -1    0    0  501  502  0.00000000000E+00  0.00000000000E+00  0.71602949030E+02  0.71602949030E+02  0.00000000000E+00 0. -1.
         21   -1    0    0  502  503 -0.00000000000E+00 -0.00000000000E+00 -0.60828149767E+03  0.60828149767E+03  0.00000000000E+00 0. -1.
         -6    2    1    2    0  503  0.10445709401E+03 -0.10685525489E+02 -0.18920206258E+03  0.27666065831E+03  0.17238977472E+03 0.  0.
        -24    2    3    3    0    0  0.40459106065E+02  0.62810630854E+02 -0.10221327619E+03  0.14594506469E+03  0.72596786884E+02 0.  0.
          6    2    1    2  501    0 -0.10445709401E+03  0.10685525489E+02 -0.34747648606E+03  0.40322378839E+03  0.17556779378E+03 0.  0.
         24    2    5    5    0    0 -0.27285088781E+02  0.56037489886E+02 -0.25486021467E+03  0.27433553140E+03  0.80134751634E+02 0.  0.
          5    1    5    5  501    0 -0.77172005229E+02 -0.45351964397E+02 -0.92616271388E+02  0.12888825700E+03  0.47000000000E+01 0. -1.
        -13    1    6    6    0    0  0.86086086638E+01 -0.17122303024E+02 -0.63963928684E+02  0.66773239974E+02  0.00000000000E+00 0.  1.
         14    1    6    6    0    0 -0.35893697445E+02  0.73159792910E+02 -0.19089628599E+03  0.20756229142E+03  0.00000000000E+00 0. -1.
         -5    1    3    3    0  503  0.63997987945E+02 -0.73496156343E+02 -0.86988786385E+02  0.13071559362E+03  0.47000000000E+01 0.  1.
         11    1    4    4    0    0  0.58447973384E+02  0.38754702385E+02 -0.88519900653E+02  0.11293301272E+03  0.00000000000E+00 0. -1.
        -12    1    4    4    0    0 -0.17988867319E+02  0.24055928469E+02 -0.13693375541E+02  0.33012051976E+02  0.00000000000E+00 0.  1.
</event>
<event>
12    1  0.1039610E+000  0.1758347E+03  0.7818608E-02  0.1172189E+00
         21   -1    0    0  501  502  0.00000000000E+00  0.00000000000E+00  0.16316689836E+03  0.16316689836E+03  0.00000000000E+00 0.  1.
         21   -1    0    0  502  503 -0.00000000000E+00 -0.00000000000E+00 -0.20174020964E+03  0.20174020964E+03  0.00000000000E+00 0.  1.
         -6    2    1    2    0  503  0.10515919400E+02  0.30819053116E+02 -0.66569343101E+02  0.18801415222E+03  0.17279307104E+03 0.  0.
        -24    2    3    3    0    0  0.21133510394E+02 -0.48952972780E+02 -0.45645508813E+02  0.10473026305E+03  0.77729638611E+02 0.  0.
          6    2    1    2  501    0 -0.10515919400E+02 -0.30819053116E+02  0.27996031829E+02  0.17689295578E+03  0.17160111133E+03 0.  0.
         24    2    5    5    0    0  0.47212675135E+02 -0.37939704816E+02 -0.19613953461E+02  0.10157964350E+03  0.79153388477E+02 0.  0.
          5    1    5    5  501    0 -0.57728594534E+02  0.71206516996E+01  0.47609985290E+02  0.75313312282E+02  0.47000000000E+01 0. -1.
        -11    1    6    6    0    0 -0.75671100136E+01  0.18933410932E+02 -0.80200696063E+00  0.20405352696E+02  0.00000000000E+00 0.  1.
         12    1    6    6    0    0  0.54779785148E+02 -0.56873115748E+02 -0.18811946501E+02  0.81174290800E+02  0.00000000000E+00 0. -1.
         -5    1    3    3    0  503 -0.10617590994E+02  0.79772025897E+02 -0.20923834287E+02  0.83283889171E+02  0.47000000000E+01 0.  1.
         11    1    4    4    0    0 -0.19705426207E+02 -0.25720876464E+02  0.80440145678E+01  0.33385228447E+02  0.00000000000E+00 0. -1.
        -12    1    4    4    0    0  0.40838936601E+02 -0.23232096317E+02 -0.53689523381E+02  0.71345034606E+02  0.00000000000E+00 0.  1.
</event>
<event>
12    1  0.1039610E+000  0.2415071E+03  0.7818608E-02  0.1118829E+00
         21   -1    0    0  503  502  0.00000000000E+00  0.00000000000E+00  0.11754566499E+03  0.11754566499E+03  0.00000000000E+00 0.  1.
         21   -1    0    0  501  503 -0.00000000000E+00 -0.00000000000E+00 -0.50291245825E+03  0.50291245825E+03  0.00000000000E+00 0.  1.
          6    2    1    2  501    0  0.13137932536E+03 -0.10568593401E+03 -0.15557174176E+03  0.28709430800E+03  0.17259933683E+03 0.  0.
         24    2    3    3    0    0  0.45483560164E+02  0.73316634118E+01 -0.96512812051E+02  0.13327263533E+03  0.79525875690E+02 0.  0.
         -6    2    1    2    0  502 -0.13137932536E+03  0.10568593401E+03 -0.22979505150E+03  0.33336381523E+03  0.17290351018E+03 0.  0.
        -24    2    5    5    0    0  0.18494894030E+00  0.37257835202E+02 -0.11981413942E+03  0.14867636574E+03  0.79756211257E+02 0.  0.
          5    1    3    3  501    0  0.85895765198E+02 -0.11301759742E+03 -0.59058929709E+02  0.15382167267E+03  0.47000000000E+01 0. -1.
        -11    1    4    4    0    0  0.34148523180E+02 -0.11262739903E+01 -0.10910907627E+03  0.11433363745E+03  0.00000000000E+00 0.  1.
         12    1    4    4    0    0  0.11335036984E+02  0.84579374020E+01  0.12596264216E+02  0.18938997881E+02  0.00000000000E+00 0. -1.
         -5    1    5    5    0  502 -0.13156427430E+03  0.68428098804E+02 -0.10998091208E+03  0.18468744950E+03  0.47000000000E+01 0.  1.
         13    1    6    6    0    0 -0.65217070879E+01 -0.14137647576E+02  0.25598343717E+01  0.15778418626E+02  0.00000000000E+00 0. -1.
        -14    1    6    6    0    0  0.67066560282E+01  0.51395482778E+02 -0.12237397379E+03  0.13289794711E+03  0.00000000000E+00 0.  1.
</event>
<event>
12    1  0.1039610E+000  0.1757482E+03  0.7818608E-02  0.1172363E+00
         21   -1    0    0  503  502  0.00000000000E+00  0.00000000000E+00  0.66524459886E+02  0.66524459886E+02  0.00000000000E+00 0. -1.
         21   -1    0    0  501  503 -0.00000000000E+00 -0.00000000000E+00 -0.50642641652E+03  0.50642641652E+03  0.00000000000E+00 0. -1.
          6    2    1    2  501    0  0.15480378711E+02 -0.32265124256E+02 -0.13436165531E+03  0.22122500005E+03  0.17206616710E+03 0.  0.
         24    2    3    3    0    0 -0.23664073190E+02 -0.70304383947E+02 -0.48218685776E+02  0.11913692733E+03  0.79786408820E+02 0.  0.
         -6    2    1    2    0  502 -0.15480378711E+02  0.32265124256E+02 -0.30554030133E+03  0.35172587636E+03  0.17051550076E+03 0.  0.
        -24    2    5    5    0    0  0.14255917679E+02 -0.44900833006E+02 -0.15987072209E+03  0.18415335893E+03  0.78323022347E+02 0.  0.
          5    1    3    3  501    0  0.39144451901E+02  0.38039259691E+02 -0.86142969529E+02  0.10208807272E+03  0.47000000000E+01 0. -1.
        -11    1    4    4    0    0 -0.25059098984E+01  0.73526963436E+01  0.14932191836E+02  0.16831876930E+02  0.00000000000E+00 0.  1.
         12    1    4    4    0    0 -0.21158163292E+02 -0.77657080291E+02 -0.63150877613E+02  0.10230505040E+03  0.00000000000E+00 0. -1.
         -5    1    5    5    0  502 -0.29736296390E+02  0.77165957262E+02 -0.14566957924E+03  0.16757251743E+03  0.47000000000E+01 0.  1.
         11    1    6    6    0    0 -0.58616232765E+01 -0.21512970878E+02 -0.10048247111E+01  0.22319861472E+02  0.00000000000E+00 0. -1.
        -12    1    6    6    0    0  0.20117540956E+02 -0.23387862128E+02 -0.15886589738E+03  0.16183349745E+03  0.00000000000E+00 0.  1.
</event>
<event>
12    1  0.1039610E+000  0.1930088E+03  0.7818608E-02  0.1156264E+00
         21   -1    0    0  501  502  0.00000000000E+00  0.00000000000E+00  0.11287848326E+03  0.11287848326E+03  0.00000000000E+00 0.  1.
         21   -1    0    0  502  503 -0.00000000000E+00 -0.00000000000E+00 -0.40918074281E+03  0.40918074281E+03  0.00000000000E+00 0. -1.
         -6    2    1    2    0  503  0.24971123642E+02  0.80805830366E+02 -0.26632706568E+03  0.32891110049E+03  0.17349140288E+03 0.  0.
        -24    2    3    3    0    0 -0.13346854368E+02  0.60464504936E+02 -0.65421692004E+02  0.12332147008E+03  0.84226434803E+02 0.  0.
          6    2    1    2  501    0 -0.24971123642E+02 -0.80805830366E+02 -0.29975193864E+02  0.19314812557E+03  0.17103960631E+03 0.  0.
         24    2    5    5    0    0 -0.46731734955E+02 -0.45471000176E+02  0.40152933449E+02  0.11152632291E+03  0.81082647519E+02 0.  0.
          5    1    5    5  501    0  0.21760611313E+02 -0.35334830189E+02 -0.70128127313E+02  0.81621802661E+02  0.47000000000E+01 0. -1.
        -13    1    6    6    0    0 -0.65163272114E+00  0.19846205893E+02 -0.39283536526E+01  0.20241750813E+02  0.00000000000E+00 0.  1.
         14    1    6    6    0    0 -0.46080102234E+02 -0.65317206070E+02  0.44081287102E+02  0.91284572098E+02  0.00000000000E+00 0. -1.
         -5    1    3    3    0  503  0.38317978010E+02  0.20341325429E+02 -0.20090537368E+03  0.20558963041E+03  0.47000000000E+01 0.  1.
         11    1    4    4    0    0 -0.27770950940E+02  0.27521416226E+02 -0.76313168621E+02  0.85745867377E+02  0.00000000000E+00 0. -1.
        -12    1    4    4    0    0  0.14424096572E+02  0.32943088710E+02  0.10891476617E+02  0.37575602704E+02  0.00000000000E+00 0.  1.
</event>
<event>
12    1  0.1039610E+000  0.3602240E+03  0.7818608E-02  0.1058673E+00
         21   -1    0    0  503  502  0.00000000000E+00  0.00000000000E+00  0.95575804397E+03  0.95575804397E+03  0.00000000000E+00 0.  1.
         21   -1    0    0  501  503 -0.00000000000E+00 -0.00000000000E+00 -0.13599954655E+03  0.13599954655E+03  0.00000000000E+00 0. -1.
          6    2    1    2  501    0  0.20837076142E+03 -0.23828746955E+03  0.45542326855E+03  0.58066486867E+03  0.17193616199E+03 0.  0.
         24    2    3    3    0    0  0.77069812597E+02 -0.15791354365E+03  0.32888338474E+03  0.38133012678E+03  0.79824442058E+02 0.  0.
         -6    2    1    2    0  502 -0.20837076142E+03  0.23828746955E+03  0.36433522886E+03  0.51109272185E+03  0.16815563917E+03 0.  0.
        -24    2    5    5    0    0 -0.18613829662E+03  0.14581197572E+03  0.19449129518E+03  0.31637484579E+03  0.79734443096E+02 0.  0.
          5    1    3    3  501    0  0.13130094882E+03 -0.80373925903E+02  0.12653988381E+03  0.19933474189E+03  0.47000000000E+01 0. -1.
        -13    1    4    4    0    0  0.10105203373E+02 -0.42314954758E+02  0.16102643503E+03  0.16679983007E+03  0.00000000000E+00 0.  1.
         14    1    4    4    0    0  0.66964609224E+02 -0.11559858889E+03  0.16785694971E+03  0.21453029671E+03  0.00000000000E+00 0. -1.
         -5    1    5    5    0  502 -0.22232464798E+02  0.92475493827E+02  0.16984393368E+03  0.19471787606E+03  0.47000000000E+01 0.  1.
         13    1    6    6    0    0 -0.10165087305E+03  0.12707310713E+03  0.13382143075E+03  0.21068614068E+03  0.00000000000E+00 0. -1.
        -14    1    6    6    0    0 -0.84487423570E+02  0.18738868592E+02  0.60669864431E+02  0.10568870511E+03  0.00000000000E+00 0.  1.
</event>
<event>
12    1  0.1039610E+000  0.2596928E+03  0.7818608E-02  0.1107519E+00
         21   -1    0    0  503  502  0.00000000000E+00  0.00000000000E+00  0.45655481211E+03  0.45655481211E+03  0.00000000000E+00 0. -1.
         21   -1    0    0  501  503 -0.00000000000E+00 -0.00000000000E+00 -0.37483958062E+03  0.37483958062E+03  0.00000000000E+00 0. -1.
          6    2    1    2  501    0 -0.96415874828E+02 -0.16635799214E+03  0.36499179462E+03  0.44795014903E+03  0.17455464305E+03 0.  0.
         24    2    3    3    0    0  0.18187541768E+02 -0.57221068923E+02  0.12273174002E+03  0.15854241735E+03  0.80421270110E+02 0.  0.
         -6    2    1    2    0  502  0.96415874828E+02  0.16635799214E+03 -0.28327656313E+03  0.38344424370E+03  0.17266405053E+03 0.  0.
        -24    2    5    5    0    0  0.73456411926E+02  0.15852917612E+03 -0.14123139578E+03  0.23926606622E+03  0.82307953167E+02 0.  0.
          5    1    3    3  501    0 -0.11460341660E+03 -0.10913692321E+03  0.24226005459E+03  0.28940773168E+03  0.47000000000E+01 0. -1.
        -11    1    4    4    0    0 -0.14172479612E+02 -0.59966459464E+02  0.10445845641E+03  0.12127821138E+03  0.00000000000E+00 0.  1.
         12    1    4    4    0    0  0.32360021380E+02  0.27453905408E+01  0.18273283614E+02  0.37264205976E+02  0.00000000000E+00 0. -1.
         -5    1    5    5    0  502  0.22959462901E+02  0.78288160187E+01 -0.14204516735E+03  0.14417817749E+03  0.47000000000E+01 0.  1.
         11    1    6    6    0    0  0.87660548476E+02  0.11363308634E+03 -0.12213769043E+03  0.18845282034E+03  0.00000000000E+00 0. -1.
        -12    1    6    6    0    0 -0.14204136550E+02  0.44896089774E+02 -0.19093705347E+02  0.50813245871E+02  0.00000000000E+00 0.  1.
</event>
<event>
12    1  0.1039610E+000  0.1863681E+03  0.7818608E-02  0.1161943E+00
         21   -1    0    0  503  502  0.00000000000E+00  0.00000000000E+00  0.21641069494E+03  0.21641069494E+03  0.00000000000E+00 0. -1.
         21   -1    0    0  501  503 -0.00000000000E+00 -0.00000000000E+00 -0.16063022924E+03  0.16063022924E+03  0.00000000000E+00 0. -1.
          6    2    1    2  501    0 -0.23536626824E+02 -0.66278836762E+02  0.14985310963E+02  0.18626014168E+03  0.17181799624E+03 0.  0.
         24    2    3    3    0    0 -0.20010985572E+02 -0.88381624224E+02  0.60879936452E+02  0.13498275867E+03  0.79386569596E+02 0.  0.
         -6    2    1    2    0  502  0.23536626824E+02  0.66278836762E+02  0.40795154732E+02  0.19078078250E+03  0.17258680516E+03 0.  0.
        -24    2    5    5    0    0  0.60667142204E+02  0.81297245719E+02 -0.55605837037E+01  0.12933835200E+03  0.80048390996E+02 0.  0.
          5    1    3    3  501    0 -0.35256412514E+01  0.22102787461E+02 -0.45894625488E+02  0.51277383012E+02  0.47000000000E+01 0. -1.
        -11    1    4    4    0    0  0.33525624875E+01 -0.33179703541E+00 -0.15648481065E+02  0.16007021089E+02  0.00000000000E+00 0.  1.
         12    1    4    4    0    0 -0.23363548060E+02 -0.88049827188E+02  0.76528417516E+02  0.11897573758E+03  0.00000000000E+00 0. -1.
         -5    1    5    5    0  502 -0.37130515381E+02 -0.15018408957E+02  0.46355738436E+02  0.61442430502E+02  0.47000000000E+01 0.  1.
         13    1    6    6    0    0  0.57678514825E+02  0.17547801492E+02  0.15293115791E+02  0.62198197724E+02  0.00000000000E+00 0. -1.
        -14    1    6    6    0    0  0.29886273797E+01  0.63749444227E+02 -0.20853699495E+02  0.67140154271E+02  0.00000000000E+00 0.  1.
</event>
<event>
12    1  0.1039610E+000  0.2194394E+03  0.7818608E-02  0.1134393E+00
         21   -1    0    0  501  502  0.00000000000E+00  0.00000000000E+00  0.10099119646E+03  0.10099119646E+03  0.00000000000E+00 0.  1.
         21   -1    0    0  502  503 -0.00000000000E+00 -0.00000000000E+00 -0.56941792793E+03  0.56941792793E+03  0.00000000000E+00 0.  1.
         -6    2    1    2    0  503 -0.77796889504E+02  0.10919007964E+03 -0.37038697099E+03  0.43051150361E+03  0.17372051392E+03 0.  0.
        -24    2    3    3    0    0 -0.11591443535E+03  0.10443812142E+03 -0.33525137161E+03  0.37824173460E+03  0.79560355096E+02 0.  0.
          6    2    1    2  501    0  0.77796889504E+02 -0.10919007964E+03 -0.98039760482E+02  0.23989762078E+03  0.17310183221E+03 0.  0.
         24    2    5    5    0    0  0.29859474526E+02 -0.12940739696E+03 -0.23545113137E+02  0.14891257719E+03  0.63108800393E+02 0.  0.
          5    1    5    5  501    0  0.47937414977E+02  0.20217317323E+02 -0.74494647345E+02  0.90985043592E+02  0.47000000000E+01 0. -1.
        -13    1    6    6    0    0  0.45214283265E+02 -0.84686643898E+02  0.20177735139E+00  0.96001040515E+02  0.00000000000E+00 0.  1.
         14    1    6    6    0    0 -0.15354808739E+02 -0.44720753060E+02 -0.23746890489E+02  0.52911536677E+02  0.00000000000E+00 0. -1.
         -5    1    3    3    0  503  0.38117545846E+02  0.47519582181E+01 -0.35135599382E+02  0.52269769008E+02  0.47000000000E+01 0.  1.
         11    1    4    4    0    0 -0.32106393981E+02  0.29605753391E+02 -0.30039592905E+02  0.53006587422E+02  0.00000000000E+00 0. -1.
        -12    1    4    4    0    0 -0.83808041368E+02  0.74832368027E+02 -0.30521177870E+03  0.32523514718E+03  0.00000000000E+00 0.  1.
</event>
<event>
12    1  0.1039610E+000  0.5527135E+03  0.7818608E-02  0.1000894E+00
         21   -1    0    0  503  502  0.00000000000E+00  0.00000000000E+00  0.34519997281E+03  0.34519997281E+03  0.00000000000E+00 0. -1.
         21   -1    0    0  501  503 -0.00000000000E+00 -0.00000000000E+00 -0.11613847469E+04  0.11613847469E+04  0.00000000000E+00 0. -1.
          6    2    1    2  501    0 -0.52626435347E+02 -0.52262068493E+03 -0.39985397066E+02  0.55370607721E+03  0.17055692874E+03 0.  0.
         24    2    3    3    0    0 -0.64683566582E+02 -0.43719311695E+03 -0.82352124968E+02  0.45747576276E+03  0.84737333767E+02 0.  0.
         -6    2    1    2    0  502  0.52626435347E+02  0.52262068493E+03 -0.77619937700E+03  0.95287864247E+03  0.17201834908E+03 0.  0.
        -24    2    5    5    0    0 -0.19324173302E+02  0.18977819367E+03 -0.24473235035E+03  0.32165736234E+03  0.84736939867E+02 0.  0.
          5    1    3    3  501    0  0.12057131235E+02 -0.85427567980E+02  0.42366727901E+02  0.96230314443E+02  0.47000000000E+01 0. -1.
        -13    1    4    4    0    0 -0.27007660693E+02 -0.35832896741E+03 -0.43997127070E+02  0.36202874170E+03  0.00000000000E+00 0.  1.
         14    1    4    4    0    0 -0.37675905889E+02 -0.78864149537E+02 -0.38354997898E+02  0.95447021067E+02  0.00000000000E+00 0. -1.
         -5    1    5    5    0  502  0.71950608649E+02  0.33284249126E+03 -0.53146702665E+03  0.63122128013E+03  0.47000000000E+01 0.  1.
         13    1    6    6    0    0  0.34069925395E+01  0.11188854889E+03 -0.78630182678E+02  0.13679678578E+03  0.00000000000E+00 0. -1.
        -14    1    6    6    0    0 -0.22731165841E+02  0.77889644775E+02 -0.16610216767E+03  0.18486057657E+03  0.00000000000E+00 0.  1.
</event>
<event>
12    1  0.1039610E+000  0.1981273E+03  0.7818608E-02  0.1151622E+00
         21   -1    0    0  501  502  0.00000000000E+00  0.00000000000E+00  0.11193311043E+03  0.11193311043E+03  0.00000000000E+00 0.  1.
         21   -1    0    0  502  503 -0.00000000000E+00 -0.00000000000E+00 -0.44595118765E+03  0.44595118765E+03  0.00000000000E+00 0.  1.
         -6    2    1    2    0  503  0.75576995462E+02  0.59684407552E+02 -0.29710333571E+03  0.35634735790E+03  0.17157778599E+03 0.  0.
        -24    2    3    3    0    0  0.34728246264E+02  0.93265998912E+02 -0.13519246446E+03  0.18595497597E+03  0.79985329910E+02 0.  0.
          6    2    1    2  501    0 -0.75576995462E+02 -0.59684407552E+02 -0.36914741512E+02  0.20153694017E+03  0.17314828722E+03 0.  0.
         24    2    5    5    0    0 -0.22164372856E+01 -0.70233949372E+02  0.19526371918E+02  0.10825910994E+03  0.80006471272E+02 0.  0.
          5    1    5    5  501    0 -0.73360558176E+02  0.10549541819E+02 -0.56441113430E+02  0.93277830237E+02  0.47000000000E+01 0. -1.
        -11    1    6    6    0    0 -0.65265005966E+01 -0.27001080315E+02  0.48602074981E+02  0.55980489822E+02  0.00000000000E+00 0.  1.
         12    1    6    6    0    0  0.43100633109E+01 -0.43232869056E+02 -0.29075703062E+02  0.52278620115E+02  0.00000000000E+00 0. -1.
         -5    1    3    3    0  503  0.40848749198E+02 -0.33581591360E+02 -0.16191087126E+03  0.17039238193E+03  0.47000000000E+01 0.  1.
         11    1    4    4    0    0  0.29801284383E+02 -0.17127950479E+01 -0.50203015474E+02  0.58407131246E+02  0.00000000000E+00 0. -1.
        -12    1    4    4    0    0  0.49269618807E+01  0.94978793960E+02 -0.84989448982E+02  0.12754784472E+03  0.00000000000E+00 0.  1.
</event>
<event>
12    1  0.1039610E+000  0.2927304E+03  0.7818608E-02  0.1089121E+00
         21   -1    0    0  501  502  0.00000000000E+00  0.00000000000E+00  0.21572667629E+03  0.21572667629E+03  0.00000000000E+00 0. -1.
         21   -1    0    0  502  503 -0.00000000000E+00 -0.00000000000E+00 -0.45494499640E+03  0.45494499640E+03  0.00000000000E+00 0. -1.
         -6    2    1    2    0  503 -0.19696115912E+03 -0.12856065665E+03  0.21305101080E+01  0.29127699396E+03  0.17180281573E+03 0.  0.
        -24    2    3    3    0    0 -0.12086272961E+03 -0.13844025826E+03  0.41843910483E+02  0.20474479375E+03  0.79975078664E+02 0.  0.
          6    2    1    2  501    0  0.19696115912E+03  0.12856065665E+03 -0.24134883022E+03  0.37939467874E+03  0.17426853923E+03 0.  0.
         24    2    5    5    0    0  0.12107171908E+03  0.15478395642E+03 -0.18290821563E+03  0.27997504287E+03  0.79461783045E+02 0.  0.
          5    1    5    5  501    0  0.75889440044E+02 -0.26223299770E+02 -0.58440614595E+02  0.99419635864E+02  0.47000000000E+01 0. -1.
        -11    1    6    6    0    0  0.68969966213E+02  0.11750315735E+03 -0.16392565397E+03  0.21315597166E+03  0.00000000000E+00 0.  1.
         12    1    6    6    0    0  0.52101752865E+02  0.37280799065E+02 -0.18982561660E+02  0.66819071213E+02  0.00000000000E+00 0. -1.
         -5    1    3    3    0  503 -0.76098429516E+02  0.98796016171E+01 -0.39713400375E+02  0.86532200204E+02  0.47000000000E+01 0.  1.
         11    1    4    4    0    0 -0.17041979038E+00  0.10899936747E+01 -0.12399904192E+02  0.12448885616E+02  0.00000000000E+00 0. -1.
        -12    1    4    4    0    0 -0.12069230982E+03 -0.13953025194E+03  0.54243814675E+02  0.19229590813E+03  0.00000000000E+00 0.  1.
</event>
<event>
12    1  0.1039610E+000  0.1837630E+03  0.7818608E-02  0.1164842E+00
         21   -1    0    0  501  502  0.00000000000E+00  0.00000000000E+00  0.57210221820E+02  0.57210221820E+02  0.00000000000E+00 0. -1.
         21   -1    0    0  502  503 -0.00000000000E+00 -0.00000000000E+00 -0.64123335419E+03  0.64123335419E+03  0.00000000000E+00 0. -1.
         -6    2    1    2    0  503 -0.52258165499E+02 -0.73153993125E+00 -0.18370779742E+03  0.25796518096E+03  0.17339558456E+03 0.  0.
        -24    2    3    3    0    0 -0.64067757464E+02 -0.27806856651E+02 -0.19898976254E+03  0.22437697327E+03  0.76617241646E+02 0.  0.
          6    2    1    2  501    0  0.52258165499E+02  0.73153993125E+00 -0.40031533495E+03  0.44047839504E+03  0.17617434005E+03 0.  0.
         24    2    5    5    0    0  0.53892319022E+02 -0.63409609252E+02 -0.17035825401E+03  0.20169165640E+03  0.68792651920E+02 0.  0.
          5    1    5    5  501    0 -0.16341535231E+01  0.64141149183E+02 -0.22995708094E+03  0.23878673864E+03  0.47000000000E+01 0. -1.
        -11    1    6    6    0    0  0.14120278993E+02  0.18309093115E+01 -0.88796912340E+02  0.89931230109E+02  0.00000000000E+00 0.  1.
         12    1    6    6    0    0  0.39772040029E+02 -0.65240518563E+02 -0.81561341672E+02  0.11176042630E+03  0.00000000000E+00 0. -1.
         -5    1    3    3    0  503  0.11809591964E+02  0.27075316720E+02  0.15281965120E+02  0.33588207689E+02  0.47000000000E+01 0.  1.
         11    1    4    4    0    0 -0.37467910952E+02  0.22404190113E+02 -0.59831093424E+02  0.74064511246E+02  0.00000000000E+00 0. -1.
        -12    1    4    4    0    0 -0.26599846512E+02 -0.50211046764E+02 -0.13915866911E+03  0.15031246203E+03  0.00000000000E+00 0.  1.
</event>
<event>
12    1  0.1039610E+000  0.1975378E+03  0.7818608E-02  0.1151936E+00
         21   -1    0    0  501  502  0.00000000000E+00  0.00000000000E+00  0.18588268947E+03  0.18588268947E+03  0.00000000000E+00 0. -1.
         21   -1    0    0  502  503 -0.00000000000E+00 -0.00000000000E+00 -0.23971302508E+03  0.23971302508E+03  0.00000000000E+00 0. -1.
         -6    2    1    2    0  503 -0.66767632918E+02  0.70743835051E+02  0.48765398614E+02  0.20300399753E+03  0.17137663758E+03 0.  0.
        -24    2    3    3    0    0  0.28282316065E+01 -0.18262692586E+02  0.32494771886E+02  0.88756154597E+02  0.80499813319E+02 0.  0.
          6    2    1    2  501    0  0.66767632918E+02 -0.70743835051E+02 -0.10259573423E+03  0.22259171701E+03  0.17192609109E+03 0.  0.
         24    2    5    5    0    0  0.10076287462E+03 -0.44228631934E+02 -0.11435157624E+03  0.17765818526E+03  0.79854987425E+02 0.  0.
          5    1    5    5  501    0 -0.33995241698E+02 -0.26515203117E+02  0.11755842019E+02  0.44933531755E+02  0.47000000000E+01 0. -1.
        -13    1    6    6    0    0  0.70867182679E+02  0.10764277440E+02 -0.47018363835E+02  0.85724872630E+02  0.00000000000E+00 0.  1.
         14    1    6    6    0    0  0.29895691937E+02 -0.54992909374E+02 -0.67333212409E+02  0.91933312630E+02  0.00000000000E+00 0. -1.
         -5    1    3    3    0  503 -0.69595864525E+02  0.89006527638E+02  0.16270626728E+02  0.11424784293E+03  0.47000000000E+01 0.  1.
         13    1    4    4    0    0  0.28923559128E+02  0.13483268389E+02  0.35274670106E+02  0.47567564055E+02  0.00000000000E+00 0. -1.
        -14    1    4    4    0    0 -0.26095327521E+02 -0.31745960975E+02 -0.27798982203E+01  0.41188590542E+02  0.00000000000E+00 0.  1.
</event>
<event>
12    1  0.1039610E+000  0.1779538E+03  0.7818608E-02  0.1169992E+00
         21   -1    0    0  503  502  0.00000000000E+00  0.00000000000E+00  0.17313849954E+03  0.17313849954E+03  0.00000000000E+00 0.  1.
         21   -1    0    0  501  503 -0.00000000000E+00 -0.00000000000E+00 -0.21694367174E+03  0.21694367174E+03  0.00000000000E+00 0.  1.
          6    2    1    2  501    0  0.42227665710E+02  0.49364602326E+01  0.56306994215E+02  0.18590091064E+03  0.17199164685E+03 0.  0.
         24    2    3    3    0    0  0.68464754423E+02  0.63273999798E+00  0.93231880166E+02  0.14015767032E+03  0.79146485156E+02 0.  0.
         -6    2    1    2    0  502 -0.42227665710E+02 -0.49364602326E+01 -0.10011216641E+03  0.20418126064E+03  0.17280045412E+03 0.  0.
        -24    2    5    5    0    0  0.70097414236E+01 -0.91071601760E+01  0.11139075910E+02  0.82359070885E+02  0.80788988752E+02 0.  0.
          5    1    3    3  501    0 -0.26237088713E+02  0.43037202346E+01 -0.36924885951E+02  0.45743240314E+02  0.47000000000E+01 0. -1.
        -11    1    4    4    0    0  0.45684682882E+02 -0.38131286551E+02  0.57182862849E+02  0.82528571221E+02  0.00000000000E+00 0.  1.
         12    1    4    4    0    0  0.22780071540E+02  0.38764026549E+02  0.36049017317E+02  0.57629099101E+02  0.00000000000E+00 0. -1.
         -5    1    5    5    0  502 -0.49237407134E+02  0.41706999434E+01 -0.11125124232E+03  0.12182218976E+03  0.47000000000E+01 0.  1.
         13    1    6    6    0    0 -0.36398638133E+02 -0.72552058557E+01 -0.13902438024E+01  0.37140700691E+02  0.00000000000E+00 0. -1.
        -14    1    6    6    0    0  0.43408379557E+02 -0.18519543203E+01  0.12529319713E+02  0.45218370194E+02  0.00000000000E+00 0.  1.
</event>
<event>
12    1  0.1039610E+000  0.2014948E+03  0.7818608E-02  0.1148669E+00
         21   -1    0    0  503  502  0.00000000000E+00  0.00000000000E+00  0.16159958176E+03  0.16159958176E+03  0.00000000000E+00 0. -1.
         21   -1    0    0  501  503 -0.00000000000E+00 -0.00000000000E+00 -0.28016786892E+03  0.28016786892E+03  0.00000000000E+00 0. -1.
          6    2    1    2  501    0  0.97052228543E+02 -0.38305375839E+02  0.12914238317E+02  0.20190820437E+03  0.17237664736E+03 0.  0.
         24    2    3    3    0    0  0.84212942417E+02 -0.22106030276E+02  0.72805244371E+02  0.13837641177E+03  0.79163953165E+02 0.  0.
         -6    2    1    2    0  502 -0.97052228543E+02  0.38305375839E+02 -0.13148252548E+03  0.23985924631E+03  0.17134283367E+03 0.  0.
        -24    2    5    5    0    0 -0.97615130232E+02  0.78512645776E+02 -0.13287794412E+03  0.19935025215E+03  0.79943891593E+02 0.  0.
          5    1    3    3  501    0  0.12839286127E+02 -0.16199345563E+02 -0.59891006054E+02  0.63531792601E+02  0.47000000000E+01 0. -1.
        -11    1    4    4    0    0  0.25498658971E+02  0.89140122383E+01 -0.12917863291E+02  0.29941817171E+02  0.00000000000E+00 0.  1.
         12    1    4    4    0    0  0.58714283445E+02 -0.31020042514E+02  0.85723107662E+02  0.10843459460E+03  0.00000000000E+00 0. -1.
         -5    1    5    5    0  502  0.56290168905E+00 -0.40207269937E+02  0.13954186438E+01  0.40508994153E+02  0.47000000000E+01 0.  1.
         11    1    6    6    0    0 -0.20147943592E+02  0.59475924845E+02 -0.31216049716E+02  0.70126792505E+02  0.00000000000E+00 0. -1.
        -12    1    6    6    0    0 -0.77467186641E+02  0.19036720931E+02 -0.10166189440E+03  0.12922345965E+03  0.00000000000E+00 0.  1.
</event>
<event>
12    1  0.1039610E+000  0.1767312E+03  0.7818608E-02  0.1171592E+00
         21   -1    0    0  501  502  0.00000000000E+00  0.00000000000E+00  0.78089836905E+02  0.78089836905E+02  0.00000000000E+00 0.  1.
         21   -1    0    0  502  503 -0.00000000000E+00 -0.00000000000E+00 -0.47058795663E+03  0.47058795663E+03  0.00000000000E+00 0.  1.
         -6    2    1    2    0  503  0.41725574238E+02  0.63580088379E+01 -0.84953240562E+02  0.19396976553E+03  0.16919151585E+03 0.  0.
        -24    2    3    3    0    0  0.24080242138E+02 -0.50928304230E+02 -0.90150278730E+02  0.13361930062E+03  0.80953656554E+02 0.  0.
          6    2    1    2  501    0 -0.41725574238E+02 -0.63580088379E+01 -0.30754487916E+03  0.35470802800E+03  0.17161726197E+03 0.  0.
         24    2    5    5    0    0 -0.85970439909E+02 -0.24351636544E+02 -0.17288702100E+03  0.21175276387E+03  0.83458925454E+02 0.  0.
          5    1    5    5  501    0  0.44244865671E+02  0.17993627706E+02 -0.13465785816E+03  0.14295526413E+03  0.47000000000E+01 0. -1.
        -11    1    6    6    0    0 -0.20406594499E+02  0.19253152759E+02 -0.10205679454E+03  0.10584281885E+03  0.00000000000E+00 0.  1.
         12    1    6    6    0    0 -0.65563845410E+02 -0.43604789303E+02 -0.70830226460E+02  0.10590994503E+03  0.00000000000E+00 0. -1.
         -5    1    3    3    0  503  0.17645332100E+02  0.57286313068E+02  0.51970381677E+01  0.60350464916E+02  0.47000000000E+01 0.  1.
         13    1    4    4    0    0  0.43542574026E+02 -0.22862659970E+00 -0.48507304533E+02  0.65184097876E+02  0.00000000000E+00 0. -1.
        -14    1    4    4    0    0 -0.19462331888E+02 -0.50699677630E+02 -0.41642974198E+02  0.68435202742E+02  0.00000000000E+00 0.  1.
</event>
<event>
12    1  0.1039610E+000  0.1818080E+03  0.7818608E-02  0.1166275E+00
         21   -1    0    0  503  502  0.00000000000E+00  0.00000000000E+00  0.93462568547E+02  0.93462568547E+02  0.00000000000E+00 0. -1.
         21   -1    0    0  501  503 -0.00000000000E+00 -0.00000000000E+00 -0.39445670108E+03  0.39445670108E+03  0.00000000000E+00 0. -1.
          6    2    1    2  501    0 -0.41058860531E+02  0.41360860181E+02 -0.70092221466E+02  0.19403179417E+03  0.17128592135E+03 0.  0.
         24    2    3    3    0    0 -0.52980086665E+02  0.14323969691E+02 -0.11052956606E+03  0.14372893224E+03  0.73682801922E+02 0.  0.
         -6    2    1    2    0  502  0.41058860531E+02 -0.41360860181E+02 -0.23090191107E+03  0.29388747546E+03  0.17221383486E+03 0.  0.
        -24    2    5    5    0    0  0.75484760219E+02  0.16244471880E+02 -0.16392101151E+03  0.19895566964E+03  0.82167077196E+02 0.  0.
          5    1    3    3  501    0  0.11921226134E+02  0.27036890490E+02  0.40437344594E+02  0.50302861924E+02  0.47000000000E+01 0. -1.
        -11    1    4    4    0    0 -0.36700855350E+02  0.22237198402E+02 -0.11690997189E+03  0.12453669059E+03  0.00000000000E+00 0.  1.
         12    1    4    4    0    0 -0.16279231315E+02 -0.79132287112E+01  0.63804058330E+01  0.19192241647E+02  0.00000000000E+00 0. -1.
         -5    1    5    5    0  502 -0.34425899688E+02 -0.57605332061E+02 -0.66980899553E+02  0.94931805819E+02  0.47000000000E+01 0.  1.
         11    1    6    6    0    0  0.82752271207E+02  0.20100467668E+01 -0.85816680909E+02  0.11923288724E+03  0.00000000000E+00 0. -1.
        -12    1    6    6    0    0 -0.72675109881E+01  0.14234425113E+02 -0.78104330606E+02  0.79722782400E+02  0.00000000000E+00 0.  1.
</event>
<event>
12    1  0.1039610E+000  0.2123370E+03  0.7818608E-02  0.1139998E+00
         21   -1    0    0  503  502  0.00000000000E+00  0.00000000000E+00  0.21066566019E+03  0.21066566019E+03  0.00000000000E+00 0.  1.
         21   -1    0    0  501  503 -0.00000000000E+00 -0.00000000000E+00 -0.21272819290E+03  0.21272819290E+03  0.00000000000E+00 0.  1.
          6    2    1    2  501    0  0.11979250354E+03  0.13847565902E+02  0.32873860780E+01  0.21236240575E+03  0.17477123757E+03 0.  0.
         24    2    3    3    0    0  0.85177786416E+02  0.68169382388E+02  0.33620974325E+02  0.14100937523E+03  0.82770489878E+02 0.  0.
         -6    2    1    2    0  502 -0.11979250354E+03 -0.13847565902E+02 -0.53499187951E+01  0.21103144734E+03  0.17310011886E+03 0.  0.
        -24    2    5    5    0    0 -0.10033772538E+03  0.51081809951E+02 -0.23274756402E+02  0.14076266305E+03  0.81212083966E+02 0.  0.
          5    1    3    3  501    0  0.34614717128E+02 -0.54321816486E+02 -0.30333588247E+02  0.71353030518E+02  0.47000000000E+01 0. -1.
        -11    1    4    4    0    0  0.58474323589E+02 -0.42226517500E+01  0.54974589564E+01  0.58883778428E+02  0.00000000000E+00 0.  1.
         12    1    4    4    0    0  0.26703462827E+02  0.72392034138E+02  0.28123515369E+02  0.82125596803E+02  0.00000000000E+00 0. -1.
         -5    1    5    5    0  502 -0.19454778170E+02 -0.64929375853E+02  0.17924837607E+02  0.70268784289E+02  0.47000000000E+01 0.  1.
         11    1    6    6    0    0 -0.29041279726E+02  0.60125611427E+02 -0.14845294347E+02  0.68402250269E+02  0.00000000000E+00 0. -1.
        -12    1    6    6    0    0 -0.71296445649E+02 -0.90438014763E+01 -0.84294620556E+01  0.72360412781E+02  0.00000000000E+00 0.  1.
</event>
<event>
12    1  0.1039610E+000  0.2401382E+03  0.7818608E-02  0.1119967E+00
         21   -1    0    0  501  502  0.00000000000E+00  0.00000000000E+00  0.18786612851E+03  0.18786612851E+03  0.00000000000E+00 0.  1.
         21   -1    0    0  502  503 -0.00000000000E+00 -0.00000000000E+00 -0.34773599113E+03  0.34773599113E+03  0.00000000000E+00 0. -1.
         -6    2    1    2    0  503 -0.16125504510E+03 -0.33030332021E+02 -0.17414137033E+03  0.29663370623E+03  0.17484892452E+03 0.  0.
        -24    2    3    3    0    0 -0.94236440257E+01 -0.34142336809E+02 -0.62375681596E+02  0.10803977715E+03  0.80792100867E+02 0.  0.
          6    2    1    2  501    0  0.16125504510E+03  0.33030332021E+02  0.14271507717E+02  0.23896841341E+03  0.17265003410E+03 0.  0.
         24    2    5    5    0    0  0.18855013038E+03  0.36066885365E+02  0.24136762890E+02  0.20941074781E+03  0.80114331361E+02 0.  0.
          5    1    5    5  501    0 -0.27295085279E+02 -0.30365533433E+01 -0.98652551730E+01  0.29557665609E+02  0.47000000000E+01 0. -1.
        -13    1    6    6    0    0  0.77718062175E+01  0.16987329746E+02  0.20300790396E+02  0.27587903771E+02  0.00000000000E+00 0.  1.
         14    1    6    6    0    0  0.18077832416E+03  0.19079555619E+02  0.38359724940E+01  0.18182284404E+03  0.00000000000E+00 0. -1.
         -5    1    3    3    0  503 -0.15183140107E+03  0.11120047872E+01 -0.11176568873E+03  0.18859392908E+03  0.47000000000E+01 0.  1.
         11    1    4    4    0    0  0.37803000688E+00 -0.43479687429E+02  0.74102670258E+00  0.43487644753E+02  0.00000000000E+00 0. -1.
        -12    1    4    4    0    0 -0.98016740325E+01  0.93373506207E+01 -0.63116708299E+02  0.64552132397E+02  0.00000000000E+00 0.  1.
</event>
<event>
12    1  0.1039610E+000  0.4447243E+03  0.7818608E-02  0.1029347E+00
         21   -1    0    0  501  502  0.00000000000E+00  0.00000000000E+00  0.10702545691E+04  0.10702545691E+04  0.00000000000E+00 0.  1.
         21   -1    0    0  502  503 -0.00000000000E+00 -0.00000000000E+00 -0.43624198167E+03  0.43624198167E+03  0.00000000000E+00 0.  1.
         -6    2    1    2    0  503 -0.26426976244E+02 -0.40908289305E+03  0.88904345107E+03  0.99383636273E+03  0.17107091956E+03 0.  0.
        -24    2    3    3    0    0  0.27079831256E+02 -0.21274069830E+03  0.58277659732E+03  0.62609363799E+03  0.79829563278E+02 0.  0.
          6    2    1    2  501    0  0.26426976244E+02  0.40908289305E+03 -0.25503086365E+03  0.51266018803E+03  0.17243122838E+03 0.  0.
         24    2    5    5    0    0  0.40359855213E+02  0.34167395023E+03 -0.14279378509E+03  0.38091292054E+03  0.79590086040E+02 0.  0.
          5    1    5    5  501    0 -0.13932878970E+02  0.67408942824E+02 -0.11223707856E+03  0.13174726749E+03  0.47000000000E+01 0. -1.
        -13    1    6    6    0    0  0.49788624083E+02  0.19869138637E+03 -0.52191246648E+02  0.21137904421E+03  0.00000000000E+00 0.  1.
         14    1    6    6    0    0 -0.94287688693E+01  0.14298256386E+03 -0.90602538445E+02  0.16953387633E+03  0.00000000000E+00 0. -1.
         -5    1    3    3    0  503 -0.53506807500E+02 -0.19634219475E+03  0.30626685375E+03  0.36774272473E+03  0.47000000000E+01 0.  1.
         11    1    4    4    0    0  0.66199221666E+00 -0.12527271798E+03  0.43195240222E+03  0.44975167580E+03  0.00000000000E+00 0. -1.
        -12    1    4    4    0    0  0.26417839040E+02 -0.87467980317E+02  0.15082419511E+03  0.17634196219E+03  0.00000000000E+00 0.  1.
</event>
<event>
12    1  0.1039610E+000  0.1912473E+03  0.7818608E-02  0.1158190E+00
         21   -1    0    0  503  502  0.00000000000E+00  0.00000000000E+00  0.25761899608E+03  0.25761899608E+03  0.00000000000E+00 0. -1.
         21   -1    0    0  501  503 -0.00000000000E+00 -0.00000000000E+00 -0.14647692520E+03  0.14647692520E+03  0.00000000000E+00 0.  1.
          6    2    1    2  501    0 -0.79128219758E+02 -0.58553717390E+01  0.10011000566E+02  0.18775590086E+03  0.16987200368E+03 0.  0.
         24    2    3    3    0    0  0.21267867490E+02 -0.15564167944E+02 -0.66939749117E+01  0.85409522005E+02  0.80965496587E+02 0.  0.
         -6    2    1    2    0  502  0.79128219758E+02  0.58553717390E+01  0.10113107031E+03  0.21634002043E+03  0.17401135169E+03 0.  0.
        -24    2    5    5    0    0  0.38253730033E+02 -0.49247607961E+02  0.85297579846E+01  0.10099638026E+03  0.78986310862E+02 0.  0.
          5    1    3    3  501    0 -0.10039608725E+03  0.97087962054E+01  0.16704975478E+02  0.10234637885E+03  0.47000000000E+01 0. -1.
        -11    1    4    4    0    0 -0.65607162893E+01 -0.44432045439E+02 -0.59431533276E+01  0.45305305777E+02  0.00000000000E+00 0.  1.
         12    1    4    4    0    0  0.27828583779E+02  0.28867877494E+02 -0.75082158405E+00  0.40104216227E+02  0.00000000000E+00 0. -1.
         -5    1    5    5    0  502  0.40874489726E+02  0.55102979700E+02  0.92601312322E+02  0.11534364016E+03  0.47000000000E+01 0.  1.
         11    1    6    6    0    0  0.48438007462E+02 -0.57862786188E+02  0.25280643143E+02  0.79582997619E+02  0.00000000000E+00 0. -1.
        -12    1    6    6    0    0 -0.10184277429E+02  0.86151782272E+01 -0.16750885159E+02  0.21413382644E+02  0.00000000000E+00 0.  1.
</event>
<event>
12    1  0.1039610E+000  0.1878738E+03  0.7818608E-02  0.1163507E+00
         21   -1    0    0  501  502  0.00000000000E+00  0.00000000000E+00  0.96791441180E+03  0.96791441180E+03  0.00000000000E+00 0. -1.
         21   -1    0    0  502  503 -0.00000000000E+00 -0.00000000000E+00 -0.11455889703E+03  0.11455889703E+03  0.00000000000E+00 0. -1.
         -6    2    1    2    0  503  0.49495730828E+02 -0.63236272314E+02  0.87597619341E+03  0.89324265252E+03  0.15524010875E+03 0.  0.
        -24    2    3    3    0    0  0.54916148559E+01 -0.16967362369E+02  0.72128381053E+03  0.72582402283E+03  0.79070396218E+02 0.  0.
          6    2    1    2  501    0 -0.49495730828E+02  0.63236272314E+02 -0.22620678637E+02  0.18923065630E+03  0.16984667402E+03 0.  0.
         24    2    5    5    0    0 -0.32363207701E+02  0.40956097400E+02  0.52331163720E+02  0.10904463373E+03  0.80171081585E+02 0.  0.
          5    1    5    5  501    0 -0.17132523127E+02  0.22280174915E+02 -0.74951842357E+02  0.80186022571E+02  0.47000000000E+01 0. -1.
        -13    1    6    6    0    0 -0.75841117392E+01  0.11655239672E+02 -0.21634036550E+02  0.25717599035E+02  0.00000000000E+00 0.  1.
         14    1    6    6    0    0 -0.24779095962E+02  0.29300857727E+02  0.73965200270E+02  0.83327034696E+02  0.00000000000E+00 0. -1.
         -5    1    3    3    0  503  0.44004115972E+02 -0.46268909946E+02  0.15469238287E+03  0.16741862970E+03  0.47000000000E+01 0.  1.
         13    1    4    4    0    0  0.23740113805E+02  0.25211807297E+02  0.27192229453E+03  0.27411851906E+03  0.00000000000E+00 0. -1.
        -14    1    4    4    0    0 -0.18248498949E+02 -0.42179169665E+02  0.44936151600E+03  0.45170550377E+03  0.00000000000E+00 0.  1.
</event>
<event>
12    1  0.1039610E+000  0.1778830E+03  0.7818608E-02  0.1169984E+00
         21   -1    0    0  503  502  0.00000000000E+00  0.00000000000E+00  0.14514123882E+03  0.14514123882E+03  0.00000000000E+00 0. -1.
         21   -1    0    0  501  503 -0.00000000000E+00 -0.00000000000E+00 -0.21914650321E+03  0.21914650321E+03  0.00000000000E+00 0. -1.
          6    2    1    2  501    0  0.41087958098E+02 -0.16784086490E+02 -0.53170894780E+02  0.18565966236E+03  0.17225690209E+03 0.  0.
         24    2    3    3    0    0  0.27345955819E+02  0.50235635339E+02 -0.62412282870E+02  0.11646443858E+03  0.79982823422E+02 0.  0.
         -6    2    1    2    0  502 -0.41087958098E+02  0.16784086490E+02 -0.20834369609E+02  0.17862807967E+03  0.17176726705E+03 0.  0.
        -24    2    5    5    0    0 -0.45996998813E+02 -0.36438682889E+02  0.32518152757E+02  0.10296208001E+03  0.78104149384E+02 0.  0.
          5    1    3    3  501    0  0.13742002279E+02 -0.67019721829E+02  0.92413880901E+01  0.69195223784E+02  0.47000000000E+01 0. -1.
        -13    1    4    4    0    0 -0.18190924393E+02 -0.77938419924E+01 -0.29894517489E+02  0.35851581264E+02  0.00000000000E+00 0.  1.
         14    1    4    4    0    0  0.45536880212E+02  0.58029477332E+02 -0.32517765381E+02  0.80612857313E+02  0.00000000000E+00 0. -1.
         -5    1    5    5    0  502  0.49090407148E+01  0.53222769379E+02 -0.53352522366E+02  0.75665999656E+02  0.47000000000E+01 0.  1.
         11    1    6    6    0    0  0.13292516218E+02  0.89736244590E+01  0.22469771822E+02  0.27606295823E+02  0.00000000000E+00 0. -1.
        -12    1    6    6    0    0 -0.59289515031E+02 -0.45412307348E+02  0.10048380936E+02  0.75355784189E+02  0.00000000000E+00 0.  1.
</event>
<event>
12    1  0.1039610E+000  0.2471350E+03  0.7818608E-02  0.1117419E+00
         21   -1    0    0  503  502  0.00000000000E+00  0.00000000000E+00  0.66761443798E+02  0.66761443798E+02  0.00000000000E+00 0. -1.
         21   -1    0    0  501  503 -0.00000000000E+00 -0.00000000000E+00 -0.88908235427E+03  0.88908235427E+03  0.00000000000E+00 0. -1.
          6    2    1    2  501    0 -0.67296602362E+01  0.15686085715E+03 -0.34289977390E+03  0.42267714309E+03  0.19085359708E+03 0.  0.
         24    2    3    3    0    0 -0.63490155377E+02  0.12065256438E+03 -0.31058592436E+03  0.34785021514E+03  0.77124021193E+02 0.  0.
         -6    2    1    2    0  502  0.67296602362E+01 -0.15686085715E+03 -0.47942113658E+03  0.53316665498E+03  0.17254402034E+03 0.  0.
        -24    2    5    5    0    0 -0.39016685777E+02 -0.21239362132E+02 -0.21240962366E+03  0.23017629852E+03  0.76745474789E+02 0.  0.
          5    1    3    3  501    0  0.56760495141E+02  0.36208292768E+02 -0.32313849540E+02  0.74826927946E+02  0.47000000000E+01 0. -1.
        -13    1    4    4    0    0 -0.30716704103E+02  0.71738319298E+02 -0.25574997308E+03  0.26739100788E+03  0.00000000000E+00 0.  1.
         14    1    4    4    0    0 -0.32773451274E+02  0.48914245080E+02 -0.54835951276E+02  0.80459207257E+02  0.00000000000E+00 0. -1.
         -5    1    5    5    0  502  0.45746346013E+02 -0.13562149501E+03 -0.26701151291E+03  0.30299035647E+03  0.47000000000E+01 0.  1.
         13    1    6    6    0    0 -0.24869412351E+02  0.15236735811E+02 -0.16997240154E+03  0.17245655416E+03  0.00000000000E+00 0. -1.
        -14    1    6    6    0    0 -0.14147273426E+02 -0.36476097943E+02 -0.42437222127E+02  0.57719744354E+02  0.00000000000E+00 0.  1.
</event>
<event>
12    1  0.1039610E+000  0.4442830E+03  0.7818608E-02  0.1029488E+00
         21   -1    0    0  501  502  0.00000000000E+00  0.00000000000E+00  0.46572806385E+03  0.46572806385E+03  0.00000000000E+00 0. -1.
         21   -1    0    0  502  503 -0.00000000000E+00 -0.00000000000E+00 -0.49423345245E+03  0.49423345245E+03  0.00000000000E+00 0.  1.
         -6    2    1    2    0  503 -0.29307988995E+03 -0.28553463144E+03 -0.19616293904E+03  0.48509690506E+03  0.17150294749E+03 0.  0.
        -24    2    3    3    0    0 -0.20386355429E+03 -0.21132571290E+03 -0.67157817595E+02  0.31151427488E+03  0.79448507157E+02 0.  0.
          6    2    1    2  501    0  0.29307988995E+03  0.28553463144E+03  0.16765755044E+03  0.47486461124E+03  0.17309389690E+03 0.  0.
         24    2    5    5    0    0  0.20448161943E+03  0.18324568907E+03  0.40226393836E+02  0.28892518308E+03  0.80423152203E+02 0.  0.
          5    1    5    5  501    0  0.88598270520E+02  0.10228894236E+03  0.12743115661E+03  0.18593942816E+03  0.47000000000E+01 0. -1.
        -11    1    6    6    0    0  0.86891286494E+02  0.29578737707E+02  0.23240149981E+02  0.94684222361E+02  0.00000000000E+00 0.  1.
         12    1    6    6    0    0  0.11759033294E+03  0.15366695137E+03  0.16986243854E+02  0.19424096072E+03  0.00000000000E+00 0. -1.
         -5    1    3    3    0  503 -0.89216335665E+02 -0.74208918533E+02 -0.12900512145E+03  0.17358263018E+03  0.47000000000E+01 0.  1.
         11    1    4    4    0    0 -0.98614493930E+02 -0.49996154207E+02 -0.12402566610E+02  0.11125761775E+03  0.00000000000E+00 0. -1.
        -12    1    4    4    0    0 -0.10524906036E+03 -0.16132955870E+03 -0.54755250985E+02  0.20025665713E+03  0.00000000000E+00 0.  1.
</event>
<event>
12    1  0.1039610E+000  0.3044820E+03  0.7818608E-02  0.1083286E+00
         21   -1    0    0  501  502  0.00000000000E+00  0.00000000000E+00  0.10194484385E+03  0.10194484385E+03  0.00000000000E+00 0.  1.
         21   -1    0    0  502  503 -0.00000000000E+00 -0.00000000000E+00 -0.90381057456E+03  0.90381057456E+03  0.00000000000E+00 0.  1.
         -6    2    1    2    0  503  0.13756078988E+03 -0.20708534471E+03 -0.41462629553E+03  0.51314635324E+03  0.17203750750E+03 0.  0.
        -24    2    3    3    0    0  0.12925159848E+03 -0.18041953588E+03 -0.42225476137E+03  0.48381392215E+03  0.80744307090E+02 0.  0.
          6    2    1    2  501    0 -0.13756078988E+03  0.20708534471E+03 -0.38723943518E+03  0.49260906518E+03  0.17578964712E+03 0.  0.
         24    2    5    5    0    0 -0.14309082684E+03  0.18917049798E+03 -0.24936862753E+03  0.35338991189E+03  0.80244971149E+02 0.  0.
          5    1    5    5  501    0  0.55300369620E+01  0.17914846727E+02 -0.13787080765E+03  0.13921915329E+03  0.47000000000E+01 0. -1.
        -11    1    6    6    0    0 -0.67286287878E+02  0.11521155237E+03 -0.86133657826E+02  0.15880854305E+03  0.00000000000E+00 0.  1.
         12    1    6    6    0    0 -0.75804538964E+02  0.73958945612E+02 -0.16323496970E+03  0.19458136884E+03  0.00000000000E+00 0. -1.
         -5    1    3    3    0  503  0.83091913958E+01 -0.26665808833E+02  0.76284658401E+01  0.29332431087E+02  0.47000000000E+01 0.  1.
         13    1    4    4    0    0 -0.11016346440E+02 -0.15541288722E+02 -0.44968990257E+02  0.48837502278E+02  0.00000000000E+00 0. -1.
        -14    1    4    4    0    0  0.14026794492E+03 -0.16487824715E+03 -0.37728577112E+03  0.43497641987E+03  0.00000000000E+00 0.  1.
</event>
<event>
12    1  0.1039610E+000  0.3423036E+03  0.7818608E-02  0.1065921E+00
         21   -1    0    0  503  502  0.00000000000E+00  0.00000000000E+00  0.36230612450E+03  0.36230612450E+03  0.00000000000E+00 0. -1.
         21   -1    0    0  501  503 -0.00000000000E+00 -0.00000000000E+00 -0.40388987573E+03  0.40388987573E+03  0.00000000000E+00 0. -1.
          6    2    1    2  501    0 -0.11330130417E+03 -0.27221027603E+03  0.15121051233E+03  0.37333292629E+03  0.17198033291E+03 0.  0.
         24    2    3    3    0    0 -0.12566892376E+03 -0.10785909200E+03  0.10456151021E+03  0.20197806319E+03  0.49353484869E+02 0.  0.
         -6    2    1    2    0  502  0.11330130417E+03  0.27221027603E+03 -0.19279426356E+03  0.39286307394E+03  0.17388544187E+03 0.  0.
        -24    2    5    5    0    0  0.35982520513E+02  0.19178273811E+03 -0.18603507830E+03  0.28099458083E+03  0.79205704844E+02 0.  0.
          5    1    3    3  501    0  0.12367619587E+02 -0.16435118404E+03  0.46649002124E+02  0.17135486310E+03  0.47000000000E+01 0. -1.
        -11    1    4    4    0    0 -0.34476390169E+02 -0.29421644819E+02  0.45595160298E+01  0.45552649202E+02  0.00000000000E+00 0.  1.
         12    1    4    4    0    0 -0.91192533593E+02 -0.78437447180E+02  0.10000199418E+03  0.15642541399E+03  0.00000000000E+00 0. -1.
         -5    1    5    5    0  502  0.77318783662E+02  0.80427537926E+02 -0.67591852557E+01  0.11186849310E+03  0.47000000000E+01 0.  1.
         11    1    6    6    0    0  0.12682653697E+02  0.77303782327E+01  0.40356839062E+01  0.15391400099E+02  0.00000000000E+00 0. -1.
        -12    1    6    6    0    0  0.23299866816E+02  0.18405235988E+03 -0.19007076221E+03  0.26560318073E+03  0.00000000000E+00 0.  1.
</event>
<event>
12    1  0.1039610E+000  0.3796905E+03  0.7818608E-02  0.1051218E+00
         21   -1    0    0  503  502  0.00000000000E+00  0.00000000000E+00  0.23634771383E+03  0.23634771383E+03  0.00000000000E+00 0.  1.
         21   -1    0    0  501  503 -0.00000000000E+00 -0.00000000000E+00 -0.60969655414E+03  0.60969655414E+03  0.00000000000E+00 0. -1.
          6    2    1    2  501    0 -0.93893415478E+02 -0.32321652759E+03 -0.15912011675E+03  0.41168449658E+03  0.17572710660E+03 0.  0.
         24    2    3    3    0    0 -0.97786280664E+02 -0.12964823576E+03 -0.44029985621E+02  0.18640319180E+03  0.80228975797E+02 0.  0.
         -6    2    1    2    0  502  0.93893415478E+02  0.32321652759E+03 -0.21422872356E+03  0.43435977140E+03  0.17172526849E+03 0.  0.
        -24    2    5    5    0    0  0.83224542148E+02  0.33737632289E+03 -0.21372163284E+03  0.41601115286E+03  0.81481502790E+02 0.  0.
          5    1    3    3  501    0  0.38928651860E+01 -0.19356829183E+03 -0.11509013113E+03  0.22528130478E+03  0.47000000000E+01 0. -1.
        -13    1    4    4    0    0  0.21561661933E+01 -0.14848461227E+01 -0.22275470345E+02  0.22428785071E+02  0.00000000000E+00 0.  1.
         14    1    4    4    0    0 -0.99942446858E+02 -0.12816338964E+03 -0.21754515276E+02  0.16397440673E+03  0.00000000000E+00 0. -1.
         -5    1    5    5    0  502  0.10668873330E+02 -0.14159795305E+02 -0.50709071253E+00  0.18348618537E+02  0.47000000000E+01 0.  1.
         11    1    6    6    0    0  0.51860099902E+02  0.76053154559E+02 -0.73466015740E+02  0.11777439343E+03  0.00000000000E+00 0. -1.
        -12    1    6    6    0    0  0.31364442246E+02  0.26132316833E+03 -0.14025561710E+03  0.29823675943E+03  0.00000000000E+00 0.  1.
</event>
<event>
12    1  0.1039610E+000  0.3768295E+03  0.7818608E-02  0.1052484E+00
         21   -1    0    0  501  502  0.00000000000E+00  0.00000000000E+00  0.10400270650E+04  0.10400270650E+04  0.00000000000E+00 0. -1.
         21   -1    0    0  502  503 -0.00000000000E+00 -0.00000000000E+00 -0.25274494570E+03  0.25274494570E+03  0.00000000000E+00 0. -1.
         -6    2    1    2    0  503  0.13683865548E+03 -0.30188086054E+03  0.83351979802E+03  0.91311641444E+03  0.17079069366E+03 0.  0.
        -24    2    3    3    0    0  0.11464525578E+03 -0.14318500965E+03  0.34601585218E+03  0.39993115814E+03  0.81070830938E+02 0.  0.
          6    2    1    2  501    0 -0.13683865548E+03  0.30188086054E+03 -0.46237678764E+02  0.37965559622E+03  0.17928629955E+03 0.  0.
         24    2    5    5    0    0 -0.13552679506E+03  0.14222540208E+03 -0.56172517260E+02  0.21961692148E+03  0.80502567216E+02 0.  0.
          5    1    5    5  501    0 -0.13118604137E+01  0.15965545847E+03  0.99348384957E+01  0.16003867474E+03  0.47000000000E+01 0. -1.
        -13    1    6    6    0    0 -0.51878100513E+02  0.10914758991E+03 -0.19206012569E+02  0.12236586376E+03  0.00000000000E+00 0.  1.
         14    1    6    6    0    0 -0.83648694552E+02  0.33077812169E+02 -0.36966504691E+02  0.97251057718E+02  0.00000000000E+00 0. -1.
         -5    1    3    3    0  503  0.22193399702E+02 -0.15869585089E+03  0.48750394584E+03  0.51318525631E+03  0.47000000000E+01 0.  1.
         11    1    4    4    0    0  0.34232337152E+02 -0.21932955920E+01  0.95066557714E+02  0.10106588865E+03  0.00000000000E+00 0. -1.
        -12    1    4    4    0    0  0.80412918625E+02 -0.14099171406E+03  0.25094929446E+03  0.29886526949E+03  0.00000000000E+00 0.  1.
</event>
<event>
12    1  0.1039610E+000  0.2288112E+03  0.7818608E-02  0.1127584E+00
         21   -1    0    0  501  502  0.00000000000E+00  0.00000000000E+00  0.24493637527E+03  0.24493637527E+03  0.00000000000E+00 0.  1.
         21   -1    0    0  502  503 -0.00000000000E+00 -0.00000000000E+00 -0.39677909645E+03  0.39677909645E+03  0.00000000000E+00 0.  1.
         -6    2    1    2    0  503  0.65439449270E+02 -0.13519890586E+03 -0.29411792480E+03  0.37227757885E+03  0.17182600605E+03 0.  0.
        -24    2    3    3    0    0  0.58087141670E+02 -0.65308349327E+02 -0.27541589735E+03  0.29940370047E+03  0.78417873078E+02 0.  0.
          6    2    1    2  501    0 -0.65439449270E+02  0.13519890586E+03  0.14227520363E+03  0.26943789287E+03  0.17260787607E+03 0.  0.
         24    2    5    5    0    0  0.73977436900E+01  0.13249770747E+02  0.79192202020E+02  0.11394383085E+03  0.80507817574E+02 0.  0.
          5    1    5    5  501    0 -0.72837192960E+02  0.12194913511E+03  0.63083001605E+02  0.15549406202E+03  0.47000000000E+01 0. -1.
        -11    1    6    6    0    0  0.32545404787E+02  0.28200329074E+02  0.71872065786E+02  0.83785773094E+02  0.00000000000E+00 0.  1.
         12    1    6    6    0    0 -0.25147661097E+02 -0.14950558326E+02  0.73201362340E+01  0.30158057752E+02  0.00000000000E+00 0. -1.
         -5    1    3    3    0  503  0.73523075994E+01 -0.69890556533E+02 -0.18702027446E+02  0.72873878380E+02  0.47000000000E+01 0.  1.
         11    1    4    4    0    0  0.81786966775E+01 -0.10150052440E+02  0.10768458126E+01  0.13079535190E+02  0.00000000000E+00 0. -1.
        -12    1    4    4    0    0  0.49908444993E+02 -0.55158296887E+02 -0.27649274317E+03  0.28632416528E+03  0.00000000000E+00 0.  1.
</event>
<event>
12    1  0.1039610E+000  0.2351027E+03  0.7818608E-02  0.1123171E+00
         21   -1    0    0  503  502  0.00000000000E+00  0.00000000000E+00  0.94312556455E+03  0.94312556455E+03  0.00000000000E+00 0. -1.
         21   -1    0    0  501  503 -0.00000000000E+00 -0.00000000000E+00 -0.80700424650E+02  0.80700424650E+02  0.00000000000E+00 0. -1.
          6    2    1    2  501    0  0.21519938783E+01 -0.16130580298E+03  0.69998535670E+03  0.73841232253E+03  0.17102358115E+03 0.  0.
         24    2    3    3    0    0 -0.62934478126E+02 -0.12134011556E+03  0.45045786204E+03  0.47741507043E+03  0.79553075497E+02 0.  0.
         -6    2    1    2    0  502 -0.21519938783E+01  0.16130580298E+03  0.16243978320E+03  0.28541366667E+03  0.17044085427E+03 0.  0.
        -24    2    5    5    0    0 -0.46263132103E+02  0.43404872734E+02  0.99832532742E+02  0.14474320183E+03  0.83425412878E+02 0.  0.
          5    1    3    3  501    0  0.65086472005E+02 -0.39965687423E+02  0.24952749467E+03  0.26099725210E+03  0.47000000000E+01 0. -1.
        -11    1    4    4    0    0 -0.31485374132E+02 -0.11737092868E+03  0.30045423042E+03  0.32409876313E+03  0.00000000000E+00 0.  1.
         12    1    4    4    0    0 -0.31449103995E+02 -0.39691868805E+01  0.15000363161E+03  0.15331630730E+03  0.00000000000E+00 0. -1.
         -5    1    5    5    0  502  0.44111138225E+02  0.11790093025E+03  0.62607250455E+02  0.14067046484E+03  0.47000000000E+01 0.  1.
         11    1    6    6    0    0  0.19355127293E+02 -0.81185892431E+01  0.25276626851E+02  0.32854836916E+02  0.00000000000E+00 0. -1.
        -12    1    6    6    0    0 -0.65618259396E+02  0.51523461977E+02  0.74555905891E+02  0.11188836492E+03  0.00000000000E+00 0.  1.
</event>
<event>
12    1  0.1039610E+000  0.2170242E+03  0.7818608E-02  0.1136152E+00
         21   -1    0    0  501  502  0.00000000000E+00  0.00000000000E+00  0.97155819762E+02  0.97155819762E+02  0.00000000000E+00 0. -1.
         21   -1    0    0  502  503 -0.00000000000E+00 -0.00000000000E+00 -0.62250695054E+03  0.62250695054E+03  0.00000000000E+00 0. -1.
         -6    2    1    2    0  503 -0.10065855233E+03  0.83443806223E+02 -0.43222435381E+03  0.48365006288E+03  0.17321800813E+03 0.  0.
        -24    2    3    3    0    0  0.91927126562E+01  0.38411160796E+02 -0.12081109501E+03  0.15034007603E+03  0.80292555972E+02 0.  0.
          6    2    1    2  501    0  0.10065855233E+03 -0.83443806223E+02 -0.93126776960E+02  0.23601270742E+03  0.17301557306E+03 0.  0.
         24    2    5    5    0    0  0.11385308569E+03 -0.73447724715E+02 -0.16284665773E+02  0.15726743830E+03  0.78171372161E+02 0.  0.
          5    1    5    5  501    0 -0.13194533353E+02 -0.99960815080E+01 -0.76842111186E+02  0.78745269112E+02  0.47000000000E+01 0. -1.
        -13    1    6    6    0    0  0.39790013465E+02 -0.15624265444E+02 -0.41919049053E+02  0.59871274545E+02  0.00000000000E+00 0.  1.
         14    1    6    6    0    0  0.74063072220E+02 -0.57823459271E+02  0.25634383279E+02  0.97396163759E+02  0.00000000000E+00 0. -1.
         -5    1    3    3    0  503 -0.10985126499E+03  0.45032645427E+02 -0.31141325880E+03  0.33330998685E+03  0.47000000000E+01 0.  1.
         11    1    4    4    0    0  0.20495006605E+02  0.46448644883E+01 -0.11159862344E+03  0.11355999654E+03  0.00000000000E+00 0. -1.
        -12    1    4    4    0    0 -0.11302293948E+02  0.33766296307E+02 -0.92124715733E+01  0.36780079490E+02  0.00000000000E+00 0.  1.
</event>
<event>
12    1  0.1039610E+000  0.1881928E+03  0.7818608E-02  0.1160626E+00
         21   -1    0    0  503  502  0.00000000000E+00  0.00000000000E+00  0.36137629524E+03  0.36137629524E+03  0.00000000000E+00 0. -1.
         21   -1    0    0  501  503 -0.00000000000E+00 -0.00000000000E+00 -0.31395740205E+03  0.31395740205E+03  0.00000000000E+00 0. -1.
          6    2    1    2  501    0 -0.56497156989E+02 -0.39800581575E+02 -0.25705903436E+03  0.31858416856E+03  0.17504430946E+03 0.  0.
         24    2    3    3    0    0 -0.63096588487E+02  0.24763108910E+02 -0.86374702051E+02  0.13591711100E+03  0.80115422147E+02 0.  0.
         -6    2    1    2    0  502  0.56497156989E+02  0.39800581575E+02  0.30447792756E+03  0.35674952872E+03  0.17259027445E+03 0.  0.
        -24    2    5    5    0    0 -0.27090528890E+02  0.45429649219E+02  0.21128506109E+03  0.23134782223E+03  0.77991589442E+02 0.  0.
          5    1    3    3  501    0  0.65994314978E+01 -0.64563690485E+02 -0.17068433231E+03  0.18266705757E+03  0.47000000000E+01 0. -1.
        -11    1    4    4    0    0 -0.67582954197E+02 -0.11176166249E+02 -0.60659626061E+02  0.91498374980E+02  0.00000000000E+00 0.  1.
         12    1    4    4    0    0  0.44863657107E+01  0.35939275158E+02 -0.25715075990E+02  0.44418736017E+02  0.00000000000E+00 0. -1.
         -5    1    5    5    0  502  0.83587685879E+02 -0.56290676445E+01  0.93192866463E+02  0.12540170650E+03  0.47000000000E+01 0.  1.
         11    1    6    6    0    0  0.66080647897E+01 -0.16405085609E+02  0.16360851761E+02  0.24092962135E+02  0.00000000000E+00 0. -1.
        -12    1    6    6    0    0 -0.33698593679E+02  0.61834734829E+02  0.19492420933E+03  0.20725486009E+03  0.00000000000E+00 0.  1.
</event>
<event>
12    1  0.1039610E+000  0.2193456E+03  0.7818608E-02  0.1134487E+00
         21   -1    0    0  503  502  0.00000000000E+00  0.00000000000E+00  0.13789737346E+04  0.13789737346E+04  0.00000000000E+00 0.  1.
         21   -1    0    0  501  503 -0.00000000000E+00 -0.00000000000E+00 -0.34826630983E+02  0.34826630983E+02  0.00000000000E+00 0.  1.
          6    2    1    2  501    0 -0.22269594459E+02 -0.13218396197E+03  0.69323542686E+03  0.72692446906E+03  0.17284470493E+03 0.  0.
         24    2    3    3    0    0  0.72396381022E+01 -0.12365716679E+03  0.67526767808E+03  0.69102974746E+03  0.78690326959E+02 0.  0.
         -6    2    1    2    0  502  0.22269594459E+02  0.13218396197E+03  0.65091167674E+03  0.68687589651E+03  0.17362013608E+03 0.  0.
        -24    2    5    5    0    0 -0.22576434213E+02  0.31944894036E+01  0.20663721728E+03  0.22206266989E+03  0.78057604664E+02 0.  0.
          5    1    3    3  501    0 -0.29509232562E+02 -0.85267951766E+01  0.17967748783E+02  0.35894721599E+02  0.47000000000E+01 0. -1.
        -13    1    4    4    0    0 -0.35030027157E+02 -0.54300192103E+02  0.26152389102E+03  0.26938886250E+03  0.00000000000E+00 0.  1.
         14    1    4    4    0    0  0.42269665259E+02 -0.69356974687E+02  0.41374378706E+03  0.42164088496E+03  0.00000000000E+00 0. -1.
         -5    1    5    5    0  502  0.44846028672E+02  0.12898947256E+03  0.44427445945E+03  0.46481322662E+03  0.47000000000E+01 0.  1.
         13    1    6    6    0    0 -0.27563430621E+02 -0.21902073440E+02  0.18568060318E+03  0.18898870317E+03  0.00000000000E+00 0. -1.
        -14    1    6    6    0    0  0.49869964085E+01  0.25096562844E+02  0.20956614109E+02  0.33073966721E+02  0.00000000000E+00 0.  1.
</event>
<event>
12    1  0.1039610E+000  0.2917051E+03  0.7818608E-02  0.1089695E+00
         21   -1    0    0  501  502  0.00000000000E+00  0.00000000000E+00  0.16500022082E+03  0.16500022082E+03  0.00000000000E+00 0. -1.
         21   -1    0    0  502  503 -0.00000000000E+00 -0.00000000000E+00 -0.87541609655E+03  0.87541609655E+03  0.00000000000E+00 0.  1.
         -6    2    1    2    0  503 -0.20824761348E+03 -0.10945368112E+03 -0.68948957438E+03  0.74796152753E+03  0.16942076809E+03 0.  0.
        -24    2    3    3    0    0 -0.14077017674E+03 -0.14109785526E+03 -0.51058859057E+03  0.55410021052E+03  0.81249535756E+02 0.  0.
          6    2    1    2  501    0  0.20824761348E+03  0.10945368112E+03 -0.20926301356E+02  0.29245478983E+03  0.17246656828E+03 0.  0.
         24    2    5    5    0    0  0.13646921208E+03  0.63924712345E+02  0.54040291430E+02  0.17902152337E+03  0.80113282536E+02 0.  0.
          5    1    5    5  501    0  0.71778401401E+02  0.45528968776E+02 -0.74966592786E+02  0.11343326646E+03  0.47000000000E+01 0. -1.
        -11    1    6    6    0    0  0.22216266781E+01 -0.13780806286E+02 -0.19849305019E+01  0.14099155864E+02  0.00000000000E+00 0.  1.
         12    1    6    6    0    0  0.13424758540E+03  0.77705518631E+02  0.56025221932E+02  0.16492236751E+03  0.00000000000E+00 0. -1.
         -5    1    3    3    0  503 -0.67477436738E+02  0.31644174139E+02 -0.17890098381E+03  0.19386131701E+03  0.47000000000E+01 0.  1.
         13    1    4    4    0    0 -0.78129481133E+02 -0.40455966596E+02 -0.14328868808E+03  0.16814442955E+03  0.00000000000E+00 0. -1.
        -14    1    4    4    0    0 -0.62640695612E+02 -0.10064188866E+03 -0.36729990249E+03  0.38595578097E+03  0.00000000000E+00 0.  1.
</event>
<event>
12    1  0.1039610E+000  0.2353950E+03  0.7818608E-02  0.1122921E+00
         21   -1    0    0  503  502  0.00000000000E+00  0.00000000000E+00  0.21165596999E+03  0.21165596999E+03  0.00000000000E+00 0. -1.
         21   -1    0    0  501  503 -0.00000000000E+00 -0.00000000000E+00 -0.32499077099E+03  0.32499077099E+03  0.00000000000E+00 0. -1.
          6    2    1    2  501    0 -0.10728744772E+03 -0.12000534613E+03  0.61773879937E+02  0.24336561640E+03  0.17175252972E+03 0.  0.
         24    2    3    3    0    0  0.76437049350E+01 -0.21519729523E+02  0.29921373727E+02  0.88623060259E+02  0.80232370151E+02 0.  0.
         -6    2    1    2    0  502  0.10728744772E+03  0.12000534613E+03 -0.17510868093E+03  0.29328112459E+03  0.17157764529E+03 0.  0.
        -24    2    5    5    0    0 -0.21163312005E+01  0.62903647867E+02 -0.41891212893E+02  0.11162547624E+03  0.82122015654E+02 0.  0.
          5    1    3    3  501    0 -0.11493115265E+03 -0.98485616606E+02  0.31852506210E+02  0.15474255614E+03  0.47000000000E+01 0. -1.
        -11    1    4    4    0    0  0.58398173417E+01 -0.51151118860E+02  0.28630425732E+02  0.58908757454E+02  0.00000000000E+00 0.  1.
         12    1    4    4    0    0  0.18038875933E+01  0.29631389337E+02  0.12909479958E+01  0.29714302805E+02  0.00000000000E+00 0. -1.
         -5    1    5    5    0  502  0.10940377892E+03  0.57101698262E+02 -0.13321746804E+03  0.18165564835E+03  0.47000000000E+01 0.  1.
         11    1    6    6    0    0  0.87683320482E+01  0.70660804835E+01 -0.52553386038E+02  0.53746362894E+02  0.00000000000E+00 0. -1.
        -12    1    6    6    0    0 -0.10884663249E+02  0.55837567384E+02  0.10662173145E+02  0.57879113344E+02  0.00000000000E+00 0.  1.
</event>
<event>
12    1  0.1039610E+000  0.2591683E+03  0.7818608E-02  0.1107694E+00
         21   -1    0    0  503  502  0.00000000000E+00  0.00000000000E+00  0.23144914674E+03  0.23144914674E+03  0.00000000000E+00 0.  1.
         21   -1    0    0  501  503 -0.00000000000E+00 -0.00000000000E+00 -0.33886229823E+03  0.33886229823E+03  0.00000000000E+00 0.  1.
          6    2    1    2  501    0 -0.18867072077E+03 -0.43149302438E+02 -0.16213746021E+03  0.30542850786E+03  0.17187063226E+03 0.  0.
         24    2    3    3    0    0 -0.72252932053E+02 -0.50115256766E+02 -0.14490163335E+03  0.18744211129E+03  0.80037719763E+02 0.  0.
         -6    2    1    2    0  502  0.18867072077E+03  0.43149302438E+02  0.54724308723E+02  0.26488293712E+03  0.17236506965E+03 0.  0.
        -24    2    5    5    0    0  0.17986504542E+03 -0.11013112256E+02  0.68772265779E+02  0.20804507842E+03  0.77976963964E+02 0.  0.
          5    1    3    3  501    0 -0.11641778871E+03  0.69659543286E+01 -0.17235826859E+02  0.11798639657E+03  0.47000000000E+01 0. -1.
        -11    1    4    4    0    0 -0.12699867801E+02 -0.42587391381E+02 -0.19734134135E+02  0.48625184800E+02  0.00000000000E+00 0.  1.
         12    1    4    4    0    0 -0.59553064252E+02 -0.75278653850E+01 -0.12516749921E+03  0.13881692648E+03  0.00000000000E+00 0. -1.
         -5    1    5    5    0  502  0.88056753478E+01  0.54162414694E+02 -0.14047957056E+02  0.56837858697E+02  0.47000000000E+01 0.  1.
         13    1    6    6    0    0  0.51707455544E+02 -0.36609166828E+02  0.37663070328E+02  0.73704809349E+02  0.00000000000E+00 0. -1.
        -14    1    6    6    0    0  0.12815758987E+03  0.25596054572E+02  0.31109195450E+02  0.13434026907E+03  0.00000000000E+00 0.  1.
</event>
<event>
12    1  0.1039610E+000  0.2022813E+03  0.7818608E-02  0.1147847E+00
         21   -1    0    0  503  502  0.00000000000E+00  0.00000000000E+00  0.15428568961E+03  0.15428568961E+03  0.00000000000E+00 0. -1.
         21   -1    0    0  501  503 -0.00000000000E+00 -0.00000000000E+00 -0.28522175394E+03  0.28522175394E+03  0.00000000000E+00 0. -1.
          6    2    1    2  501    0 -0.10459625958E+03  0.34632296833E+02 -0.12383949425E+03  0.23710166511E+03  0.16953231479E+03 0.  0.
         24    2    3    3    0    0 -0.44086112025E+02 -0.81947406009E+01  0.12885734729E+01  0.91586179933E+02  0.79847535254E+02 0.  0.
         -6    2    1    2    0  502  0.10459625958E+03 -0.34632296833E+02 -0.70965700804E+01  0.20240577844E+03  0.16964069187E+03 0.  0.
        -24    2    5    5    0    0  0.11304639952E+02 -0.58989041386E+02  0.14318510767E+02  0.10352568446E+03  0.83096604650E+02 0.  0.
          5    1    3    3  501    0 -0.60510147555E+02  0.42827037433E+02 -0.12512806772E+03  0.14551548517E+03  0.47000000000E+01 0. -1.
        -13    1    4    4    0    0 -0.20875456106E+02  0.98860802395E+00 -0.38968282189E+02  0.44218650253E+02  0.00000000000E+00 0.  1.
         14    1    4    4    0    0 -0.23210655919E+02 -0.91833486248E+01  0.40256855662E+02  0.47367529680E+02  0.00000000000E+00 0. -1.
         -5    1    5    5    0  502  0.93291619629E+02  0.24356744553E+02 -0.21415080848E+02  0.98880093982E+02  0.47000000000E+01 0.  1.
         13    1    6    6    0    0 -0.18721440264E+01  0.20530126891E+02 -0.36696355676E+01  0.20939371018E+02  0.00000000000E+00 0. -1.
        -14    1    6    6    0    0  0.13176783978E+02 -0.79519168277E+02  0.17988146335E+02  0.82586313443E+02  0.00000000000E+00 0.  1.
</event>
<event>
12    1  0.1039610E+000  0.1727564E+03  0.7818608E-02  0.1175026E+00
         21   -1    0    0  501  502  0.00000000000E+00  0.00000000000E+00  0.28273852650E+02  0.28273852650E+02  0.00000000000E+00 0.  1.
         21   -1    0    0  502  503 -0.00000000000E+00 -0.00000000000E+00 -0.11053753104E+04  0.11053753104E+04  0.00000000000E+00 0.  1.
         -6    2    1    2    0  503 -0.23239013482E+01 -0.11033978418E+02 -0.65966265996E+03  0.68190879636E+03  0.17238802861E+03 0.  0.
        -24    2    3    3    0    0 -0.49581387812E+02  0.38688979762E+02 -0.44584763784E+03  0.45731005130E+03  0.79982596112E+02 0.  0.
          6    2    1    2  501    0  0.23239013482E+01  0.11033978418E+02 -0.41743879774E+03  0.45174036665E+03  0.17229933197E+03 0.  0.
         24    2    5    5    0    0 -0.63991333156E+02  0.17467384678E+01 -0.23587717080E+03  0.25816692443E+03  0.83151544484E+02 0.  0.
          5    1    5    5  501    0  0.66315234505E+02  0.92872399501E+01 -0.18156162694E+03  0.19357344222E+03  0.47000000000E+01 0. -1.
        -11    1    6    6    0    0  0.42992986112E+01 -0.91913103289E+01  0.20840647528E+01  0.10358932378E+02  0.00000000000E+00 0.  1.
         12    1    6    6    0    0 -0.68290631768E+02  0.10938048797E+02 -0.23796123556E+03  0.24780799205E+03  0.00000000000E+00 0. -1.
         -5    1    3    3    0  503  0.47257486464E+02 -0.49722958180E+02 -0.21381502212E+03  0.22459874506E+03  0.47000000000E+01 0.  1.
         11    1    4    4    0    0  0.20668313870E+02  0.18458612776E+02 -0.96758818674E+02  0.10064873857E+03  0.00000000000E+00 0. -1.
        -12    1    4    4    0    0 -0.70249701682E+02  0.20230366986E+02 -0.34908881916E+03  0.35666131273E+03  0.00000000000E+00 0.  1.
</event>
<event>
12    1  0.1039610E+000  0.2238395E+03  0.7818608E-02  0.1131752E+00
         21   -1    0    0  501  502  0.00000000000E+00  0.00000000000E+00  0.16982357981E+04  0.16982357981E+04  0.00000000000E+00 0.  1.
         21   -1    0    0  502  503 -0.00000000000E+00 -0.00000000000E+00 -0.30249001578E+02  0.30249001578E+02  0.00000000000E+00 0.  1.
         -6    2    1    2    0  503  0.82842321160E+02 -0.11111314901E+03  0.10161212751E+04  0.10404838162E+04  0.17577014541E+03 0.  0.
        -24    2    3    3    0    0  0.29028579229E+02 -0.53976615169E+02  0.84903115027E+03  0.85581735434E+03  0.88392966161E+02 0.  0.
          6    2    1    2  501    0 -0.82842321160E+02  0.11111314901E+03  0.65186552150E+03  0.68800098355E+03  0.17090264241E+03 0.  0.
         24    2    5    5    0    0 -0.12229949830E+03  0.68401041963E+02  0.45139828710E+03  0.47921785448E+03  0.79078875982E+02 0.  0.
          5    1    5    5  501    0  0.39457177140E+02  0.42712107051E+02  0.20046723440E+03  0.20878312907E+03  0.47000000000E+01 0. -1.
        -11    1    6    6    0    0  0.17163198749E+01  0.12393318881E+02  0.67554131296E+01  0.14218850634E+02  0.00000000000E+00 0.  1.
         12    1    6    6    0    0 -0.12401581818E+03  0.56007723083E+02  0.44464287397E+03  0.46499900385E+03  0.00000000000E+00 0. -1.
         -5    1    3    3    0  503  0.53813741932E+02 -0.57136533845E+02  0.16709012478E+03  0.18466646182E+03  0.47000000000E+01 0.  1.
         11    1    4    4    0    0  0.33644244665E+02 -0.46065350042E+02  0.23884213613E+03  0.24555960104E+03  0.00000000000E+00 0. -1.
        -12    1    4    4    0    0 -0.46156654365E+01 -0.79112651264E+01  0.61018901414E+03  0.61025775330E+03  0.00000000000E+00 0.  1.
</event>
<event>
12    1  0.1039610E+000  0.2747755E+03  0.7818608E-02  0.1098645E+00
         21   -1    0    0  503  502  0.00000000000E+00  0.00000000000E+00  0.60969528446E+02  0.60969528446E+02  0.00000000000E+00 0.  1.
         21   -1    0    0  501  503 -0.00000000000E+00 -0.00000000000E+00 -0.15557749648E+04  0.15557749648E+04  0.00000000000E+00 0.  1.
          6    2    1    2  501    0  0.52525470069E+02 -0.20756595928E+03 -0.11132751693E+04  0.11465669261E+04  0.17143967182E+03 0.  0.
         24    2    3    3    0    0  0.72211167796E+02 -0.11669529678E+03 -0.46169618103E+03  0.48837070011E+03  0.80686629035E+02 0.  0.
         -6    2    1    2    0  502 -0.52525470069E+02  0.20756595928E+03 -0.38153026707E+03  0.47017756712E+03  0.17221802309E+03 0.  0.
        -24    2    5    5    0    0 -0.30339206771E+02  0.16305593326E+03 -0.37770184063E+03  0.42007647388E+03  0.79359048981E+02 0.  0.
          5    1    3    3  501    0 -0.19685697728E+02 -0.90870662498E+02 -0.65157898827E+03  0.65819622603E+03  0.47000000000E+01 0. -1.
        -13    1    4    4    0    0  0.20757653682E+02  0.84824707419E+01 -0.91593074186E+02  0.94298057961E+02  0.00000000000E+00 0.  1.
         14    1    4    4    0    0  0.51453514114E+02 -0.12517776753E+03 -0.37010310684E+03  0.39407264215E+03  0.00000000000E+00 0. -1.
         -5    1    5    5    0  502 -0.22186263297E+02  0.44510026017E+02 -0.38284264433E+01  0.50101093243E+02  0.47000000000E+01 0.  1.
         13    1    6    6    0    0  0.24856733225E+02  0.70626620547E+02 -0.13057210672E+03  0.15051595188E+03  0.00000000000E+00 0. -1.
        -14    1    6    6    0    0 -0.55195939996E+02  0.92429312717E+02 -0.24712973391E+03  0.26956052200E+03  0.00000000000E+00 0.  1.
</event>
<event>
12    1  0.1039610E+000  0.1765093E+03  0.7818608E-02  0.1171492E+00
         21   -1    0    0  503  502  0.00000000000E+00  0.00000000000E+00  0.82267631500E+03  0.82267631500E+03  0.00000000000E+00 0.  1.
         21   -1    0    0  501  503 -0.00000000000E+00 -0.00000000000E+00 -0.40134021702E+02  0.40134021702E+02  0.00000000000E+00 0.  1.
          6    2    1    2  501    0  0.38507609631E+01 -0.40654217311E+02  0.28487034645E+03  0.33512185633E+03  0.17172055950E+03 0.  0.
         24    2    3    3    0    0 -0.54042799066E+02  0.13494601399E+02  0.17008079498E+03  0.19554216588E+03  0.78781555047E+02 0.  0.
         -6    2    1    2    0  502 -0.38507609631E+01  0.40654217311E+02  0.49767194685E+03  0.52768848038E+03  0.17061703284E+03 0.  0.
        -24    2    5    5    0    0  0.37089094890E+02  0.68840751731E+02  0.22838476217E+03  0.25381217554E+03  0.78398793362E+02 0.  0.
          5    1    3    3  501    0  0.57893560029E+02 -0.54148818710E+02  0.11478955146E+03  0.13957969045E+03  0.47000000000E+01 0. -1.
        -11    1    4    4    0    0  0.98377397062E+01  0.54999938200E+01 -0.23253274373E+01  0.11508179797E+02  0.00000000000E+00 0.  1.
         12    1    4    4    0    0 -0.63880538772E+02  0.79946075788E+01  0.17240612242E+03  0.18403398608E+03  0.00000000000E+00 0. -1.
         -5    1    5    5    0  502 -0.40939855853E+02 -0.28186534420E+02  0.26928718468E+03  0.27387630484E+03  0.47000000000E+01 0.  1.
         11    1    6    6    0    0  0.51113240185E+02  0.37500161057E+02  0.19821319131E+03  0.20810404756E+03  0.00000000000E+00 0. -1.
        -12    1    6    6    0    0 -0.14024145296E+02  0.31340590675E+02  0.30171570864E+02  0.45708127980E+02  0.00000000000E+00 0.  1.
</event>
<event>
12    1  0.1039610E+000  0.2754576E+03  0.7818608E-02  0.1098499E+00
         21   -1    0    0  501  502  0.00000000000E+00  0.00000000000E+00  0.77863090238E+02  0.77863090238E+02  0.00000000000E+00 0.  1.
         21   -1    0    0  502  503 -0.00000000000E+00 -0.00000000000E+00 -0.11370943418E+04  0.11370943418E+04  0.00000000000E+00 0.  1.
         -6    2    1    2    0  503 -0.15893135577E+03 -0.14405695054E+03 -0.29279221229E+03  0.40052162718E+03  0.16934790643E+03 0.  0.
        -24    2    3    3    0    0 -0.15423597673E+03 -0.16131694738E+03 -0.21699541774E+03  0.32250112898E+03  0.84309387604E+02 0.  0.
          6    2    1    2  501    0  0.15893135577E+03  0.14405695054E+03 -0.76643903928E+03  0.81443580487E+03  0.17281579349E+03 0.  0.
         24    2    5    5    0    0  0.18567778718E+02  0.51261112000E+02 -0.17180164905E+03  0.19643198832E+03  0.78084924341E+02 0.  0.
          5    1    5    5  501    0  0.14036357705E+03  0.92795838540E+02 -0.59463739023E+03  0.61800381655E+03  0.47000000000E+01 0. -1.
        -11    1    6    6    0    0  0.14211198953E+02  0.72035616272E+02 -0.14178210643E+03  0.15966606994E+03  0.00000000000E+00 0.  1.
         12    1    6    6    0    0  0.43565797649E+01 -0.20774504273E+02 -0.30019542622E+02  0.36765918379E+02  0.00000000000E+00 0. -1.
         -5    1    3    3    0  503 -0.46953790325E+01  0.17259996842E+02 -0.75796794552E+02  0.78020498201E+02  0.47000000000E+01 0.  1.
         13    1    4    4    0    0 -0.82603009055E+02 -0.13747545775E+03 -0.12405868324E+03  0.20276418686E+03  0.00000000000E+00 0. -1.
        -14    1    4    4    0    0 -0.71632967678E+02 -0.23841489637E+02 -0.92936734503E+02  0.11973694211E+03  0.00000000000E+00 0.  1.
</event>
<event>
12    1  0.1039610E+000  0.2618824E+03  0.7818608E-02  0.1106105E+00
         21   -1    0    0  503  502  0.00000000000E+00  0.00000000000E+00  0.56295762644E+03  0.56295762644E+03  0.00000000000E+00 0. -1.
         21   -1    0    0  501  503 -0.00000000000E+00 -0.00000000000E+00 -0.18845102595E+03  0.18845102595E+03  0.00000000000E+00 0.  1.
          6    2    1    2  501    0  0.28043660538E+02  0.19490742691E+03  0.41096598702E+03  0.48700044800E+03  0.17175867343E+03 0.  0.
         24    2    3    3    0    0  0.37740327013E+02  0.42462900505E+02  0.96516411398E+02  0.13738067656E+03  0.79565082919E+02 0.  0.
         -6    2    1    2    0  502 -0.28043660538E+02 -0.19490742691E+03 -0.36459386535E+02  0.26440820440E+03  0.17264721175E+03 0.  0.
        -24    2    5    5    0    0 -0.74057320751E+02 -0.15596766612E+03 -0.57907057184E+02  0.20025483759E+03  0.83296897152E+02 0.  0.
          5    1    3    3  501    0 -0.96966664752E+01  0.15244452640E+03  0.31444957563E+03  0.34961977144E+03  0.47000000000E+01 0. -1.
        -13    1    4    4    0    0 -0.68249891252E+01  0.18055857358E+02 -0.82120729790E+01  0.20976954118E+02  0.00000000000E+00 0.  1.
         14    1    4    4    0    0  0.44565316138E+02  0.24407043147E+02  0.10472848438E+03  0.11640372244E+03  0.00000000000E+00 0. -1.
         -5    1    5    5    0  502  0.46013660213E+02 -0.38939760789E+02  0.21447670649E+02  0.64153366808E+02  0.47000000000E+01 0.  1.
         13    1    6    6    0    0 -0.15366957501E+02 -0.10486447162E+03 -0.49027425193E+01  0.10609777413E+03  0.00000000000E+00 0. -1.
        -14    1    6    6    0    0 -0.58690363251E+02 -0.51103194499E+02 -0.53004314665E+02  0.94157063461E+02  0.00000000000E+00 0.  1.
</event>
<event>
12    1  0.1039610E+000  0.3993947E+03  0.7818608E-02  0.1044001E+00
         21   -1    0    0  503  502  0.00000000000E+00  0.00000000000E+00  0.18896258877E+03  0.18896258877E+03  0.00000000000E+00 0.  1.
         21   -1    0    0  501  503 -0.00000000000E+00 -0.00000000000E+00 -0.93613938738E+03  0.93613938738E+03  0.00000000000E+00 0.  1.
          6    2    1    2  501    0  0.35742688572E+03 -0.48270295284E+02 -0.55013574761E+03  0.67974668630E+03  0.17123731104E+03 0.  0.
         24    2    3    3    0    0  0.28459094963E+03 -0.90666042249E+02 -0.47489529068E+03  0.56667286393E+03  0.79876515760E+02 0.  0.
         -6    2    1    2    0  502 -0.35742688572E+03  0.48270295284E+02 -0.19704105099E+03  0.44535528985E+03  0.17155803209E+03 0.  0.
        -24    2    5    5    0    0 -0.10803334534E+03 -0.20722497247E+02 -0.37727414647E+02  0.14144729698E+03  0.80519279733E+02 0.  0.
          5    1    3    3  501    0  0.72835936090E+02  0.42395746965E+02 -0.75240456927E+02  0.11307382237E+03  0.47000000000E+01 0. -1.
        -13    1    4    4    0    0  0.23450242744E+03 -0.53730802181E+02 -0.41832359950E+03  0.48256918828E+03  0.00000000000E+00 0.  1.
         14    1    4    4    0    0  0.50088522196E+02 -0.36935240068E+02 -0.56571691185E+02  0.84103675652E+02  0.00000000000E+00 0. -1.
         -5    1    5    5    0  502 -0.24939354039E+03  0.68992792531E+02 -0.15931363635E+03  0.30390799288E+03  0.47000000000E+01 0.  1.
         11    1    6    6    0    0 -0.12075521696E+03 -0.22434635618E+02 -0.29886530822E+02  0.12640545884E+03  0.00000000000E+00 0. -1.
        -12    1    6    6    0    0  0.12721871625E+02  0.17121383712E+01 -0.78408838253E+01  0.15041838139E+02  0.00000000000E+00 0.  1.
</event>
<event>
12    1  0.1039610E+000  0.1967874E+03  0.7818608E-02  0.1153049E+00
         21   -1    0    0  501  502  0.00000000000E+00  0.00000000000E+00  0.36869173508E+03  0.36869173508E+03  0.00000000000E+00 0. -1.
         21   -1    0    0  502  503 -0.00000000000E+00 -0.00000000000E+00 -0.11174219637E+03  0.11174219637E+03  0.00000000000E+00 0. -1.
         -6    2    1    2    0  503 -0.32501128956E+02  0.90200832187E+02  0.64574202559E+02  0.20711134587E+03  0.17185100652E+03 0.  0.
        -24    2    3    3    0    0  0.47789992712E+02  0.42674352043E+02  0.29960440628E+02  0.10748387452E+03  0.80933130134E+02 0.  0.
          6    2    1    2  501    0  0.32501128956E+02 -0.90200832187E+02  0.19237533615E+03  0.27332258557E+03  0.16883261627E+03 0.  0.
         24    2    5    5    0    0 -0.13132048267E+02 -0.79916950162E+02  0.56533562735E+02  0.12957550735E+03  0.83872515018E+02 0.  0.
          5    1    5    5  501    0  0.45633177223E+02 -0.10283882025E+02  0.13584177341E+03  0.14374707822E+03  0.47000000000E+01 0. -1.
        -13    1    6    6    0    0  0.27229770587E+02 -0.10026439436E+02  0.36109049317E+02  0.46323356275E+02  0.00000000000E+00 0.  1.
         14    1    6    6    0    0 -0.40361818854E+02 -0.69890510726E+02  0.20424513417E+02  0.83252151078E+02  0.00000000000E+00 0. -1.
         -5    1    3    3    0  503 -0.80291121668E+02  0.47526480144E+02  0.34613761932E+02  0.99627471355E+02  0.47000000000E+01 0.  1.
         13    1    4    4    0    0  0.61367885485E+02  0.41759553276E+01  0.24860995432E+02  0.66343990427E+02  0.00000000000E+00 0. -1.
        -14    1    4    4    0    0 -0.13577892774E+02  0.38498396716E+02  0.50994451952E+01  0.41139884092E+02  0.00000000000E+00 0.  1.
</event>
<event>
12    1  0.1039610E+000  0.2164440E+03  0.7818608E-02  0.1137331E+00
         21   -1    0    0  501  502  0.00000000000E+00  0.00000000000E+00  0.68548411000E+03  0.68548411000E+03  0.00000000000E+00 0. -1.
         21   -1    0    0  502  503 -0.00000000000E+00 -0.00000000000E+00 -0.67862202431E+02  0.67862202431E+02  0.00000000000E+00 0. -1.
         -6    2    1    2    0  503  0.12339727298E+03  0.13294136459E+02  0.34622474313E+03  0.40620886369E+03  0.17242519288E+03 0.  0.
        -24    2    3    3    0    0  0.53861321103E+02 -0.57431090380E+02  0.20984537701E+03  0.23751171547E+03  0.78596187423E+02 0.  0.
          6    2    1    2  501    0 -0.12339727298E+03 -0.13294136459E+02  0.27139716443E+03  0.34713744874E+03  0.17732559435E+03 0.  0.
         24    2    5    5    0    0 -0.13447350093E+03  0.28718654635E+02  0.15099135896E+03  0.21904605390E+03  0.79214264309E+02 0.  0.
          5    1    5    5  501    0  0.11076227953E+02 -0.42012791094E+02  0.12040580547E+03  0.12809139484E+03  0.47000000000E+01 0. -1.
        -13    1    6    6    0    0 -0.10801104239E+03  0.54961442588E+02  0.12038425505E+03  0.17082012268E+03  0.00000000000E+00 0.  1.
         14    1    6    6    0    0 -0.26462458544E+02 -0.26242787953E+02  0.30607103908E+02  0.48225931213E+02  0.00000000000E+00 0. -1.
         -5    1    3    3    0  503  0.69535951876E+02  0.70725226839E+02  0.13637936612E+03  0.16869714822E+03  0.47000000000E+01 0.  1.
         11    1    4    4    0    0  0.13048598203E+02 -0.23735082820E+02  0.71396528382E+01  0.28010617883E+02  0.00000000000E+00 0. -1.
        -12    1    4    4    0    0  0.40812722900E+02 -0.33696007560E+02  0.20270572417E+03  0.20950109758E+03  0.00000000000E+00 0.  1.
</event>
<event>
12    1  0.1039610E+000  0.1737651E+03  0.7818608E-02  0.1174423E+00
         21   -1    0    0  503  502  0.00000000000E+00  0.00000000000E+00  0.78005595369E+02  0.78005595369E+02  0.00000000000E+00 0.  1.
         21   -1    0    0  501  503 -0.00000000000E+00 -0.00000000000E+00 -0.38335438381E+03  0.38335438381E+03  0.00000000000E+00 0.  1.
          6    2    1    2  501    0  0.16767526705E+01 -0.95574709176E+01 -0.14872531885E+03  0.22872151824E+03  0.17349396442E+03 0.  0.
         24    2    3    3    0    0  0.33480190327E+00  0.61354523315E+02 -0.68044848633E+02  0.12119598624E+03  0.79333952582E+02 0.  0.
         -6    2    1    2    0  502 -0.16767526705E+01  0.95574709176E+01 -0.15662346959E+03  0.23263846093E+03  0.17174278887E+03 0.  0.
        -24    2    5    5    0    0  0.54285358253E+02 -0.18339942290E+02 -0.55722319045E+02  0.11383965747E+03  0.81063167772E+02 0.  0.
          5    1    3    3  501    0  0.13419507673E+01 -0.70911994233E+02 -0.80680470215E+02  0.10752553200E+03  0.47000000000E+01 0. -1.
        -11    1    4    4    0    0 -0.31543661264E+02  0.22184484823E+01 -0.31864639151E+02  0.44891862378E+02  0.00000000000E+00 0.  1.
         12    1    4    4    0    0  0.31878463167E+02  0.59136074833E+02 -0.36180209481E+02  0.76304123864E+02  0.00000000000E+00 0. -1.
         -5    1    5    5    0  502 -0.55962110924E+02  0.27897413208E+02 -0.10090115054E+03  0.11879880346E+03  0.47000000000E+01 0.  1.
         13    1    6    6    0    0  0.57439643042E+01 -0.83767814271E+01  0.20527282389E+02  0.22902683583E+02  0.00000000000E+00 0. -1.
        -14    1    6    6    0    0  0.48541393949E+02 -0.99631608632E+01 -0.76249601434E+02  0.90936973887E+02  0.00000000000E+00 0.  1.
</event>
<event>
12    1  0.1039610E+000  0.1765905E+03  0.7818608E-02  0.1171314E+00
         21   -1    0    0  503  502  0.00000000000E+00  0.00000000000E+00  0.35171476817E+03  0.35171476817E+03  0.00000000000E+00 0.  1.
         21   -1    0    0  501  503 -0.00000000000E+00 -0.00000000000E+00 -0.88831886147E+02  0.88831886147E+02  0.00000000000E+00 0.  1.
          6    2    1    2  501    0 -0.78609198990E+01  0.36740372381E+02  0.11498087898E+03  0.21072447052E+03  0.17254724258E+03 0.  0.
         24    2    3    3    0    0  0.60462833191E+02  0.21981183601E+02  0.51636336305E+02  0.11627559559E+03  0.81943738455E+02 0.  0.
         -6    2    1    2    0  502  0.78609198990E+01 -0.36740372381E+02  0.14790200304E+03  0.22982218380E+03  0.17184756221E+03 0.  0.
        -24    2    5    5    0    0 -0.43918013260E+02  0.25464737871E+02  0.69566074697E+02  0.11708735630E+03  0.79326953132E+02 0.  0.
          5    1    3    3  501    0 -0.68323753090E+02  0.14759188780E+02  0.63344542679E+02  0.94448874938E+02  0.47000000000E+01 0. -1.
        -11    1    4    4    0    0  0.10429103944E+02 -0.34494725686E+01 -0.21465463068E+02  0.24112883999E+02  0.00000000000E+00 0.  1.
         12    1    4    4    0    0  0.50033729248E+02  0.25430656170E+02  0.73101799372E+02  0.92162711587E+02  0.00000000000E+00 0. -1.
         -5    1    5    5    0  502  0.51778933159E+02 -0.62205110252E+02  0.78335928344E+02  0.11273482749E+03  0.47000000000E+01 0.  1.
         11    1    6    6    0    0 -0.35261809480E+02 -0.23677979292E+02  0.43472245547E+02  0.60777282302E+02  0.00000000000E+00 0. -1.
        -12    1    6    6    0    0 -0.86562037801E+01  0.49142717163E+02  0.26093829150E+02  0.56310073999E+02  0.00000000000E+00 0.  1.
</event>
<event>
12    1  0.1039610E+000  0.2262750E+03  0.7818608E-02  0.1129934E+00
         21   -1    0    0  501  502  0.00000000000E+00  0.00000000000E+00  0.23534243671E+03  0.23534243671E+03  0.00000000000E+00 0.  1.
         21   -1    0    0  502  503 -0.00000000000E+00 -0.00000000000E+00 -0.30278025862E+03  0.30278025862E+03  0.00000000000E+00 0.  1.
         -6    2    1    2    0  503  0.78877078412E+02 -0.12222392799E+03  0.11203972153E+03  0.24931036599E+03  0.16864897662E+03 0.  0.
        -24    2    3    3    0    0  0.76947531325E+02 -0.78342883683E+02  0.14342290679E+03  0.19512306564E+03  0.73785842483E+02 0.  0.
          6    2    1    2  501    0 -0.78877078412E+02  0.12222392799E+03 -0.17947754345E+03  0.28881232935E+03  0.17332077460E+03 0.  0.
         24    2    5    5    0    0 -0.23578832927E+02  0.12835707547E+03 -0.17695704846E+03  0.23291998330E+03  0.76853246105E+02 0.  0.
          5    1    5    5  501    0 -0.55298245485E+02 -0.61331474744E+01 -0.25204949913E+01  0.55892346047E+02  0.47000000000E+01 0. -1.
        -13    1    6    6    0    0 -0.35174957472E+02  0.79594315574E+02 -0.60071106502E+02  0.10574058134E+03  0.00000000000E+00 0.  1.
         14    1    6    6    0    0  0.11596124545E+02  0.48762759891E+02 -0.11688594196E+03  0.12717940196E+03  0.00000000000E+00 0. -1.
         -5    1    3    3    0  503  0.19295470868E+01 -0.43881044308E+02 -0.31383185262E+02  0.54187300345E+02  0.47000000000E+01 0.  1.
         13    1    4    4    0    0 -0.81577514168E+00 -0.26283369377E+02  0.74201483470E+02  0.78723193177E+02  0.00000000000E+00 0. -1.
        -14    1    4    4    0    0  0.77763306467E+02 -0.52059514306E+02  0.69221423324E+02  0.11639987246E+03  0.00000000000E+00 0.  1.
</event>
<event>
12    1  0.1039610E+000  0.1960972E+03  0.7818608E-02  0.1153171E+00
         21   -1    0    0  501  502  0.00000000000E+00  0.00000000000E+00  0.44220359851E+03  0.44220359851E+03  0.00000000000E+00 0.  1.
         21   -1    0    0  502  503 -0.00000000000E+00 -0.00000000000E+00 -0.87258101716E+02  0.87258101716E+02  0.00000000000E+00 0.  1.
         -6    2    1    2    0  503  0.41467533622E+02 -0.85167063653E+02  0.15733196619E+03  0.25106410634E+03  0.17119244385E+03 0.  0.
        -24    2    3    3    0    0  0.92290035926E+02 -0.75523545647E+02  0.12010271848E+03  0.18715768205E+03  0.79887910762E+02 0.  0.
          6    2    1    2  501    0 -0.41467533622E+02  0.85167063653E+02  0.19761353060E+03  0.27839759388E+03  0.17170069228E+03 0.  0.
         24    2    5    5    0    0 -0.93249774930E+01  0.10631360476E+03  0.19915372986E+03  0.23960606995E+03  0.79745362743E+02 0.  0.
          5    1    5    5  501    0 -0.32142556129E+02 -0.21146541107E+02 -0.15401992590E+01  0.38791523933E+02  0.47000000000E+01 0. -1.
        -11    1    6    6    0    0  0.14235784655E+01  0.32690847312E+01  0.86430596232E+02  0.86504112363E+02  0.00000000000E+00 0.  1.
         12    1    6    6    0    0 -0.10748555958E+02  0.10304452003E+03  0.11272313363E+03  0.15310195759E+03  0.00000000000E+00 0. -1.
         -5    1    3    3    0  503 -0.50822502305E+02 -0.96435180067E+01  0.37229247713E+02  0.63906424288E+02  0.47000000000E+01 0.  1.
         11    1    4    4    0    0  0.16258254870E+02 -0.76815972314E+01  0.72484612823E+02  0.74681703807E+02  0.00000000000E+00 0. -1.
        -12    1    4    4    0    0  0.76031781056E+02 -0.67841948415E+02  0.47618105655E+02  0.11247597824E+03  0.00000000000E+00 0.  1.
</event>
<event>
12    1  0.1039610E+000  0.2028023E+03  0.7818608E-02  0.1148004E+00
         21   -1    0    0  503  502  0.00000000000E+00  0.00000000000E+00  0.69274050186E+02  0.69274050186E+02  0.00000000000E+00 0. -1.
         21   -1    0    0  501  503 -0.00000000000E+00 -0.00000000000E+00 -0.77653746972E+03  0.77653746972E+03  0.00000000000E+00 0. -1.
          6    2    1    2  501    0  0.10466906550E+03  0.65191736281E+01 -0.14564653261E+03  0.24968313649E+03  0.17358180575E+03 0.  0.
         24    2    3    3    0    0  0.34606041863E+02  0.20823543546E+02 -0.15427325389E+03  0.17750313509E+03  0.77948239257E+02 0.  0.
         -6    2    1    2    0  502 -0.10466906550E+03 -0.65191736281E+01 -0.56161688693E+03  0.59612838342E+03  0.17016876605E+03 0.  0.
        -24    2    5    5    0    0 -0.11275072245E+03 -0.37871175765E+02 -0.53585379227E+03  0.55448599800E+03  0.78539696492E+02 0.  0.
          5    1    3    3  501    0  0.70063023642E+02 -0.14304369918E+02  0.86267212851E+01  0.72180001390E+02  0.47000000000E+01 0. -1.
        -13    1    4    4    0    0  0.40144963137E+02 -0.83419362177E+01 -0.32952276775E+02  0.52602837469E+02  0.00000000000E+00 0.  1.
         14    1    4    4    0    0 -0.55389212742E+01  0.29165479764E+02 -0.12132097712E+03  0.12490029763E+03  0.00000000000E+00 0. -1.
         -5    1    5    5    0  502  0.80816569431E+01  0.31352002137E+02 -0.25763094660E+02  0.41642385420E+02  0.47000000000E+01 0.  1.
         13    1    6    6    0    0 -0.34161815938E+02 -0.42484749379E+02 -0.32242166184E+03  0.32699802999E+03  0.00000000000E+00 0. -1.
        -14    1    6    6    0    0 -0.78588906510E+02  0.46135736133E+01 -0.21343213043E+03  0.22748796801E+03  0.00000000000E+00 0.  1.
</event>
<event>
12    1  0.1039610E+000  0.4752557E+03  0.7818608E-02  0.1020451E+00
         21   -1    0    0  503  502  0.00000000000E+00  0.00000000000E+00  0.61892087451E+03  0.61892087451E+03  0.00000000000E+00 0.  1.
         21   -1    0    0  501  503 -0.00000000000E+00 -0.00000000000E+00 -0.42545534300E+03  0.42545534300E+03  0.00000000000E+00 0.  1.
          6    2    1    2  501    0  0.22868192488E+03  0.37923550500E+03  0.29375267812E+03  0.55871152645E+03  0.17249041384E+03 0.  0.
         24    2    3    3    0    0  0.12074323668E+03  0.23767376453E+03  0.10354063005E+03  0.29814829035E+03  0.84285190989E+02 0.  0.
         -6    2    1    2    0  502 -0.22868192488E+03 -0.37923550500E+03 -0.10028714661E+03  0.48566469107E+03  0.17233017539E+03 0.  0.
        -24    2    5    5    0    0 -0.16462917907E+03 -0.29031940944E+03 -0.97766724250E+01  0.34345687751E+03  0.80491721893E+02 0.  0.
          5    1    3    3  501    0  0.10793868820E+03  0.14156174048E+03  0.19021204807E+03  0.26056323610E+03  0.47000000000E+01 0. -1.
        -13    1    4    4    0    0 -0.30298495696E+01  0.11303406194E+01  0.17293471745E+02  0.17593232316E+02  0.00000000000E+00 0.  1.
         14    1    4    4    0    0  0.12377308625E+03  0.23654342391E+03  0.86247158308E+02  0.28055505804E+03  0.00000000000E+00 0. -1.
         -5    1    5    5    0  502 -0.64052745813E+02 -0.88916095570E+02 -0.90510474187E+02  0.14220781355E+03  0.47000000000E+01 0.  1.
         11    1    6    6    0    0 -0.16413730500E+03 -0.22999024508E+03 -0.14619793672E+02  0.28293162795E+03  0.00000000000E+00 0. -1.
        -12    1    6    6    0    0 -0.49187406332E+00 -0.60329164352E+02  0.48431212471E+01  0.60525249565E+02  0.00000000000E+00 0.  1.
</event>
<event>
12    1  0.1039610E+000  0.1853739E+03  0.7818608E-02  0.1163419E+00
         21   -1    0    0  501  502  0.00000000000E+00  0.00000000000E+00  0.30332648620E+02  0.30332648620E+02  0.00000000000E+00 0. -1.
         21   -1    0    0  502  503 -0.00000000000E+00 -0.00000000000E+00 -0.12226203556E+04  0.12226203556E+04  0.00000000000E+00 0. -1.
         -6    2    1    2    0  503 -0.65893372095E+02  0.14675209532E+02 -0.41418897175E+03  0.45377966426E+03  0.17264466721E+03 0.  0.
        -24    2    3    3    0    0 -0.48824245196E+02  0.28347929865E+02 -0.10457143475E+03  0.14335510404E+03  0.80175363048E+02 0.  0.
          6    2    1    2  501    0  0.65893372095E+02 -0.14675209532E+02 -0.77809873519E+03  0.79917333992E+03  0.16936081978E+03 0.  0.
         24    2    5    5    0    0 -0.17940955558E+00 -0.48505027860E+02 -0.59273788695E+03  0.59944651863E+03  0.75134254208E+02 0.  0.
          5    1    5    5  501    0  0.66072781651E+02  0.33829818328E+02 -0.18536084824E+03  0.19972682130E+03  0.47000000000E+01 0. -1.
        -11    1    6    6    0    0 -0.18650343151E+02 -0.20754285788E+01 -0.39659550307E+03  0.39703921186E+03  0.00000000000E+00 0.  1.
         12    1    6    6    0    0  0.18470933595E+02 -0.46429599281E+02 -0.19614238388E+03  0.20240730676E+03  0.00000000000E+00 0. -1.
         -5    1    3    3    0  503 -0.17069126900E+02 -0.13672720334E+02 -0.30961753699E+03  0.31042456022E+03  0.47000000000E+01 0.  1.
         11    1    4    4    0    0 -0.96404418653E+01 -0.27830389791E+02 -0.34637617109E+02  0.45466836642E+02  0.00000000000E+00 0. -1.
        -12    1    4    4    0    0 -0.39183803330E+02  0.56178319656E+02 -0.69933817645E+02  0.97888267393E+02  0.00000000000E+00 0.  1.
</event>
<event>
12    1  0.1039610E+000  0.1822477E+03  0.7818608E-02  0.1166100E+00
         21   -1    0    0  501  502  0.00000000000E+00  0.00000000000E+00  0.32139604312E+02  0.32139604312E+02  0.00000000000E+00 0.  1.
         21   -1    0    0  502  503 -0.00000000000E+00 -0.00000000000E+00 -0.10227347126E+04  0.10227347126E+04  0.00000000000E+00 0.  1.
         -6    2    1    2    0  503  0.51757262131E+02  0.74283233003E+01 -0.49630304313E+03  0.52805475386E+03  0.17260103788E+03 0.  0.
        -24    2    3    3    0    0  0.49715992124E+02 -0.55407872742E+02 -0.22276646388E+03  0.24734689058E+03  0.77549175466E+02 0.  0.
          6    2    1    2  501    0 -0.51757262131E+02 -0.74283233003E+01 -0.49429206511E+03  0.52681956301E+03  0.17458583038E+03 0.  0.
         24    2    5    5    0    0 -0.69749163847E+02 -0.67298480996E+01 -0.49680819170E+03  0.50804145639E+03  0.79859284755E+02 0.  0.
          5    1    5    5  501    0  0.17991901717E+02 -0.69847520067E+00  0.25161265922E+01  0.18778106614E+02  0.47000000000E+01 0. -1.
        -13    1    6    6    0    0 -0.46289238691E+02  0.34978225974E+02 -0.29322526503E+03  0.29891006333E+03  0.00000000000E+00 0.  1.
         14    1    6    6    0    0 -0.23459925157E+02 -0.41708074073E+02 -0.20358292667E+03  0.20913139306E+03  0.00000000000E+00 0. -1.
         -5    1    3    3    0  503  0.20412700064E+01  0.62836196042E+02 -0.27353657925E+03  0.28070786328E+03  0.47000000000E+01 0.  1.
         13    1    4    4    0    0 -0.18495598243E+02 -0.25238448078E+02 -0.47613174461E+02  0.56974387211E+02  0.00000000000E+00 0. -1.
        -14    1    4    4    0    0  0.68211590367E+02 -0.30169424664E+02 -0.17515328942E+03  0.19037250337E+03  0.00000000000E+00 0.  1.
</event>
<event>
12    1  0.1039610E+000  0.1822479E+03  0.7818608E-02  0.1166086E+00
         21   -1    0    0  503  502  0.00000000000E+00  0.00000000000E+00  0.52475253477E+03  0.52475253477E+03  0.00000000000E+00 0.  1.
         21   -1    0    0  501  503 -0.00000000000E+00 -0.00000000000E+00 -0.65421696197E+02  0.65421696197E+02  0.00000000000E+00 0.  1.
          6    2    1    2  501    0 -0.36538028386E+02  0.40730747051E+02  0.17012896477E+03  0.24931538766E+03  0.17383980153E+03 0.  0.
         24    2    3    3    0    0 -0.22878755995E+02  0.84143137097E+02  0.15829703502E+03  0.20205762752E+03  0.90364974111E+02 0.  0.
         -6    2    1    2    0  502  0.36538028386E+02 -0.40730747051E+02  0.28920187381E+03  0.34085884331E+03  0.17190987748E+03 0.  0.
        -24    2    5    5    0    0  0.38485106836E+01  0.29690493862E+02  0.22225634993E+03  0.23823550821E+03  0.80386166895E+02 0.  0.
          5    1    3    3  501    0 -0.13659272391E+02 -0.43412390046E+02  0.11831929743E+02  0.47257760137E+02  0.47000000000E+01 0. -1.
        -11    1    4    4    0    0  0.26102924750E+02 -0.22873270650E+01  0.31322831909E+02  0.40837658410E+02  0.00000000000E+00 0.  1.
         12    1    4    4    0    0 -0.48981680745E+02  0.86430464162E+02  0.12697420311E+03  0.16121996911E+03  0.00000000000E+00 0. -1.
         -5    1    5    5    0  502  0.32689517702E+02 -0.70421240913E+02  0.66945523877E+02  0.10262333510E+03  0.47000000000E+01 0.  1.
         11    1    6    6    0    0  0.33782899645E+02  0.98151786272E+01  0.43706186866E+02  0.56105728855E+02  0.00000000000E+00 0. -1.
        -12    1    6    6    0    0 -0.29934388962E+02  0.19875315235E+02  0.17855016307E+03  0.18212977936E+03  0.00000000000E+00 0.  1.
</event>
<event>
12    1  0.1039610E+000  0.3425179E+03  0.7818608E-02  0.1066174E+00
         21   -1    0    0  503  502  0.00000000000E+00  0.00000000000E+00  0.39941034476E+03  0.39941034476E+03  0.00000000000E+00 0.  1.
         21   -1    0    0  501  503 -0.00000000000E+00 -0.00000000000E+00 -0.31713388160E+03  0.31713388160E+03  0.00000000000E+00 0.  1.
          6    2    1    2  501    0  0.27247129465E+03 -0.10307563912E+03  0.14543233244E+03  0.36825240784E+03  0.17202929626E+03 0.  0.
         24    2    3    3    0    0  0.62510185387E+02 -0.49799850534E+02  0.15361925052E+02  0.11554234090E+03  0.82015214502E+02 0.  0.
         -6    2    1    2    0  502 -0.27247129465E+03  0.10307563912E+03 -0.63155869284E+02  0.34829181852E+03  0.18014808696E+03 0.  0.
        -24    2    5    5    0    0 -0.29328945267E+03  0.10377938126E+03 -0.60445388029E+02  0.32676677114E+03  0.79586523734E+02 0.  0.
          5    1    3    3  501    0  0.20996110927E+03 -0.53275788581E+02  0.13007040739E+03  0.25271006694E+03  0.47000000000E+01 0. -1.
        -13    1    4    4    0    0  0.37874314857E+02 -0.22113404128E+02 -0.32804354457E+02  0.54768531470E+02  0.00000000000E+00 0.  1.
         14    1    4    4    0    0  0.24635870530E+02 -0.27686446406E+02  0.48166279509E+02  0.60773809434E+02  0.00000000000E+00 0. -1.
         -5    1    5    5    0  502  0.20818158021E+02 -0.70374214414E+00 -0.27104812546E+01  0.21525047387E+02  0.47000000000E+01 0.  1.
         13    1    6    6    0    0 -0.21462328564E+03  0.84531147997E+02 -0.78740800277E+02  0.24373917073E+03  0.00000000000E+00 0. -1.
        -14    1    6    6    0    0 -0.78666167034E+02  0.19248233263E+02  0.18295412248E+02  0.83027600404E+02  0.00000000000E+00 0.  1.
</event>
<event>
12    1  0.1039610E+000  0.2175315E+03  0.7818608E-02  0.1136042E+00
         21   -1    0    0  503  502  0.00000000000E+00  0.00000000000E+00  0.18448387471E+03  0.18448387471E+03  0.00000000000E+00 0. -1.
         21   -1    0    0  501  503 -0.00000000000E+00 -0.00000000000E+00 -0.35142203262E+03  0.35142203262E+03  0.00000000000E+00 0. -1.
          6    2    1    2  501    0  0.13025892843E+03 -0.25556697650E+02 -0.22388672992E+03  0.31104349614E+03  0.17030048569E+03 0.  0.
         24    2    3    3    0    0  0.77536031750E+02 -0.16842305887E+02 -0.35866840472E+02  0.11552057348E+03  0.75914907390E+02 0.  0.
         -6    2    1    2    0  502 -0.13025892843E+03  0.25556697650E+02  0.56948572003E+02  0.22486241119E+03  0.17233522821E+03 0.  0.
        -24    2    5    5    0    0 -0.12031001285E+03  0.75396524910E+02  0.59405347396E+02  0.17376334028E+03  0.80657101138E+02 0.  0.
          5    1    3    3  501    0  0.52722896683E+02 -0.87143917621E+01 -0.18801988945E+03  0.19552292266E+03  0.47000000000E+01 0. -1.
        -13    1    4    4    0    0  0.56786784442E+02  0.96223184681E+01 -0.52562457169E+02  0.77975251225E+02  0.00000000000E+00 0.  1.
         14    1    4    4    0    0  0.20749247308E+02 -0.26464624356E+02  0.16695616697E+02  0.37545322252E+02  0.00000000000E+00 0. -1.
         -5    1    5    5    0  502 -0.99489155809E+01 -0.49839827261E+02 -0.24567753936E+01  0.51099070911E+02  0.47000000000E+01 0.  1.
         13    1    6    6    0    0 -0.35779994452E+02  0.32646295227E+02  0.62398187813E+02  0.78990647784E+02  0.00000000000E+00 0. -1.
        -14    1    6    6    0    0 -0.84530018400E+02  0.42750229683E+02 -0.29928404162E+01  0.94772692494E+02  0.00000000000E+00 0.  1.
</event>
<event>
12    1  0.1039610E+000  0.1995437E+03  0.7818608E-02  0.1150441E+00
         21   -1    0    0  501  502  0.00000000000E+00  0.00000000000E+00  0.30066000814E+03  0.30066000814E+03  0.00000000000E+00 0. -1.
         21   -1    0    0  502  503 -0.00000000000E+00 -0.00000000000E+00 -0.13146578396E+03  0.13146578396E+03  0.00000000000E+00 0. -1.
         -6    2    1    2    0  503  0.52367633736E+02 -0.85397394502E+02  0.87440971211E+02  0.21786145637E+03  0.17257637925E+03 0.  0.
        -24    2    3    3    0    0  0.10048508644E+03 -0.67479450691E+02  0.81109775936E+02  0.16591421391E+03  0.79359950629E+02 0.  0.
          6    2    1    2  501    0 -0.52367633736E+02  0.85397394502E+02  0.81753252967E+02  0.21426433572E+03  0.17085235480E+03 0.  0.
         24    2    5    5    0    0 -0.23871853759E+02  0.11723927862E+03  0.91336388455E+02  0.17022070342E+03  0.79484829768E+02 0.  0.
          5    1    5    5  501    0 -0.28495779978E+02 -0.31841884119E+02 -0.95831354876E+01  0.44043632304E+02  0.47000000000E+01 0. -1.
        -13    1    6    6    0    0  0.91420050953E+00  0.90272126216E+02  0.23751774027E+02  0.93349018760E+02  0.00000000000E+00 0.  1.
         14    1    6    6    0    0 -0.24786054268E+02  0.26967152406E+02  0.67584614428E+02  0.76871684660E+02  0.00000000000E+00 0. -1.
         -5    1    3    3    0  503 -0.48117452704E+02 -0.17917943811E+02  0.63311952745E+01  0.51947242456E+02  0.47000000000E+01 0.  1.
         11    1    4    4    0    0  0.84826407232E+01 -0.47976469468E+02  0.15075377450E+02  0.50999645308E+02  0.00000000000E+00 0. -1.
        -12    1    4    4    0    0  0.92002445717E+02 -0.19502981223E+02  0.66034398486E+02  0.11491456861E+03  0.00000000000E+00 0.  1.
</event>
<event>
12    1  0.1039610E+000  0.3098736E+03  0.7818608E-02  0.1080413E+00
         21   -1    0    0  501  502  0.00000000000E+00  0.00000000000E+00  0.76821939599E+03  0.76821939599E+03  0.00000000000E+00 0. -1.
         21   -1    0    0  502  503 -0.00000000000E+00 -0.00000000000E+00 -0.15039690812E+03  0.15039690812E+03  0.00000000000E+00 0. -1.
         -6    2    1    2    0  503  0.47397015986E+02  0.25325306850E+03  0.49774210102E+03  0.58628975638E+03  0.17206070289E+03 0.  0.
        -24    2    3    3    0    0  0.82627878448E+02  0.10119429757E+03  0.26433537661E+03  0.30546263432E+03  0.79790835811E+02 0.  0.
          6    2    1    2  501    0 -0.47397015986E+02 -0.25325306850E+03  0.12008038685E+03  0.33232654773E+03  0.17215702480E+03 0.  0.
         24    2    5    5    0    0 -0.65911990811E+02 -0.25451554812E+03  0.13665589568E+03  0.30700391674E+03  0.80336892530E+02 0.  0.
          5    1    5    5  501    0  0.18514974825E+02  0.12624796188E+01 -0.16575508824E+02  0.25322630991E+02  0.47000000000E+01 0. -1.
        -11    1    6    6    0    0  0.46905187726E+01 -0.13259469263E+03  0.81463919759E+02  0.15569111633E+03  0.00000000000E+00 0.  1.
         12    1    6    6    0    0 -0.70602509584E+02 -0.12192085549E+03  0.55191975919E+02  0.15131280041E+03  0.00000000000E+00 0. -1.
         -5    1    3    3    0  503 -0.35230862461E+02  0.15205877093E+03  0.23340672442E+03  0.28082712207E+03  0.47000000000E+01 0.  1.
         11    1    4    4    0    0  0.41571213932E+02 -0.21550435362E+01  0.79958032507E+02  0.90144866758E+02  0.00000000000E+00 0. -1.
        -12    1    4    4    0    0  0.41056664515E+02  0.10334934111E+03  0.18437734410E+03  0.21531776756E+03  0.00000000000E+00 0.  1.
</event>
<event>
12    1  0.1039610E+000  0.2875973E+03  0.7818608E-02  0.1091827E+00
         21   -1    0    0  503  502  0.00000000000E+00  0.00000000000E+00  0.56244062242E+03  0.56244062242E+03  0.00000000000E+00 0.  1.
         21   -1    0    0  501  503 -0.00000000000E+00 -0.00000000000E+00 -0.20069893731E+03  0.20069893731E+03  0.00000000000E+00 0. -1.
          6    2    1    2  501    0 -0.21964765627E+03 -0.69055828946E+02  0.38004383193E+03  0.47659786624E+03  0.17233227062E+03 0.  0.
         24    2    3    3    0    0 -0.13113490462E+03 -0.80841643308E+02  0.33350984907E+03  0.37579650620E+03  0.79135707146E+02 0.  0.
         -6    2    1    2    0  502  0.21964765627E+03  0.69055828946E+02 -0.18302146822E+02  0.28654169350E+03  0.16957999032E+03 0.  0.
        -24    2    5    5    0    0  0.51499761663E+02  0.24770875353E+02  0.37467240673E+02  0.10387482142E+03  0.78232746873E+02 0.  0.
          5    1    3    3  501    0 -0.88512751643E+02  0.11785814362E+02  0.46533982867E+02  0.10080136004E+03  0.47000000000E+01 0. -1.
        -11    1    4    4    0    0 -0.30492501399E+01 -0.37469480251E+02  0.62869979337E+02  0.73252263982E+02  0.00000000000E+00 0.  1.
         12    1    4    4    0    0 -0.12808565448E+03 -0.43372163057E+02  0.27063986973E+03  0.30254424222E+03  0.00000000000E+00 0. -1.
         -5    1    5    5    0  502  0.16814789460E+03  0.44284953593E+02 -0.55769387495E+02  0.18266687208E+03  0.47000000000E+01 0.  1.
         13    1    6    6    0    0  0.66241757897E+02  0.14862366285E+02  0.65311204475E+01  0.68202023102E+02  0.00000000000E+00 0. -1.
        -14    1    6    6    0    0 -0.14741996234E+02  0.99085090680E+01  0.30936120226E+02  0.35672798314E+02  0.00000000000E+00 0.  1.
</event>
<event>
12    1  0.1039610E+000  0.1822799E+03  0.7818608E-02  0.1165920E+00
         21   -1    0    0  503  502  0.00000000000E+00  0.00000000000E+00  0.18294577559E+03  0.18294577559E+03  0.00000000000E+00 0.  1.
         21   -1    0    0  501  503 -0.00000000000E+00 -0.00000000000E+00 -0.18321010144E+03  0.18321010144E+03  0.00000000000E+00 0.  1.
          6    2    1    2  501    0 -0.20516570885E+02  0.56601172906E+02  0.22761848453E+02  0.18242733790E+03  0.17069566313E+03 0.  0.
         24    2    3    3    0    0 -0.78110722413E+02  0.44397547829E+02  0.13217348725E+02  0.12260090369E+03  0.82364167382E+02 0.  0.
         -6    2    1    2    0  502  0.20516570885E+02 -0.56601172906E+02 -0.23026174297E+02  0.18372853913E+03  0.17205042556E+03 0.  0.
        -24    2    5    5    0    0 -0.32613596486E+01 -0.64372582796E+02 -0.71522161086E+02  0.12895869773E+03  0.85793125088E+02 0.  0.
          5    1    3    3  501    0  0.57594151528E+02  0.12203625076E+02  0.95444997282E+01  0.59826434210E+02  0.47000000000E+01 0. -1.
        -13    1    4    4    0    0 -0.36114136165E+02 -0.98390063116E+01  0.34371612032E+02  0.50817758607E+02  0.00000000000E+00 0.  1.
         14    1    4    4    0    0 -0.41996586248E+02  0.54236554141E+02 -0.21154263308E+02  0.71783145080E+02  0.00000000000E+00 0. -1.
         -5    1    5    5    0  502  0.23777930534E+02  0.77714098899E+01  0.48495986789E+02  0.54769841399E+02  0.47000000000E+01 0.  1.
         11    1    6    6    0    0  0.38642098387E+01 -0.84594018735E+02 -0.48883339250E+02  0.97778632531E+02  0.00000000000E+00 0. -1.
        -12    1    6    6    0    0 -0.71255694874E+01  0.20221435939E+02 -0.22638821837E+02  0.31180065204E+02  0.00000000000E+00 0.  1.
</event>
<event>
12    1  0.1048068E+000  0.3500274E+03  0.7818608E-02  0.1063233E+00
         21   -1    0    0  501  502  0.00000000000E+00  0.00000000000E+00  0.34483767466E+03  0.34483767466E+03  0.00000000000E+00 0.  1.
         21   -1    0    0  502  503 -0.00000000000E+00 -0.00000000000E+00 -0.43770108304E+03  0.43770108304E+03  0.00000000000E+00 0.  1.
         -6    2    1    2    0  503 -0.14099251632E+03 -0.26860727273E+03  0.12987076074E+03  0.36765361229E+03  0.16209258932E+03 0.  0.
        -24    2    3    3    0    0 -0.16487579745E+03 -0.20074818722E+03  0.10438586631E+03  0.29118900317E+03  0.80067241908E+02 0.  0.
          6    2    1    2  501    0  0.14099251632E+03  0.26860727273E+03 -0.22273416912E+03  0.41488514540E+03  0.17461505422E+03 0.  0.
         24    2    5    5    0    0  0.57567765653E+02  0.10673811628E+03 -0.27023576898E+02  0.14751641361E+03  0.79521981025E+02 0.  0.
          5    1    5    5  501    0  0.83424750669E+02  0.16186915645E+03 -0.19571059222E+03  0.26736873179E+03  0.47000000000E+01 0. -1.
        -11    1    6    6    0    0 -0.92094059066E+01 -0.30183093172E+01  0.98872601639E+01  0.13844900210E+02  0.00000000000E+00 0.  1.
         12    1    6    6    0    0  0.66777171560E+02  0.10975642560E+03 -0.36910837062E+02  0.13367151340E+03  0.00000000000E+00 0. -1.
         -5    1    3    3    0  503  0.23883281126E+02 -0.67859085511E+02  0.25484894427E+02  0.76464609119E+02  0.47000000000E+01 0.  1.
         13    1    4    4    0    0 -0.12288902575E+03 -0.19331249557E+03  0.84704617570E+02  0.24422593194E+03  0.00000000000E+00 0. -1.
        -14    1    4    4    0    0 -0.41986771694E+02 -0.74356916505E+01  0.19681248741E+02  0.46963071233E+02  0.00000000000E+00 0.  1.
</event>
<event>
12    1  0.1039610E+000  0.2331904E+03  0.7818608E-02  0.1125147E+00
         21   -1    0    0  501  502  0.00000000000E+00  0.00000000000E+00  0.10834215594E+03  0.10834215594E+03  0.00000000000E+00 0. -1.
         21   -1    0    0  502  503 -0.00000000000E+00 -0.00000000000E+00 -0.50761420659E+03  0.50761420659E+03  0.00000000000E+00 0. -1.
         -6    2    1    2    0  503  0.15063412926E+03 -0.45439879278E+02 -0.14547379001E+03  0.27129520842E+03  0.16638221961E+03 0.  0.
        -24    2    3    3    0    0  0.53247581794E+02  0.34210599856E+02 -0.58494408719E+02  0.11827285311E+03  0.81001245806E+02 0.  0.
          6    2    1    2  501    0 -0.15063412926E+03  0.45439879278E+02 -0.25379826064E+03  0.34466115412E+03  0.17211138988E+03 0.  0.
         24    2    5    5    0    0 -0.36406210460E+02  0.59087403796E+02 -0.67017387648E+02  0.12524498135E+03  0.79863894582E+02 0.  0.
          5    1    5    5  501    0 -0.11422791880E+03 -0.13647524517E+02 -0.18678087299E+03  0.21941617277E+03  0.47000000000E+01 0. -1.
        -11    1    6    6    0    0 -0.40938814122E+02  0.43223911235E+02 -0.83086850255E+02  0.10221407775E+03  0.00000000000E+00 0.  1.
         12    1    6    6    0    0  0.45326036617E+01  0.15863492560E+02  0.16069462607E+02  0.23030903600E+02  0.00000000000E+00 0. -1.
         -5    1    3    3    0  503  0.97386547467E+02 -0.79650479135E+02 -0.86979381288E+02  0.15302235531E+03  0.47000000000E+01 0.  1.
         11    1    4    4    0    0 -0.16771110436E+02  0.14264342151E+01 -0.32686062481E+02  0.36765249086E+02  0.00000000000E+00 0. -1.
        -12    1    4    4    0    0  0.70018692230E+02  0.32784165641E+02 -0.25808346238E+02  0.81507604025E+02  0.00000000000E+00 0.  1.
</event>
<event>
12    1  0.1039610E+000  0.4310857E+03  0.7818608E-02  0.1033530E+00
         21   -1    0    0  501  502  0.00000000000E+00  0.00000000000E+00  0.34912506607E+03  0.34912506607E+03  0.00000000000E+00 0. -1.
         21   -1    0    0  502  503 -0.00000000000E+00 -0.00000000000E+00 -0.77793858183E+03  0.77793858183E+03  0.00000000000E+00 0.  1.
         -6    2    1    2    0  503 -0.22573598741E+03  0.32489149431E+03 -0.53117662022E+03  0.68399133029E+03  0.17083418555E+03 0.  0.
        -24    2    3    3    0    0 -0.12479917034E+03  0.21854571602E+03 -0.23495377362E+03  0.35343463250E+03  0.79847985612E+02 0.  0.
          6    2    1    2  501    0  0.22573598741E+03 -0.32489149431E+03  0.10236310447E+03  0.44307231761E+03  0.17124150896E+03 0.  0.
         24    2    5    5    0    0  0.16643849225E+03 -0.28399123929E+03  0.13375535732E+03  0.36435391232E+03  0.80687558616E+02 0.  0.
          5    1    5    5  501    0  0.59297495155E+02 -0.40900255021E+02 -0.31392252850E+02  0.78718405290E+02  0.47000000000E+01 0. -1.
        -11    1    6    6    0    0  0.24207940052E+02 -0.11463117722E+03  0.56652383379E+02  0.13013771051E+03  0.00000000000E+00 0.  1.
         12    1    6    6    0    0  0.14223055220E+03 -0.16936006207E+03  0.77102973937E+02  0.23421620182E+03  0.00000000000E+00 0. -1.
         -5    1    3    3    0  503 -0.10093681707E+03  0.10634577829E+03 -0.29622284660E+03  0.33055669778E+03  0.47000000000E+01 0.  1.
         11    1    4    4    0    0 -0.12257771189E+03  0.20250716404E+03 -0.23937274057E+03  0.33665079217E+03  0.00000000000E+00 0. -1.
        -12    1    4    4    0    0 -0.22214584546E+01  0.16038551989E+02  0.44189669548E+01  0.16783840338E+02  0.00000000000E+00 0.  1.
</event>
<event>
12    1  0.1039610E+000  0.3770564E+03  0.7818608E-02  0.1052064E+00
         21   -1    0    0  503  502  0.00000000000E+00  0.00000000000E+00  0.22920513984E+03  0.22920513984E+03  0.00000000000E+00 0. -1.
         21   -1    0    0  501  503 -0.00000000000E+00 -0.00000000000E+00 -0.69448490719E+03  0.69448490719E+03  0.00000000000E+00 0. -1.
          6    2    1    2  501    0 -0.13467240029E+03 -0.30698093258E+03 -0.80899536794E+02  0.38524810683E+03  0.17174813067E+03 0.  0.
         24    2    3    3    0    0 -0.13668766281E+03 -0.19888272310E+03 -0.59781484911E+01  0.25362520379E+03  0.77795572048E+02 0.  0.
         -6    2    1    2    0  502  0.13467240029E+03  0.30698093258E+03 -0.38438023055E+03  0.53844194020E+03  0.17261985097E+03 0.  0.
        -24    2    5    5    0    0  0.96850530275E+01  0.75846235193E+02 -0.10023636769E+03  0.15139554747E+03  0.83826193654E+02 0.  0.
          5    1    3    3  501    0  0.20152625145E+01 -0.10809820949E+03 -0.74921388303E+02  0.13162290303E+03  0.47000000000E+01 0. -1.
        -13    1    4    4    0    0 -0.12442258001E+03 -0.19107367440E+03  0.14541046698E+02  0.22847662791E+03  0.00000000000E+00 0.  1.
         14    1    4    4    0    0 -0.12265082798E+02 -0.78090487002E+01 -0.20519195189E+02  0.25148575882E+02  0.00000000000E+00 0. -1.
         -5    1    5    5    0  502  0.12498734727E+03  0.23113469739E+03 -0.28414386287E+03  0.38704639272E+03  0.47000000000E+01 0.  1.
         11    1    6    6    0    0  0.64969017149E+01  0.92005894814E+02 -0.66041967851E+02  0.11344089179E+03  0.00000000000E+00 0. -1.
        -12    1    6    6    0    0  0.31881513127E+01 -0.16159659621E+02 -0.34194399838E+02  0.37954655685E+02  0.00000000000E+00 0.  1.
</event>
<event>
12    1  0.1039610E+000  0.1923892E+03  0.7818608E-02  0.1157218E+00
         21   -1    0    0  501  502  0.00000000000E+00  0.00000000000E+00  0.89642848603E+02  0.89642848603E+02  0.00000000000E+00 0. -1.
         21   -1    0    0  502  503 -0.00000000000E+00 -0.00000000000E+00 -0.43058869728E+03  0.43058869728E+03  0.00000000000E+00 0. -1.
         -6    2    1    2    0  503  0.26136773256E+01 -0.79611628327E+02 -0.23630014037E+03  0.30471522772E+03  0.17512501531E+03 0.  0.
        -24    2    3    3    0    0 -0.11821570706E+02 -0.42223590454E+01 -0.30927061069E+02  0.85416094082E+02  0.78624730028E+02 0.  0.
          6    2    1    2  501    0 -0.26136773256E+01  0.79611628327E+02 -0.10464570830E+03  0.21551631817E+03  0.17073873742E+03 0.  0.
         24    2    5    5    0    0 -0.55915806824E+02  0.83976897111E+02 -0.98716567810E+02  0.16150319673E+03  0.78483279065E+02 0.  0.
          5    1    5    5  501    0  0.53302129498E+02 -0.43652687835E+01 -0.59291404942E+01  0.54013121439E+02  0.47000000000E+01 0. -1.
        -11    1    6    6    0    0 -0.42613741460E+02  0.43419981941E+02 -0.81480052304E+01  0.61380907310E+02  0.00000000000E+00 0.  1.
         12    1    6    6    0    0 -0.13302065364E+02  0.40556915170E+02 -0.90568562580E+02  0.10012228942E+03  0.00000000000E+00 0. -1.
         -5    1    3    3    0  503  0.14435248031E+02 -0.75389269282E+02 -0.20537307931E+03  0.21929913363E+03  0.47000000000E+01 0.  1.
         13    1    4    4    0    0  0.83859013723E+01 -0.10468707448E+02 -0.53103000444E+02  0.54770848393E+02  0.00000000000E+00 0. -1.
        -14    1    4    4    0    0 -0.20207472078E+02  0.62463484030E+01  0.22175939376E+02  0.30645245689E+02  0.00000000000E+00 0.  1.
</event>
<event>
12    1  0.1039610E+000  0.2435408E+03  0.7818608E-02  0.1117492E+00
         21   -1    0    0  501  502  0.00000000000E+00  0.00000000000E+00  0.13412057114E+03  0.13412057114E+03  0.00000000000E+00 0. -1.
         21   -1    0    0  502  503 -0.00000000000E+00 -0.00000000000E+00 -0.55377246021E+03  0.55377246021E+03  0.00000000000E+00 0.  1.
         -6    2    1    2    0  503  0.10838080515E+03 -0.13463981846E+03 -0.55108958056E+02  0.24948264239E+03  0.17126094698E+03 0.  0.
        -24    2    3    3    0    0  0.25987898437E+02 -0.61832725957E+02 -0.88100520021E+02  0.13459140271E+03  0.76514620770E+02 0.  0.
          6    2    1    2  501    0 -0.10838080515E+03  0.13463981846E+03 -0.36454293102E+03  0.43841038896E+03  0.17157459297E+03 0.  0.
         24    2    5    5    0    0  0.16425088586E+01  0.94962055029E+02 -0.21441878746E+03  0.24804546831E+03  0.80812426033E+02 0.  0.
          5    1    5    5  501    0 -0.11002331400E+03  0.39677763433E+02 -0.15012414356E+03  0.19036492065E+03  0.47000000000E+01 0. -1.
        -13    1    6    6    0    0  0.10521086584E+02  0.78532699186E+01 -0.11425068822E+03  0.11500255158E+03  0.00000000000E+00 0.  1.
         14    1    6    6    0    0 -0.88785777250E+01  0.87108785110E+02 -0.10016809924E+03  0.13304291673E+03  0.00000000000E+00 0. -1.
         -5    1    3    3    0  503  0.82392906708E+02 -0.72807092505E+02  0.32991561965E+02  0.11489123968E+03  0.47000000000E+01 0.  1.
         11    1    4    4    0    0  0.13123588056E+02 -0.46688692630E+02 -0.45505582892E+01  0.48711088714E+02  0.00000000000E+00 0. -1.
        -12    1    4    4    0    0  0.12864310381E+02 -0.15144033327E+02 -0.83549961732E+02  0.85880313998E+02  0.00000000000E+00 0.  1.
</event>
<event>
12    1  0.1039610E+000  0.2329075E+03  0.7818608E-02  0.1124950E+00
         21   -1    0    0  503  502  0.00000000000E+00  0.00000000000E+00  0.19534783921E+04  0.19534783921E+04  0.00000000000E+00 0.  1.
         21   -1    0    0  501  503 -0.00000000000E+00 -0.00000000000E+00 -0.28009155783E+02  0.28009155783E+02  0.00000000000E+00 0.  1.
          6    2    1    2  501    0  0.77420496106E+02 -0.13710643285E+03  0.83003109199E+03  0.86156315594E+03  0.16895961308E+03 0.  0.
         24    2    3    3    0    0  0.70774010275E+02 -0.14976849344E+03  0.52931135585E+03  0.56046690346E+03  0.80703632413E+02 0.  0.
         -6    2    1    2    0  502 -0.77420496106E+02  0.13710643285E+03  0.10954381444E+04  0.11199243920E+04  0.17162111899E+03 0.  0.
        -24    2    5    5    0    0 -0.77350837156E+02  0.73879096664E+02  0.40040492474E+03  0.42200536569E+03  0.79518249321E+02 0.  0.
          5    1    3    3  501    0  0.66464858307E+01  0.12662060584E+02  0.30071973614E+03  0.30109625247E+03  0.47000000000E+01 0. -1.
        -11    1    4    4    0    0 -0.61406008851E-01  0.43551313169E+01  0.81354047364E+02  0.81470558866E+02  0.00000000000E+00 0.  1.
         12    1    4    4    0    0  0.70835416284E+02 -0.15412362475E+03  0.44795730849E+03  0.47899634460E+03  0.00000000000E+00 0. -1.
         -5    1    5    5    0  502 -0.69658949669E-01  0.63227336190E+02  0.69503321962E+03  0.69791902630E+03  0.47000000000E+01 0.  1.
         13    1    6    6    0    0 -0.51452917200E+02  0.67479277098E+02  0.37726526739E+03  0.38669101037E+03  0.00000000000E+00 0. -1.
        -14    1    6    6    0    0 -0.25897919956E+02  0.63998195660E+01  0.23139657356E+02  0.35314355312E+02  0.00000000000E+00 0.  1.
</event>
<event>
12    1  0.1039610E+000  0.1791861E+03  0.7818608E-02  0.1168618E+00
         21   -1    0    0  503  502  0.00000000000E+00  0.00000000000E+00  0.73937138816E+03  0.73937138816E+03  0.00000000000E+00 0.  1.
         21   -1    0    0  501  503 -0.00000000000E+00 -0.00000000000E+00 -0.98991580650E+02  0.98991580650E+02  0.00000000000E+00 0.  1.
          6    2    1    2  501    0  0.13715037558E+02 -0.47019052943E+02  0.61038774789E+01  0.17928999148E+03  0.17236226423E+03 0.  0.
         24    2    3    3    0    0 -0.41935066725E+02  0.81628268863E+00 -0.31447245286E+02  0.96722865681E+02  0.81284484195E+02 0.  0.
         -6    2    1    2    0  502 -0.13715037558E+02  0.47019052943E+02  0.63427593004E+03  0.65907297733E+03  0.17225661217E+03 0.  0.
        -24    2    5    5    0    0 -0.29073154259E+02  0.89348172868E+02  0.54944473113E+03  0.56291660235E+03  0.78468110353E+02 0.  0.
          5    1    3    3  501    0  0.55650104283E+02 -0.47835335632E+02  0.37551122765E+02  0.82567125798E+02  0.47000000000E+01 0. -1.
        -13    1    4    4    0    0 -0.28103855182E+02  0.19031131215E+02  0.20717483867E+02  0.39764617050E+02  0.00000000000E+00 0.  1.
         14    1    4    4    0    0 -0.13831211543E+02 -0.18214848526E+02 -0.52164729152E+02  0.56958248631E+02  0.00000000000E+00 0. -1.
         -5    1    5    5    0  502  0.15358116701E+02 -0.42329119925E+02  0.84831198911E+02  0.96156374988E+02  0.47000000000E+01 0.  1.
         13    1    6    6    0    0 -0.63858122716E+00  0.89717498439E+02  0.34375797166E+03  0.35527338824E+03  0.00000000000E+00 0. -1.
        -14    1    6    6    0    0 -0.28434573032E+02 -0.36932557073E+00  0.20568675946E+03  0.20764321410E+03  0.00000000000E+00 0.  1.
</event>
<event>
12    1  0.1039610E+000  0.1734725E+03  0.7818608E-02  0.1174542E+00
         21   -1    0    0  501  502  0.00000000000E+00  0.00000000000E+00  0.11399390490E+03  0.11399390490E+03  0.00000000000E+00 0.  1.
         21   -1    0    0  502  503 -0.00000000000E+00 -0.00000000000E+00 -0.55167849889E+03  0.55167849889E+03  0.00000000000E+00 0.  1.
         -6    2    1    2    0  503  0.19013928896E+02  0.11772722336E+02  0.22494849232E+02  0.17388197295E+03  0.17096431145E+03 0.  0.
        -24    2    3    3    0    0  0.54923656235E+02  0.54482161756E+02  0.33566699631E+02  0.11680062219E+03  0.80813043847E+02 0.  0.
          6    2    1    2  501    0 -0.19013928896E+02 -0.11772722336E+02 -0.46017944322E+03  0.49179043084E+03  0.17202494418E+03 0.  0.
         24    2    5    5    0    0  0.71596489870E+01 -0.15800727771E+02 -0.63516287704E+02  0.94216500671E+02  0.67390701311E+02 0.  0.
          5    1    5    5  501    0 -0.26173577883E+02  0.40280054354E+01 -0.39666315552E+03  0.39757393017E+03  0.47000000000E+01 0. -1.
        -11    1    6    6    0    0  0.28203018219E+02 -0.29875762152E+02 -0.52349489396E+02  0.66546528391E+02  0.00000000000E+00 0.  1.
         12    1    6    6    0    0 -0.21043369232E+02  0.14075034381E+02 -0.11166798308E+02  0.27669972279E+02  0.00000000000E+00 0. -1.
         -5    1    3    3    0  503 -0.35909727339E+02 -0.42709439420E+02 -0.11071850399E+02  0.57081350758E+02  0.47000000000E+01 0.  1.
         11    1    4    4    0    0 -0.52707609456E+01  0.37015922396E+02  0.38827466089E+02  0.53902982799E+02  0.00000000000E+00 0. -1.
        -12    1    4    4    0    0  0.60194417180E+02  0.17466239360E+02 -0.52607664582E+01  0.62897639390E+02  0.00000000000E+00 0.  1.
</event>
<event>
12    1  0.1039610E+000  0.1737107E+03  0.7818608E-02  0.1177921E+00
         21   -1    0    0  501  502  0.00000000000E+00  0.00000000000E+00  0.53311987790E+02  0.53311987790E+02  0.00000000000E+00 0.  1.
         21   -1    0    0  502  503 -0.00000000000E+00 -0.00000000000E+00 -0.61630527235E+03  0.61630527235E+03  0.00000000000E+00 0.  1.
         -6    2    1    2    0  503  0.22543822696E+02 -0.75194580374E+01 -0.13836125039E+03  0.21082779747E+03  0.15728877387E+03 0.  0.
        -24    2    3    3    0    0  0.13232902780E+02 -0.12209754271E+02 -0.16372506047E+03  0.18300505551E+03  0.79754417455E+02 0.  0.
          6    2    1    2  501    0 -0.22543822696E+02  0.75194580374E+01 -0.42463203417E+03  0.45878946267E+03  0.17207742567E+03 0.  0.
         24    2    5    5    0    0 -0.80629328488E+02  0.27217551961E+01 -0.30095321877E+03  0.32198491847E+03  0.81196990521E+02 0.  0.
          5    1    5    5  501    0  0.58085505793E+02  0.47977028413E+01 -0.12367881541E+03  0.13680454421E+03  0.47000000000E+01 0. -1.
        -11    1    6    6    0    0 -0.34276279810E-01  0.18343094399E+02 -0.12805737592E+02  0.22370900792E+02  0.00000000000E+00 0.  1.
         12    1    6    6    0    0 -0.80595052209E+02 -0.15621339203E+02 -0.28814748118E+03  0.29961401767E+03  0.00000000000E+00 0. -1.
         -5    1    3    3    0  503  0.93109199157E+01  0.46902962336E+01  0.25363810075E+02  0.27822741956E+02  0.47000000000E+01 0.  1.
         13    1    4    4    0    0  0.29171423862E+02 -0.33341247041E+01 -0.14641560345E+02  0.32809505437E+02  0.00000000000E+00 0. -1.
        -14    1    4    4    0    0 -0.15938521082E+02 -0.88756295670E+01 -0.14908350012E+03  0.15019555008E+03  0.00000000000E+00 0.  1.
</event>
<event>
12    1  0.1039610E+000  0.2223591E+03  0.7818608E-02  0.1132278E+00
         21   -1    0    0  503  502  0.00000000000E+00  0.00000000000E+00  0.48378042507E+03  0.48378042507E+03  0.00000000000E+00 0. -1.
         21   -1    0    0  501  503 -0.00000000000E+00 -0.00000000000E+00 -0.15074893489E+03  0.15074893489E+03  0.00000000000E+00 0. -1.
          6    2    1    2  501    0  0.13672257215E+03 -0.24028952130E+02  0.34701543406E+03  0.41173096085E+03  0.17272006360E+03 0.  0.
         24    2    3    3    0    0  0.11897925021E+03 -0.73899544624E+02  0.30024455358E+03  0.34093896462E+03  0.80469751869E+02 0.  0.
         -6    2    1    2    0  502 -0.13672257215E+03  0.24028952130E+02 -0.13983943881E+02  0.22279839910E+03  0.17370412684E+03 0.  0.
        -24    2    5    5    0    0 -0.10361442243E+03  0.74314367760E+02  0.24488850308E+02  0.15119519739E+03  0.77470705004E+02 0.  0.
          5    1    3    3  501    0  0.17743321937E+02  0.49870592494E+02  0.46770880483E+02  0.70791996230E+02  0.47000000000E+01 0. -1.
        -13    1    4    4    0    0  0.90466203251E+02 -0.13278714344E+02  0.20528230881E+03  0.22472490849E+03  0.00000000000E+00 0.  1.
         14    1    4    4    0    0  0.28513046958E+02 -0.60620830280E+02  0.94962244774E+02  0.11621405613E+03  0.00000000000E+00 0. -1.
         -5    1    5    5    0  502 -0.33108149717E+02 -0.50285415630E+02 -0.38472794189E+02  0.71603201712E+02  0.47000000000E+01 0.  1.
         11    1    6    6    0    0 -0.25679786412E+02  0.76713938252E+01  0.39319736689E+02  0.47585117492E+02  0.00000000000E+00 0. -1.
        -12    1    6    6    0    0 -0.77934636017E+02  0.66642973935E+02 -0.14830886381E+02  0.10361007990E+03  0.00000000000E+00 0.  1.
</event>
<event>
12    1  0.1039610E+000  0.2168017E+03  0.7818608E-02  0.1136786E+00
         21   -1    0    0  501  502  0.00000000000E+00  0.00000000000E+00  0.18767397623E+04  0.18767397623E+04  0.00000000000E+00 0.  1.
         21   -1    0    0  502  503 -0.00000000000E+00 -0.00000000000E+00 -0.36304208949E+02  0.36304208949E+02  0.00000000000E+00 0.  1.
         -6    2    1    2    0  503  0.12261785486E+03 -0.24195962016E+02  0.14561419871E+04  0.14718132716E+04  0.17396619487E+03 0.  0.
        -24    2    3    3    0    0  0.90218122483E+02  0.47640183426E+02  0.10888358037E+04  0.10961191183E+04  0.74194456770E+02 0.  0.
          6    2    1    2  501    0 -0.12261785486E+03  0.24195962016E+02  0.38429356622E+03  0.44123069962E+03  0.17715078983E+03 0.  0.
         24    2    5    5    0    0 -0.54980288522E+02 -0.29077745641E+02  0.94795666905E+02  0.13916439561E+03  0.80697974724E+02 0.  0.
          5    1    5    5  501    0 -0.67637566335E+02  0.53273707657E+02  0.28949789932E+03  0.30206630401E+03  0.47000000000E+01 0. -1.
        -13    1    6    6    0    0 -0.60988865417E+02 -0.42882459312E+01  0.27201243166E+02  0.66917399738E+02  0.00000000000E+00 0.  1.
         14    1    6    6    0    0  0.60085768946E+01 -0.24789499710E+02  0.67594423739E+02  0.72246995874E+02  0.00000000000E+00 0. -1.
         -5    1    3    3    0  503  0.32399732374E+02 -0.71836145442E+02  0.36730618345E+03  0.37569415333E+03  0.47000000000E+01 0.  1.
         11    1    4    4    0    0  0.78388535179E+02  0.46820004327E+02  0.57981624060E+03  0.58696145369E+03  0.00000000000E+00 0. -1.
        -12    1    4    4    0    0  0.11829587304E+02  0.82017909919E+00  0.50901956306E+03  0.50915766459E+03  0.00000000000E+00 0.  1.
</event>
<event>
12    1  0.1039610E+000  0.2675488E+03  0.7818608E-02  0.1102741E+00
         21   -1    0    0  503  502  0.00000000000E+00  0.00000000000E+00  0.26096549958E+03  0.26096549958E+03  0.00000000000E+00 0.  1.
         21   -1    0    0  501  503 -0.00000000000E+00 -0.00000000000E+00 -0.27786166335E+03  0.27786166335E+03  0.00000000000E+00 0.  1.
          6    2    1    2  501    0 -0.94324191227E+02  0.18239980057E+03 -0.40457249095E+02  0.27059035327E+03  0.17150979557E+03 0.  0.
         24    2    3    3    0    0  0.11439387527E+02  0.38142654753E+02 -0.10833082791E+02  0.89218525409E+02  0.79100365959E+02 0.  0.
         -6    2    1    2    0  502  0.94324191227E+02 -0.18239980057E+03  0.23561085324E+02  0.26823680967E+03  0.17096526261E+03 0.  0.
        -24    2    5    5    0    0  0.74662932936E+02 -0.17961347184E+03  0.67002727133E+02  0.22024102914E+03  0.78620561255E+02 0.  0.
          5    1    3    3  501    0 -0.10576357875E+03  0.14425714582E+03 -0.29624166304E+02  0.18137182786E+03  0.47000000000E+01 0. -1.
        -11    1    4    4    0    0  0.61557219663E+01  0.61924583924E+02 -0.16132725580E+02  0.64286949234E+02  0.00000000000E+00 0.  1.
         12    1    4    4    0    0  0.52836655605E+01 -0.23781929172E+02  0.52996427891E+01  0.24931576175E+02  0.00000000000E+00 0. -1.
         -5    1    5    5    0  502  0.19661258291E+02 -0.27863287304E+01 -0.43441641809E+02  0.47995780528E+02  0.47000000000E+01 0.  1.
         11    1    6    6    0    0  0.61645930897E+02 -0.79102327594E+02  0.29171465456E+01  0.10032900264E+03  0.00000000000E+00 0. -1.
        -12    1    6    6    0    0  0.13017002039E+02 -0.10051114425E+03  0.64085580588E+02  0.11991202650E+03  0.00000000000E+00 0.  1.
</event>
<event>
12    1  0.1039610E+000  0.3380143E+03  0.7818608E-02  0.1067655E+00
         21   -1    0    0  503  502  0.00000000000E+00  0.00000000000E+00  0.16049310738E+03  0.16049310738E+03  0.00000000000E+00 0.  1.
         21   -1    0    0  501  503 -0.00000000000E+00 -0.00000000000E+00 -0.78502455646E+03  0.78502455646E+03  0.00000000000E+00 0. -1.
          6    2    1    2  501    0 -0.28359056287E+03 -0.66972760525E+02 -0.16781749456E+03  0.37738098319E+03  0.17130305601E+03 0.  0.
         24    2    3    3    0    0 -0.19944957401E+03  0.20376458479E+02 -0.11932511525E+03  0.24667829417E+03  0.80102216281E+02 0.  0.
         -6    2    1    2    0  502  0.28359056287E+03  0.66972760525E+02 -0.45671395452E+03  0.56813668065E+03  0.17112186783E+03 0.  0.
        -24    2    5    5    0    0  0.22951791181E+03  0.10571546871E+03 -0.31282972272E+03  0.40955039124E+03  0.77555498707E+02 0.  0.
          5    1    3    3  501    0 -0.84140988862E+02 -0.87349219005E+02 -0.48492379305E+02  0.13070268902E+03  0.47000000000E+01 0. -1.
        -11    1    4    4    0    0 -0.62171074108E+02  0.41883228004E+02 -0.58064328181E+02  0.94820427393E+02  0.00000000000E+00 0.  1.
         12    1    4    4    0    0 -0.13727849990E+03 -0.21506769525E+02 -0.61260787073E+02  0.15185786678E+03  0.00000000000E+00 0. -1.
         -5    1    5    5    0  502  0.54072651054E+02 -0.38742708181E+02 -0.14388423180E+03  0.15858628941E+03  0.47000000000E+01 0.  1.
         11    1    6    6    0    0  0.51248832824E+02  0.71011280993E-01 -0.10077578023E+03  0.11305841760E+03  0.00000000000E+00 0. -1.
        -12    1    6    6    0    0  0.17826907899E+03  0.10564445743E+03 -0.21205394249E+03  0.29649197364E+03  0.00000000000E+00 0.  1.
</event>
<event>
12    1  0.1039610E+000  0.3624256E+03  0.7818608E-02  0.1057671E+00
         21   -1    0    0  501  502  0.00000000000E+00  0.00000000000E+00  0.41997430719E+03  0.41997430719E+03  0.00000000000E+00 0.  1.
         21   -1    0    0  502  503 -0.00000000000E+00 -0.00000000000E+00 -0.34160364746E+03  0.34160364746E+03  0.00000000000E+00 0.  1.
         -6    2    1    2    0  503  0.29604133659E+03  0.11780169471E+03 -0.72211551817E+02  0.36911480580E+03  0.17179499237E+03 0.  0.
        -24    2    3    3    0    0  0.25499873380E+03  0.15118377665E+03 -0.74598808728E+02  0.31594857936E+03  0.79860090004E+02 0.  0.
          6    2    1    2  501    0 -0.29604133659E+03 -0.11780169471E+03  0.15058221155E+03  0.39246314885E+03  0.17272697683E+03 0.  0.
         24    2    5    5    0    0 -0.11696299168E+03 -0.36512802666E+02  0.12641827424E+03  0.19426394741E+03  0.82118055398E+02 0.  0.
          5    1    5    5  501    0 -0.17907834491E+03 -0.81288892044E+02  0.24163937317E+02  0.19819920144E+03  0.47000000000E+01 0. -1.
        -11    1    6    6    0    0  0.11075876467E+02 -0.13348411035E+02  0.16346851248E+02  0.23834316906E+02  0.00000000000E+00 0.  1.
         12    1    6    6    0    0 -0.12803886814E+03 -0.23164391631E+02  0.11007142299E+03  0.17042963050E+03  0.00000000000E+00 0. -1.
         -5    1    3    3    0  503  0.41042602786E+02 -0.33382081942E+02  0.23872569118E+01  0.53166226439E+02  0.47000000000E+01 0.  1.
         13    1    4    4    0    0  0.14356987063E+03  0.57356610378E+02 -0.71270989560E+02  0.17023995553E+03  0.00000000000E+00 0. -1.
        -14    1    4    4    0    0  0.11142886317E+03  0.93827166273E+02 -0.33278191685E+01  0.14570862383E+03  0.00000000000E+00 0.  1.
</event>
<event>
12    1  0.1039610E+000  0.2090536E+03  0.7818608E-02  0.1142435E+00
         21   -1    0    0  503  502  0.00000000000E+00  0.00000000000E+00  0.36929044507E+04  0.36929044507E+04  0.00000000000E+00 0. -1.
         21   -1    0    0  501  503 -0.00000000000E+00 -0.00000000000E+00 -0.19550565364E+02  0.19550565364E+02  0.00000000000E+00 0. -1.
          6    2    1    2  501    0 -0.61586936751E+02 -0.10191979019E+03  0.30037706299E+04  0.30109957352E+04  0.17110442929E+03 0.  0.
         24    2    3    3    0    0 -0.14089994808E+01 -0.10279794146E+03  0.13782330663E+04  0.13843376224E+04  0.79340188976E+02 0.  0.
         -6    2    1    2    0  502  0.61586936751E+02  0.10191979019E+03  0.66958325541E+03  0.70145928087E+03  0.17182197877E+03 0.  0.
        -24    2    5    5    0    0  0.76891464231E+02  0.29698921730E+02  0.53318465302E+03  0.54629243153E+03  0.85762598507E+02 0.  0.
          5    1    3    3  501    0 -0.60177937270E+02  0.87815127338E+00  0.16255375636E+04  0.16266581128E+04  0.47000000000E+01 0. -1.
        -13    1    4    4    0    0  0.33502012739E+01  0.12505601167E+02  0.21653527908E+03  0.21692196983E+03  0.00000000000E+00 0.  1.
         14    1    4    4    0    0 -0.47592007547E+01 -0.11530354263E+03  0.11616977872E+04  0.11674156525E+04  0.00000000000E+00 0. -1.
         -5    1    5    5    0  502 -0.15304527480E+02  0.72220868459E+02  0.13639860239E+03  0.15516684935E+03  0.47000000000E+01 0.  1.
         11    1    6    6    0    0  0.48120759527E+02  0.25981009798E+02  0.11756610703E+03  0.12966267732E+03  0.00000000000E+00 0. -1.
        -12    1    6    6    0    0  0.28770704704E+02  0.37179119310E+01  0.41561854600E+03  0.41662975421E+03  0.00000000000E+00 0.  1.
</event>
<event>
12    1  0.1039610E+000  0.2297873E+03  0.7818608E-02  0.1127577E+00
         21   -1    0    0  503  502  0.00000000000E+00  0.00000000000E+00  0.22102427030E+03  0.22102427030E+03  0.00000000000E+00 0.  1.
         21   -1    0    0  501  503 -0.00000000000E+00 -0.00000000000E+00 -0.31081287707E+03  0.31081287707E+03  0.00000000000E+00 0. -1.
          6    2    1    2  501    0 -0.11455844727E+03  0.92850413323E+02  0.86692930120E+02  0.24559698988E+03  0.17623104213E+03 0.  0.
         24    2    3    3    0    0 -0.39599671945E+02  0.10789800472E+02 -0.20279067651E+02  0.91266628358E+02  0.78954436573E+02 0.  0.
         -6    2    1    2    0  502  0.11455844727E+03 -0.92850413323E+02 -0.17648153689E+03  0.28624015750E+03  0.17041965205E+03 0.  0.
        -24    2    5    5    0    0  0.14513683853E+03 -0.99488778100E+02 -0.15745831845E+03  0.24932026125E+03  0.80029692936E+02 0.  0.
          5    1    3    3  501    0 -0.74958775321E+02  0.82060612850E+02  0.10697199777E+03  0.15433036152E+03  0.47000000000E+01 0. -1.
        -13    1    4    4    0    0  0.10650244034E+02  0.19218549566E+02  0.17291828787E+02  0.27960466523E+02  0.00000000000E+00 0.  1.
         14    1    4    4    0    0 -0.50249915979E+02 -0.84287490932E+01 -0.37570896437E+02  0.63306161835E+02  0.00000000000E+00 0. -1.
         -5    1    5    5    0  502 -0.30578391265E+02  0.66383647769E+01 -0.19023218443E+02  0.36919896251E+02  0.47000000000E+01 0.  1.
         11    1    6    6    0    0  0.87600616173E+01 -0.24952493829E+02  0.21645331742E+01  0.26533956201E+02  0.00000000000E+00 0. -1.
        -12    1    6    6    0    0  0.13637677691E+03 -0.74536284271E+02 -0.15962285163E+03  0.22278630504E+03  0.00000000000E+00 0.  1.
</event>
<event>
12    1  0.1039610E+000  0.1764488E+03  0.7818608E-02  0.1174628E+00
         21   -1    0    0  501  502  0.00000000000E+00  0.00000000000E+00  0.28407720824E+03  0.28407720824E+03  0.00000000000E+00 0. -1.
         21   -1    0    0  502  503 -0.00000000000E+00 -0.00000000000E+00 -0.11266941339E+03  0.11266941339E+03  0.00000000000E+00 0. -1.
         -6    2    1    2    0  503 -0.38929030367E+02 -0.21282231515E+02  0.26831865112E+02  0.17847728094E+03  0.17077994040E+03 0.  0.
        -24    2    3    3    0    0  0.26452851920E+02 -0.47761854084E+02  0.43136507862E+02  0.10592459444E+03  0.79864343215E+02 0.  0.
          6    2    1    2  501    0  0.38929030367E+02  0.21282231515E+02  0.14457592974E+03  0.21826934070E+03  0.15738774681E+03 0.  0.
         24    2    5    5    0    0  0.55119401357E+02  0.26236950509E+02  0.34682865281E+02  0.10698028926E+03  0.80717750023E+02 0.  0.
          5    1    5    5  501    0 -0.16190370990E+02 -0.49547189947E+01  0.10989306446E+03  0.11128905143E+03  0.47000000000E+01 0. -1.
        -13    1    6    6    0    0  0.59878641135E+02 -0.12669154403E+02  0.14523533175E+02  0.62903832581E+02  0.00000000000E+00 0.  1.
         14    1    6    6    0    0 -0.47592397787E+01  0.38906104912E+02  0.20159332106E+02  0.44076456682E+02  0.00000000000E+00 0. -1.
         -5    1    3    3    0  503 -0.65381882286E+02  0.26479622569E+02 -0.16304642750E+02  0.72552686497E+02  0.47000000000E+01 0.  1.
         13    1    4    4    0    0  0.49084678504E+02 -0.47504338152E+02  0.15214950951E+02  0.69981872935E+02  0.00000000000E+00 0. -1.
        -14    1    4    4    0    0 -0.22631826585E+02 -0.25751593217E+00  0.27921556912E+02  0.35942721508E+02  0.00000000000E+00 0.  1.
</event>
<event>
12    1  0.1039610E+000  0.4136799E+03  0.7818608E-02  0.1039154E+00
         21   -1    0    0  501  502  0.00000000000E+00  0.00000000000E+00  0.85942549929E+03  0.85942549929E+03  0.00000000000E+00 0.  1.
         21   -1    0    0  502  503 -0.00000000000E+00 -0.00000000000E+00 -0.24799115538E+03  0.24799115538E+03  0.00000000000E+00 0.  1.
         -6    2    1    2    0  503 -0.30536255143E+03  0.21968201069E+03  0.59805190674E+02  0.41798055106E+03  0.17211800195E+03 0.  0.
        -24    2    3    3    0    0 -0.31243388749E+03  0.20435643816E+03  0.30131889054E+02  0.38352083840E+03  0.82485240393E+02 0.  0.
          6    2    1    2  501    0  0.30536255143E+03 -0.21968201069E+03  0.55162915324E+03  0.68943610361E+03  0.17181660170E+03 0.  0.
         24    2    5    5    0    0  0.28222028398E+03 -0.13915884400E+03  0.48245167434E+03  0.58068336339E+03  0.73621178321E+02 0.  0.
          5    1    5    5  501    0  0.23142267450E+02 -0.80523166697E+02  0.69177478900E+02  0.10875274022E+03  0.47000000000E+01 0. -1.
        -13    1    6    6    0    0  0.19475460819E+03 -0.11277199105E+03  0.28517417934E+03  0.36327839454E+03  0.00000000000E+00 0.  1.
         14    1    6    6    0    0  0.87465675785E+02 -0.26386852952E+02  0.19727749500E+03  0.21740496885E+03  0.00000000000E+00 0. -1.
         -5    1    3    3    0  503  0.70713360618E+01  0.15325572536E+02  0.29673301620E+02  0.34459712655E+02  0.47000000000E+01 0.  1.
         13    1    4    4    0    0 -0.15145990383E+03  0.13535827646E+03  0.43976882660E+02  0.20783630983E+03  0.00000000000E+00 0. -1.
        -14    1    4    4    0    0 -0.16097398366E+03  0.68998161700E+02 -0.13844993606E+02  0.17568452857E+03  0.00000000000E+00 0.  1.
</event>
<event>
12    1  0.1039610E+000  0.1979648E+03  0.7818608E-02  0.1151513E+00
         21   -1    0    0  501  502  0.00000000000E+00  0.00000000000E+00  0.71299021105E+02  0.71299021105E+02  0.00000000000E+00 0. -1.
         21   -1    0    0  502  503 -0.00000000000E+00 -0.00000000000E+00 -0.54907944492E+03  0.54907944492E+03  0.00000000000E+00 0. -1.
         -6    2    1    2    0  503  0.25570051445E+02  0.94158656374E+02 -0.24051874751E+03  0.31151137734E+03  0.17225095126E+03 0.  0.
        -24    2    3    3    0    0  0.49785535917E+02  0.16453709833E+02 -0.20226861874E+03  0.22145800008E+03  0.73360258452E+02 0.  0.
          6    2    1    2  501    0 -0.25570051445E+02 -0.94158656374E+02 -0.23726167630E+03  0.30886708868E+03  0.17200609096E+03 0.  0.
         24    2    5    5    0    0 -0.61271367172E+02 -0.14919811258E+02 -0.17281398265E+03  0.20056670209E+03  0.79909625093E+02 0.  0.
          5    1    5    5  501    0  0.35701315727E+02 -0.79238845116E+02 -0.64447693649E+02  0.10830038660E+03  0.47000000000E+01 0. -1.
        -13    1    6    6    0    0 -0.56557463190E+01 -0.72083936417E+01 -0.12905790631E+03  0.12938273296E+03  0.00000000000E+00 0.  1.
         14    1    6    6    0    0 -0.55615620853E+02 -0.77114176165E+01 -0.43756076340E+02  0.71183969131E+02  0.00000000000E+00 0. -1.
         -5    1    3    3    0  503 -0.24215484473E+02  0.77704946541E+02 -0.38250128776E+02  0.90053377263E+02  0.47000000000E+01 0.  1.
         11    1    4    4    0    0  0.28589353730E+02 -0.26790551803E+02 -0.11877847008E+03  0.12507361739E+03  0.00000000000E+00 0. -1.
        -12    1    4    4    0    0  0.21196182187E+02  0.43244261636E+02 -0.83490148652E+02  0.96384382686E+02  0.00000000000E+00 0.  1.
</event>
<event>
12    1  0.1039610E+000  0.2397626E+03  0.7818608E-02  0.1119993E+00
         21   -1    0    0  501  502  0.00000000000E+00  0.00000000000E+00  0.15841319484E+03  0.15841319484E+03  0.00000000000E+00 0.  1.
         21   -1    0    0  502  503 -0.00000000000E+00 -0.00000000000E+00 -0.36289728360E+03  0.36289728360E+03  0.00000000000E+00 0.  1.
         -6    2    1    2    0  503  0.16483853464E+03  0.25251432659E+02 -0.93730434011E+02  0.25743249690E+03  0.17226932068E+03 0.  0.
        -24    2    3    3    0    0  0.22833151391E+02  0.73702485056E+01 -0.59312199335E+02  0.11015055471E+03  0.89663450453E+02 0.  0.
          6    2    1    2  501    0 -0.16483853464E+03 -0.25251432659E+02 -0.11075365475E+03  0.26387798154E+03  0.17191811932E+03 0.  0.
         24    2    5    5    0    0 -0.47998019194E+02 -0.30317978202E+01 -0.90855905410E+02  0.14319895001E+03  0.99690230678E+02 0.  0.
          5    1    5    5  501    0 -0.11684051544E+03 -0.22219634839E+02 -0.19897749337E+02  0.12067903153E+03  0.47000000000E+01 0. -1.
        -13    1    6    6    0    0  0.19942972209E+02  0.28815338038E+02 -0.22124259965E+02  0.41443078141E+02  0.00000000000E+00 0.  1.
         14    1    6    6    0    0 -0.67940991403E+02 -0.31847135858E+02 -0.68731645445E+02  0.10175587187E+03  0.00000000000E+00 0. -1.
         -5    1    3    3    0  503  0.14200538325E+03  0.17881184153E+02 -0.34418234675E+02  0.14728194219E+03  0.47000000000E+01 0.  1.
         13    1    4    4    0    0 -0.19539830134E+02  0.14007700504E+02  0.12048911899E+02  0.26892320707E+02  0.00000000000E+00 0. -1.
        -14    1    4    4    0    0  0.42372981525E+02 -0.66374519983E+01 -0.71361111235E+02  0.83258234001E+02  0.00000000000E+00 0.  1.
</event>
<event>
12    1  0.1039610E+000  0.1793582E+03  0.7818608E-02  0.1168585E+00
         21   -1    0    0  501  502  0.00000000000E+00  0.00000000000E+00  0.13825222995E+03  0.13825222995E+03  0.00000000000E+00 0.  1.
         21   -1    0    0  502  503 -0.00000000000E+00 -0.00000000000E+00 -0.23230743434E+03  0.23230743434E+03  0.00000000000E+00 0.  1.
         -6    2    1    2    0  503  0.55422279086E+01  0.37778347465E+02 -0.38606771703E+02  0.18282606187E+03  0.17457653408E+03 0.  0.
        -24    2    3    3    0    0  0.11363450667E+02 -0.11144332159E+02  0.38232034448E+02  0.91427991065E+02  0.81511133851E+02 0.  0.
          6    2    1    2  501    0 -0.55422279086E+01 -0.37778347465E+02 -0.55448432686E+02  0.18773360243E+03  0.17524684581E+03 0.  0.
         24    2    5    5    0    0 -0.35221625906E+02  0.15128175505E+02  0.20410358708E+02  0.90488483940E+02  0.79386134543E+02 0.  0.
          5    1    5    5  501    0  0.29679397997E+02 -0.52906522970E+02 -0.75858791393E+02  0.97245118489E+02  0.47000000000E+01 0. -1.
        -13    1    6    6    0    0 -0.48919663818E+02  0.35867925990E+02  0.41808245590E+01  0.60803954779E+02  0.00000000000E+00 0.  1.
         14    1    6    6    0    0  0.13698037912E+02 -0.20739750485E+02  0.16229534149E+02  0.29684529161E+02  0.00000000000E+00 0. -1.
         -5    1    3    3    0  503 -0.58212227583E+01  0.48922679624E+02 -0.76838806151E+02  0.91398070804E+02  0.47000000000E+01 0.  1.
         13    1    4    4    0    0  0.61746565784E+01 -0.19272429869E+01 -0.25764077639E+02  0.26563665899E+02  0.00000000000E+00 0. -1.
        -14    1    4    4    0    0  0.51887940885E+01 -0.92170891718E+01  0.63996112087E+02  0.64864325166E+02  0.00000000000E+00 0.  1.
</event>
<event>
12    1  0.1039610E+000  0.3121052E+03  0.7818608E-02  0.1079369E+00
         21   -1    0    0  501  502  0.00000000000E+00  0.00000000000E+00  0.14301558057E+03  0.14301558057E+03  0.00000000000E+00 0.  1.
         21   -1    0    0  502  503 -0.00000000000E+00 -0.00000000000E+00 -0.70073243345E+03  0.70073243345E+03  0.00000000000E+00 0.  1.
         -6    2    1    2    0  503 -0.21805458338E+03  0.14293613350E+03 -0.20744036380E+03  0.37475477083E+03  0.17155493037E+03 0.  0.
        -24    2    3    3    0    0 -0.16137319946E+03  0.14515275429E+03 -0.21619751119E+03  0.31716596704E+03  0.82111236880E+02 0.  0.
          6    2    1    2  501    0  0.21805458338E+03 -0.14293613350E+03 -0.35027648908E+03  0.46899324319E+03  0.17112131299E+03 0.  0.
         24    2    5    5    0    0  0.80111012415E+02 -0.80619795661E+02 -0.83946146855E+02  0.16261815294E+03  0.80500821930E+02 0.  0.
          5    1    5    5  501    0  0.13794357097E+03 -0.62316337837E+02 -0.26633034223E+03  0.30637509025E+03  0.47000000000E+01 0. -1.
        -13    1    6    6    0    0  0.15908836115E+02 -0.70755534025E+02 -0.57227975814E+02  0.92382237890E+02  0.00000000000E+00 0.  1.
         14    1    6    6    0    0  0.64202176300E+02 -0.98642616356E+01 -0.26718171041E+02  0.70235915051E+02  0.00000000000E+00 0. -1.
         -5    1    3    3    0  503 -0.56681383928E+02 -0.22166207877E+01  0.87571473973E+01  0.57588803793E+02  0.47000000000E+01 0.  1.
         13    1    4    4    0    0 -0.10810802420E+03  0.49722747287E+02 -0.84069336448E+02  0.14569608720E+03  0.00000000000E+00 0. -1.
        -14    1    4    4    0    0 -0.53265175256E+02  0.95430006998E+02 -0.13212817475E+03  0.17146987984E+03  0.00000000000E+00 0.  1.
</event>
<event>
12    1  0.1039610E+000  0.2679025E+03  0.7818608E-02  0.1102557E+00
         21   -1    0    0  503  502  0.00000000000E+00  0.00000000000E+00  0.14193120344E+03  0.14193120344E+03  0.00000000000E+00 0. -1.
         21   -1    0    0  501  503 -0.00000000000E+00 -0.00000000000E+00 -0.50516607180E+03  0.50516607180E+03  0.00000000000E+00 0. -1.
          6    2    1    2  501    0 -0.20391444318E+03 -0.27031022748E+02 -0.17225794553E+03  0.31809285135E+03  0.17087564471E+03 0.  0.
         24    2    3    3    0    0 -0.11932261554E+03  0.34969523071E+02 -0.48543408577E+02  0.15583619775E+03  0.80422036097E+02 0.  0.
         -6    2    1    2    0  502  0.20391444318E+03  0.27031022748E+02 -0.19097692284E+03  0.32900442389E+03  0.17163900942E+03 0.  0.
        -24    2    5    5    0    0  0.11845545629E+03  0.12106252589E+02 -0.19406488982E+03  0.24206989252E+03  0.82209457670E+02 0.  0.
          5    1    3    3  501    0 -0.84591827633E+02 -0.62000545818E+02 -0.12371453695E+03  0.16225665360E+03  0.47000000000E+01 0. -1.
        -11    1    4    4    0    0 -0.84976141904E+02  0.24636145809E+02  0.80429070733E+01  0.88840152676E+02  0.00000000000E+00 0.  1.
         12    1    4    4    0    0 -0.34346473638E+02  0.10333377262E+02 -0.56586315651E+02  0.66996045077E+02  0.00000000000E+00 0. -1.
         -5    1    5    5    0  502  0.85458986884E+02  0.14924770158E+02  0.30879669768E+01  0.86934531365E+02  0.47000000000E+01 0.  1.
         11    1    6    6    0    0  0.36522471019E+02 -0.12609418659E+02 -0.11292867231E+02  0.40254405703E+02  0.00000000000E+00 0. -1.
        -12    1    6    6    0    0  0.81932985272E+02  0.24715671248E+02 -0.18277202259E+03  0.20181548682E+03  0.00000000000E+00 0.  1.
</event>
<event>
12    1  0.1039610E+000  0.4212308E+03  0.7818608E-02  0.1036681E+00
         21   -1    0    0  501  502  0.00000000000E+00  0.00000000000E+00  0.45604165833E+03  0.45604165833E+03  0.00000000000E+00 0. -1.
         21   -1    0    0  502  503 -0.00000000000E+00 -0.00000000000E+00 -0.44633808873E+03  0.44633808873E+03  0.00000000000E+00 0.  1.
         -6    2    1    2    0  503 -0.38083981932E+03 -0.52331408037E+02  0.16669435397E+03  0.45301476148E+03  0.17221446580E+03 0.  0.
        -24    2    3    3    0    0 -0.35352897078E+03 -0.39465652478E+00  0.16351472669E+03  0.39406131684E+03  0.59702316959E+02 0.  0.
          6    2    1    2  501    0  0.38083981932E+03  0.52331408037E+02 -0.15699078436E+03  0.44936498557E+03  0.17177089286E+03 0.  0.
         24    2    5    5    0    0  0.35138759588E+03  0.20497521291E+02 -0.17728734782E+03  0.40125188653E+03  0.75358356062E+02 0.  0.
          5    1    5    5  501    0  0.29452223445E+02  0.31833886746E+02  0.20296563462E+02  0.48113099043E+02  0.47000000000E+01 0. -1.
        -11    1    6    6    0    0  0.12644224359E+03 -0.22988807148E+02 -0.42120711571E+02  0.13524156373E+03  0.00000000000E+00 0.  1.
         12    1    6    6    0    0  0.22494535229E+03  0.43486328439E+02 -0.13516663625E+03  0.26601032280E+03  0.00000000000E+00 0. -1.
         -5    1    3    3    0  503 -0.27310848541E+02 -0.51936751512E+02  0.31796272745E+01  0.58953444643E+02  0.47000000000E+01 0.  1.
         13    1    4    4    0    0 -0.24302460540E+02 -0.24618104337E+01  0.30247196804E+02  0.38878824743E+02  0.00000000000E+00 0. -1.
        -14    1    4    4    0    0 -0.32922651024E+03  0.20671539090E+01  0.13326752989E+03  0.35518249210E+03  0.00000000000E+00 0.  1.
</event>
<event>
12    1  0.1039610E+000  0.2141173E+03  0.7818608E-02  0.1138490E+00
         21   -1    0    0  503  502  0.00000000000E+00  0.00000000000E+00  0.56435167744E+03  0.56435167744E+03  0.00000000000E+00 0.  1.
         21   -1    0    0  501  503 -0.00000000000E+00 -0.00000000000E+00 -0.88894623033E+02  0.88894623033E+02  0.00000000000E+00 0.  1.
          6    2    1    2  501    0 -0.43022790966E+02 -0.11925762888E+03  0.33496713136E+03  0.39715327714E+03  0.17162285356E+03 0.  0.
         24    2    3    3    0    0 -0.19828398403E+01 -0.11506927282E+03  0.13951798763E+03  0.19734267256E+03  0.78955635269E+02 0.  0.
         -6    2    1    2    0  502  0.43022790966E+02  0.11925762888E+03  0.14048992304E+03  0.25609302333E+03  0.17254818322E+03 0.  0.
        -24    2    5    5    0    0  0.66746355901E+02  0.28341910056E+02  0.11836983240E+03  0.15945005218E+03  0.78451016744E+02 0.  0.
          5    1    3    3  501    0 -0.41039951126E+02 -0.41883560520E+01  0.19544914373E+03  0.19981060458E+03  0.47000000000E+01 0. -1.
        -11    1    4    4    0    0 -0.26663771899E+02 -0.63479473485E+01  0.35644736124E+02  0.44964434621E+02  0.00000000000E+00 0.  1.
         12    1    4    4    0    0  0.24680932059E+02 -0.10872132548E+03  0.10387325150E+03  0.15237823794E+03  0.00000000000E+00 0. -1.
         -5    1    5    5    0  502 -0.23723564935E+02  0.90915718820E+02  0.22120090647E+02  0.96642971147E+02  0.47000000000E+01 0.  1.
         13    1    6    6    0    0  0.35825815884E+02  0.34377953416E+02  0.15730186949E+02  0.52084273502E+02  0.00000000000E+00 0. -1.
        -14    1    6    6    0    0  0.30920540017E+02 -0.60360433598E+01  0.10263964545E+03  0.10736577868E+03  0.00000000000E+00 0.  1.
</event>
<event>
12    1  0.1039610E+000  0.1824163E+03  0.7818608E-02  0.1165541E+00
         21   -1    0    0  501  502  0.00000000000E+00  0.00000000000E+00  0.39117048027E+03  0.39117048027E+03  0.00000000000E+00 0. -1.
         21   -1    0    0  502  503 -0.00000000000E+00 -0.00000000000E+00 -0.99774677031E+02  0.99774677031E+02  0.00000000000E+00 0. -1.
         -6    2    1    2    0  503  0.45672011312E+02  0.38973784799E+02  0.51016123022E+02  0.18918683412E+03  0.17200036302E+03 0.  0.
        -24    2    3    3    0    0  0.39400894800E+02 -0.21927969122E+02 -0.21941319052E+02  0.93828410863E+02  0.79303738011E+02 0.  0.
          6    2    1    2  501    0 -0.45672011312E+02 -0.38973784799E+02  0.24037968022E+03  0.30175832317E+03  0.17225215942E+03 0.  0.
         24    2    5    5    0    0 -0.32295036267E+01 -0.77232721047E+02  0.20354677787E+03  0.23361241092E+03  0.84664897459E+02 0.  0.
          5    1    5    5  501    0 -0.42442507686E+02  0.38258936248E+02  0.36832902344E+02  0.68145912251E+02  0.47000000000E+01 0. -1.
        -11    1    6    6    0    0  0.77869749188E+01  0.65106382010E+01  0.97555457398E+02  0.98082071024E+02  0.00000000000E+00 0.  1.
         12    1    6    6    0    0 -0.11016478545E+02 -0.83743359248E+02  0.10599132047E+03  0.13553033990E+03  0.00000000000E+00 0. -1.
         -5    1    3    3    0  503  0.62711165121E+01  0.60901753921E+02  0.72957442073E+02  0.95358423261E+02  0.47000000000E+01 0.  1.
         11    1    4    4    0    0  0.52082333011E+02 -0.25090689760E+02 -0.40889339465E+02  0.70809958384E+02  0.00000000000E+00 0. -1.
        -12    1    4    4    0    0 -0.12681438211E+02  0.31627206384E+01  0.18948020413E+02  0.23018452479E+02  0.00000000000E+00 0.  1.
</event>
<event>
12    1  0.1039610E+000  0.3712450E+03  0.7818608E-02  0.1054329E+00
         21   -1    0    0  503  502  0.00000000000E+00  0.00000000000E+00  0.12479909914E+03  0.12479909914E+03  0.00000000000E+00 0.  1.
         21   -1    0    0  501  503 -0.00000000000E+00 -0.00000000000E+00 -0.13919529658E+04  0.13919529658E+04  0.00000000000E+00 0. -1.
          6    2    1    2  501    0 -0.30162156959E+03  0.12766197094E+03 -0.28757875390E+03  0.46960021639E+03  0.17478464885E+03 0.  0.
         24    2    3    3    0    0 -0.84208948946E+02  0.83359253798E+02 -0.73566881004E+02  0.16129168569E+03  0.81012404087E+02 0.  0.
         -6    2    1    2    0  502  0.30162156959E+03 -0.12766197094E+03 -0.97957511279E+03  0.10471518486E+04  0.17229754005E+03 0.  0.
        -24    2    5    5    0    0  0.10165552715E+03 -0.10942862352E+03 -0.47125632568E+03  0.50059082506E+03  0.78741220487E+02 0.  0.
          5    1    3    3  501    0 -0.21741262064E+03  0.44302717144E+02 -0.21401187289E+03  0.30830853070E+03  0.47000000000E+01 0. -1.
        -11    1    4    4    0    0 -0.40655065836E+02  0.67410630246E+02 -0.82527658708E+02  0.11405192633E+03  0.00000000000E+00 0.  1.
         12    1    4    4    0    0 -0.43553883110E+02  0.15948623552E+02  0.89607777041E+01  0.47239759358E+02  0.00000000000E+00 0. -1.
         -5    1    5    5    0  502  0.19996604244E+03 -0.18233347427E+02 -0.50831878712E+03  0.54656102351E+03  0.47000000000E+01 0.  1.
         11    1    6    6    0    0  0.10928373775E+03 -0.11153405024E+03 -0.40832117205E+03  0.43716010711E+03  0.00000000000E+00 0. -1.
        -12    1    6    6    0    0 -0.76282106061E+01  0.21054267242E+01 -0.62935153622E+02  0.63430717954E+02  0.00000000000E+00 0.  1.
</event>
<event>
12    1  0.1039610E+000  0.2344694E+03  0.7818608E-02  0.1123575E+00
         21   -1    0    0  503  502  0.00000000000E+00  0.00000000000E+00  0.42671712904E+02  0.42671712904E+02  0.00000000000E+00 0.  1.
         21   -1    0    0  501  503 -0.00000000000E+00 -0.00000000000E+00 -0.12876767078E+04  0.12876767078E+04  0.00000000000E+00 0.  1.
          6    2    1    2  501    0 -0.13761427138E+03  0.79603596832E+02 -0.63741222823E+03  0.67908434858E+03  0.17200809132E+03 0.  0.
         24    2    3    3    0    0 -0.53522253410E+02  0.99267903603E+02 -0.47712634897E+03  0.49695306204E+03  0.81203723418E+02 0.  0.
         -6    2    1    2    0  502  0.13761427138E+03 -0.79603596832E+02 -0.60759276666E+03  0.65126407211E+03  0.17234123480E+03 0.  0.
        -24    2    5    5    0    0  0.13578053296E+03 -0.25146050866E+02 -0.31243666955E+03  0.35108379533E+03  0.81083178635E+02 0.  0.
          5    1    3    3  501    0 -0.84092017970E+02 -0.19664306771E+02 -0.16028587926E+03  0.18213128654E+03  0.47000000000E+01 0. -1.
        -11    1    4    4    0    0 -0.22730580851E+02  0.17651274162E+02 -0.30684713732E+02  0.42068972440E+02  0.00000000000E+00 0.  1.
         12    1    4    4    0    0 -0.30791672560E+02  0.81616629441E+02 -0.44644163523E+03  0.45488408960E+03  0.00000000000E+00 0. -1.
         -5    1    5    5    0  502  0.18337384151E+01 -0.54457545966E+02 -0.29515609711E+03  0.30018027678E+03  0.47000000000E+01 0.  1.
         11    1    6    6    0    0 -0.78005730579E+01 -0.13625579531E+02 -0.38660582509E+02  0.41727041562E+02  0.00000000000E+00 0. -1.
        -12    1    6    6    0    0  0.14358110602E+03 -0.11520471336E+02 -0.27377608704E+03  0.30935675377E+03  0.00000000000E+00 0.  1.
</event>
<event>
12    1  0.1039610E+000  0.1817113E+03  0.7818608E-02  0.1168752E+00
         21   -1    0    0  503  502  0.00000000000E+00  0.00000000000E+00  0.70981668428E+03  0.70981668428E+03  0.00000000000E+00 0.  1.
         21   -1    0    0  501  503 -0.00000000000E+00 -0.00000000000E+00 -0.47654788222E+02  0.47654788222E+02  0.00000000000E+00 0.  1.
          6    2    1    2  501    0  0.23660343054E+02  0.40504377844E+02  0.23339478153E+03  0.29579069136E+03  0.17555225031E+03 0.  0.
         24    2    3    3    0    0  0.72846149399E+02 -0.44844569812E+01  0.17951297470E+03  0.20995027015E+03  0.80793168128E+02 0.  0.
         -6    2    1    2    0  502 -0.23660343054E+02 -0.40504377844E+02  0.42876711453E+03  0.46168078115E+03  0.16464352013E+03 0.  0.
        -24    2    5    5    0    0  0.14736241953E+02 -0.20088215988E+01  0.37775682682E+03  0.38697907405E+03  0.82652231385E+02 0.  0.
          5    1    3    3  501    0 -0.49185806345E+02  0.44988834826E+02  0.53881806833E+02  0.85840421204E+02  0.47000000000E+01 0. -1.
        -11    1    4    4    0    0  0.39599526592E+01 -0.23192936706E+02  0.91638614300E+01  0.25250146423E+02  0.00000000000E+00 0.  1.
         12    1    4    4    0    0  0.68886196740E+02  0.18708479725E+02  0.17034911327E+03  0.18470012373E+03  0.00000000000E+00 0. -1.
         -5    1    5    5    0  502 -0.38396585007E+02 -0.38495556246E+02  0.51010287710E+02  0.74701707096E+02  0.47000000000E+01 0.  1.
         13    1    6    6    0    0  0.45135056623E+02 -0.82654054656E+01  0.14304963939E+03  0.15022879083E+03  0.00000000000E+00 0. -1.
        -14    1    6    6    0    0 -0.30398814670E+02  0.62565838667E+01  0.23470718743E+03  0.23675028322E+03  0.00000000000E+00 0.  1.
</event>
<event>
12    1  0.1039610E+000  0.4209643E+03  0.7818608E-02  0.1036769E+00
         21   -1    0    0  501  502  0.00000000000E+00  0.00000000000E+00  0.82225486648E+03  0.82225486648E+03  0.00000000000E+00 0.  1.
         21   -1    0    0  502  503 -0.00000000000E+00 -0.00000000000E+00 -0.50753942717E+03  0.50753942717E+03  0.00000000000E+00 0.  1.
         -6    2    1    2    0  503  0.21028495434E+03  0.32148128283E+03  0.66177191249E+03  0.78421282614E+03  0.17169075483E+03 0.  0.
        -24    2    3    3    0    0  0.18734708623E+03  0.27854047607E+03  0.64736500351E+03  0.73322549728E+03  0.76514407506E+02 0.  0.
          6    2    1    2  501    0 -0.21028495434E+03 -0.32148128283E+03 -0.34705647318E+03  0.54558146751E+03  0.17216551594E+03 0.  0.
         24    2    5    5    0    0 -0.16951461297E+03 -0.31179199256E+03 -0.25557193703E+03  0.44484610413E+03  0.81373157273E+02 0.  0.
          5    1    5    5  501    0 -0.40770341365E+02 -0.96892902749E+01 -0.91484536150E+02  0.10073536338E+03  0.47000000000E+01 0. -1.
        -13    1    6    6    0    0 -0.13143250257E+02  0.20476889387E+01 -0.69443055964E+01  0.15005380286E+02  0.00000000000E+00 0.  1.
         14    1    6    6    0    0 -0.15637136272E+03 -0.31383968150E+03 -0.24862763143E+03  0.42984072384E+03  0.00000000000E+00 0. -1.
         -5    1    3    3    0  503  0.22937868104E+02  0.42940806761E+02  0.14406908978E+02  0.50987328865E+02  0.47000000000E+01 0.  1.
         13    1    4    4    0    0  0.52632843046E+02  0.52800699849E+02  0.89197263433E+02  0.11625094355E+03  0.00000000000E+00 0. -1.
        -14    1    4    4    0    0  0.13471424319E+03  0.22573977622E+03  0.55816774008E+03  0.61697455373E+03  0.00000000000E+00 0.  1.
</event>
<event>
12    1  0.1039610E+000  0.1786320E+03  0.7818608E-02  0.1169419E+00
         21   -1    0    0  503  502  0.00000000000E+00  0.00000000000E+00  0.66920156973E+03  0.66920156973E+03  0.00000000000E+00 0.  1.
         21   -1    0    0  501  503 -0.00000000000E+00 -0.00000000000E+00 -0.47530312722E+02  0.47530312722E+02  0.00000000000E+00 0.  1.
          6    2    1    2  501    0 -0.44190949883E+02 -0.17866282952E+02  0.29119612129E+03  0.34162051167E+03  0.17215501392E+03 0.  0.
         24    2    3    3    0    0 -0.32126930069E+02 -0.23118071384E+02  0.30764713119E+03  0.32003700912E+03  0.78805742284E+02 0.  0.
         -6    2    1    2    0  502  0.44190949883E+02  0.17866282952E+02  0.33047513572E+03  0.37511137079E+03  0.17094642742E+03 0.  0.
        -24    2    5    5    0    0  0.75076026092E+02  0.58694520551E+02  0.25370874621E+03  0.28272088710E+03  0.80507860864E+02 0.  0.
          5    1    3    3  501    0 -0.12064019814E+02  0.52517884325E+01 -0.16451009895E+02  0.21583502551E+02  0.47000000000E+01 0. -1.
        -13    1    4    4    0    0  0.21021428752E+02 -0.25362426036E+02  0.85934371414E+02  0.92031892904E+02  0.00000000000E+00 0.  1.
         14    1    4    4    0    0 -0.53148358821E+02  0.22443546515E+01  0.22171275977E+03  0.22800511621E+03  0.00000000000E+00 0. -1.
         -5    1    5    5    0  502 -0.30885076209E+02 -0.40828237600E+02  0.76766389506E+02  0.92390483686E+02  0.47000000000E+01 0.  1.
         11    1    6    6    0    0  0.87139627406E+02  0.38342870572E+02  0.16100338661E+03  0.18704432867E+03  0.00000000000E+00 0. -1.
        -12    1    6    6    0    0 -0.12063601314E+02  0.20351649979E+02  0.92705359605E+02  0.95676558430E+02  0.00000000000E+00 0.  1.
</event>
<event>
12    1  0.1039610E+000  0.2276761E+03  0.7818608E-02  0.1128467E+00
         21   -1    0    0  503  502  0.00000000000E+00  0.00000000000E+00  0.36358956528E+03  0.36358956528E+03  0.00000000000E+00 0. -1.
         21   -1    0    0  501  503 -0.00000000000E+00 -0.00000000000E+00 -0.14205232069E+03  0.14205232069E+03  0.00000000000E+00 0. -1.
          6    2    1    2  501    0 -0.27292277632E+02 -0.14613971697E+03  0.11823988078E+03  0.25654838093E+03  0.17243757438E+03 0.  0.
         24    2    3    3    0    0 -0.67836982528E+02 -0.14044303646E+03  0.12446706673E+03  0.21486873231E+03  0.79689514611E+02 0.  0.
         -6    2    1    2    0  502  0.27292277632E+02  0.14613971697E+03  0.10329736382E+03  0.24909350504E+03  0.17110097482E+03 0.  0.
        -24    2    5    5    0    0  0.57255906578E+02  0.30228125893E+02  0.73103193332E+02  0.12553342274E+03  0.78883362735E+02 0.  0.
          5    1    3    3  501    0  0.40544704896E+02 -0.56966805182E+01 -0.62271859504E+01  0.41679648618E+02  0.47000000000E+01 0. -1.
        -11    1    4    4    0    0 -0.21975359346E+02 -0.10406411175E+03  0.43393600181E+02  0.11487062422E+03  0.00000000000E+00 0.  1.
         12    1    4    4    0    0 -0.45861623182E+02 -0.36378924704E+02  0.81073466545E+02  0.99998108088E+02  0.00000000000E+00 0. -1.
         -5    1    5    5    0  502 -0.29963628947E+02  0.11591159108E+03  0.30194170483E+02  0.12356008230E+03  0.47000000000E+01 0.  1.
         11    1    6    6    0    0 -0.12720697652E+02  0.53895406731E+01 -0.76814579366E+01  0.15807216500E+02  0.00000000000E+00 0. -1.
        -12    1    6    6    0    0  0.69976604231E+02  0.24838585220E+02  0.80784651269E+02  0.10972620624E+03  0.00000000000E+00 0.  1.
</event>
<event>
12    1  0.1039610E+000  0.2197881E+03  0.7818608E-02  0.1134332E+00
         21   -1    0    0  501  502  0.00000000000E+00  0.00000000000E+00  0.28778212147E+03  0.28778212147E+03  0.00000000000E+00 0.  1.
         21   -1    0    0  502  503 -0.00000000000E+00 -0.00000000000E+00 -0.16667842196E+03  0.16667842196E+03  0.00000000000E+00 0.  1.
         -6    2    1    2    0  503 -0.65206269050E+02  0.11645334299E+03  0.59696080345E+02  0.22775080602E+03  0.17462407914E+03 0.  0.
        -24    2    3    3    0    0  0.22933753654E+02  0.52291117635E+02  0.71356123729E+02  0.11800791843E+03  0.74658250571E+02 0.  0.
          6    2    1    2  501    0  0.65206269050E+02 -0.11645334299E+03  0.61407619163E+02  0.22670973741E+03  0.17266490879E+03 0.  0.
         24    2    5    5    0    0  0.15500181279E+02 -0.37463910244E+02  0.95415319814E+02  0.12726809950E+03  0.73819277322E+02 0.  0.
          5    1    5    5  501    0  0.49706087771E+02 -0.78989432746E+02 -0.34007700652E+02  0.99441637912E+02  0.47000000000E+01 0. -1.
        -11    1    6    6    0    0  0.41149270034E+02 -0.10256748132E+02  0.30090686596E+02  0.51999160824E+02  0.00000000000E+00 0.  1.
         12    1    6    6    0    0 -0.25649088755E+02 -0.27207162111E+02  0.65324633218E+02  0.75268938675E+02  0.00000000000E+00 0. -1.
         -5    1    3    3    0  503 -0.88140022704E+02  0.64162225355E+02 -0.11660043384E+02  0.10974288759E+03  0.47000000000E+01 0.  1.
         11    1    4    4    0    0  0.34555756170E+02  0.15953863716E+02  0.11176107970E+01  0.38077225553E+02  0.00000000000E+00 0. -1.
        -12    1    4    4    0    0 -0.11622002515E+02  0.36337253919E+02  0.70238512932E+02  0.79930692877E+02  0.00000000000E+00 0.  1.
</event>
<event>
12    1  0.1039610E+000  0.1964181E+03  0.7818608E-02  0.1152961E+00
         21   -1    0    0  501  502  0.00000000000E+00  0.00000000000E+00  0.44432040792E+03  0.44432040792E+03  0.00000000000E+00 0.  1.
         21   -1    0    0  502  503 -0.00000000000E+00 -0.00000000000E+00 -0.88351923622E+02  0.88351923622E+02  0.00000000000E+00 0.  1.
         -6    2    1    2    0  503 -0.92624741929E+02 -0.79557380749E+01  0.13970996346E+03  0.24103722310E+03  0.17302436950E+03 0.  0.
        -24    2    3    3    0    0 -0.12070617339E+03  0.27501562826E+02  0.12755982954E+03  0.19396809591E+03  0.77625999943E+02 0.  0.
          6    2    1    2  501    0  0.92624741929E+02  0.79557380749E+01  0.21625852084E+03  0.29163510844E+03  0.17216460744E+03 0.  0.
         24    2    5    5    0    0  0.29172547512E+02  0.69516559200E+02  0.11558470083E+03  0.15757085628E+03  0.76060253424E+02 0.  0.
          5    1    5    5  501    0  0.63452194417E+02 -0.61560821125E+02  0.10067382000E+03  0.13406425216E+03  0.47000000000E+01 0. -1.
        -11    1    6    6    0    0  0.49562622092E+01  0.48825435508E+02  0.13889263762E+02  0.51003914903E+02  0.00000000000E+00 0.  1.
         12    1    6    6    0    0  0.24216285303E+02  0.20691123692E+02  0.10169543707E+03  0.10656694138E+03  0.00000000000E+00 0. -1.
         -5    1    3    3    0  503  0.28081431458E+02 -0.35457300900E+02  0.12150133920E+02  0.47069127187E+02  0.47000000000E+01 0.  1.
         11    1    4    4    0    0 -0.46298920060E+02  0.21161208930E+02  0.59393711294E+01  0.51250979420E+02  0.00000000000E+00 0. -1.
        -12    1    4    4    0    0 -0.74407253326E+02  0.63403538960E+01  0.12162045841E+03  0.14271711649E+03  0.00000000000E+00 0.  1.
</event>
<event>
12    1  0.1039610E+000  0.5521735E+03  0.7818608E-02  0.1001025E+00
         21   -1    0    0  503  502  0.00000000000E+00  0.00000000000E+00  0.74842527205E+03  0.74842527205E+03  0.00000000000E+00 0. -1.
         21   -1    0    0  501  503 -0.00000000000E+00 -0.00000000000E+00 -0.48159874392E+03  0.48159874392E+03  0.00000000000E+00 0.  1.
          6    2    1    2  501    0  0.50938104550E+03  0.12252301870E+03  0.37546528261E+03  0.66726476179E+03  0.17258952536E+03 0.  0.
         24    2    3    3    0    0  0.20638866249E+03  0.18462979619E+02  0.21454467918E+03  0.30872549407E+03  0.79654564858E+02 0.  0.
         -6    2    1    2    0  502 -0.50938104550E+03 -0.12252301870E+03 -0.10863875448E+03  0.56275925418E+03  0.17439799186E+03 0.  0.
        -24    2    5    5    0    0 -0.28984226199E+03 -0.58954876193E+02 -0.13093732121E+03  0.33306924072E+03  0.79412358997E+02 0.  0.
          5    1    3    3  501    0  0.30299238301E+03  0.10406003908E+03  0.16092060343E+03  0.35853926773E+03  0.47000000000E+01 0. -1.
        -13    1    4    4    0    0  0.14036053997E+03  0.45807637490E+02  0.12031540918E+03  0.19046054321E+03  0.00000000000E+00 0.  1.
         14    1    4    4    0    0  0.66028122524E+02 -0.27344657871E+02  0.94229269992E+02  0.11826495086E+03  0.00000000000E+00 0. -1.
         -5    1    5    5    0  502 -0.21953878351E+03 -0.63568142506E+02  0.22298566737E+02  0.22969001346E+03  0.47000000000E+01 0.  1.
         11    1    6    6    0    0 -0.64075928645E+02 -0.48288226578E+02 -0.34085056714E+02  0.87173783610E+02  0.00000000000E+00 0. -1.
        -12    1    6    6    0    0 -0.22576633335E+03 -0.10666649615E+02 -0.96852264501E+02  0.24589545711E+03  0.00000000000E+00 0.  1.
</event>
<event>
12    1  0.1039610E+000  0.2253220E+03  0.7818608E-02  0.1130392E+00
         21   -1    0    0  501  502  0.00000000000E+00  0.00000000000E+00  0.40940762376E+03  0.40940762376E+03  0.00000000000E+00 0. -1.
         21   -1    0    0  502  503 -0.00000000000E+00 -0.00000000000E+00 -0.13443100269E+03  0.13443100269E+03  0.00000000000E+00 0. -1.
         -6    2    1    2    0  503  0.12725577441E+03  0.64256330978E+02  0.21698956271E+03  0.31117470197E+03  0.17152934626E+03 0.  0.
        -24    2    3    3    0    0  0.85847511665E+02  0.71036018079E+02  0.22924564293E+03  0.26720983096E+03  0.80197368013E+02 0.  0.
          6    2    1    2  501    0 -0.12725577441E+03 -0.64256330978E+02  0.57987058362E+02  0.23266392447E+03  0.17449095857E+03 0.  0.
         24    2    5    5    0    0 -0.10173223572E+03 -0.33486471073E+02 -0.28507256101E+02  0.13726166171E+03  0.80977210350E+02 0.  0.
          5    1    5    5  501    0 -0.25523538688E+02 -0.30769859905E+02  0.86494314463E+02  0.95402262762E+02  0.47000000000E+01 0. -1.
        -11    1    6    6    0    0 -0.34105865612E+02 -0.28978007436E+02  0.24679475953E+02  0.51107842035E+02  0.00000000000E+00 0.  1.
         12    1    6    6    0    0 -0.67626370109E+02 -0.45084636369E+01 -0.53186732054E+02  0.86153819678E+02  0.00000000000E+00 0. -1.
         -5    1    3    3    0  503  0.41408262744E+02 -0.67796871005E+01 -0.12256080219E+02  0.43964871011E+02  0.47000000000E+01 0.  1.
         13    1    4    4    0    0 -0.56972700192E+01  0.61134739728E+01  0.80206575740E+02  0.80640735622E+02  0.00000000000E+00 0. -1.
        -14    1    4    4    0    0  0.91544781684E+02  0.64922544106E+02  0.14903906719E+03  0.18656909534E+03  0.00000000000E+00 0.  1.
</event>
<event>
12    1  0.1039610E+000  0.2499237E+03  0.7818608E-02  0.1113389E+00
         21   -1    0    0  501  502  0.00000000000E+00  0.00000000000E+00  0.11737683869E+03  0.11737683869E+03  0.00000000000E+00 0.  1.
         21   -1    0    0  502  503 -0.00000000000E+00 -0.00000000000E+00 -0.59046429458E+03  0.59046429458E+03  0.00000000000E+00 0.  1.
         -6    2    1    2    0  503 -0.16087636431E+03  0.83345900635E+02 -0.34812974561E+03  0.42841982049E+03  0.17181815697E+03 0.  0.
        -24    2    3    3    0    0 -0.28085715141E+02 -0.22529500876E+01 -0.16860896565E+03  0.18923303116E+03  0.81155859961E+02 0.  0.
          6    2    1    2  501    0  0.16087636431E+03 -0.83345900635E+02 -0.12495771028E+03  0.27942131279E+03  0.17214556902E+03 0.  0.
         24    2    5    5    0    0  0.41230980393E+02 -0.87152978598E+02 -0.79969275203E+02  0.15145428177E+03  0.85133301758E+02 0.  0.
          5    1    5    5  501    0  0.11964538392E+03  0.38070779633E+01 -0.44988435080E+02  0.12796703101E+03  0.47000000000E+01 0. -1.
        -13    1    6    6    0    0  0.28781179038E+02 -0.41135589965E+02 -0.89705263925E+02  0.10279847958E+03  0.00000000000E+00 0.  1.
         14    1    6    6    0    0  0.12449801355E+02 -0.46017388634E+02  0.97359887219E+01  0.48655802191E+02  0.00000000000E+00 0. -1.
         -5    1    3    3    0  503 -0.13279064917E+03  0.85598850723E+02 -0.17952077995E+03  0.23918678932E+03  0.47000000000E+01 0.  1.
         13    1    4    4    0    0 -0.50252108231E+02  0.11663389317E+02 -0.14529771833E+03  0.15418409771E+03  0.00000000000E+00 0. -1.
        -14    1    4    4    0    0  0.22166393090E+02 -0.13916339405E+02 -0.23311247317E+02  0.35048933457E+02  0.00000000000E+00 0.  1.
</event>
<event>
12    1  0.1039610E+000  0.2180674E+03  0.7818608E-02  0.1136259E+00
         21   -1    0    0  501  502  0.00000000000E+00  0.00000000000E+00  0.16459011706E+04  0.16459011706E+04  0.00000000000E+00 0.  1.
         21   -1    0    0  502  503 -0.00000000000E+00 -0.00000000000E+00 -0.28262810993E+02  0.28262810993E+02  0.00000000000E+00 0.  1.
         -6    2    1    2    0  503  0.10910261095E+03  0.65784648387E+02  0.81613759492E+03  0.84352754714E+03  0.17095949601E+03 0.  0.
        -24    2    3    3    0    0 -0.32879951636E+01  0.47897726422E+02  0.47292999107E+03  0.48191291849E+03  0.79197736364E+02 0.  0.
          6    2    1    2  501    0 -0.10910261095E+03 -0.65784648387E+02  0.80150076470E+03  0.83063643445E+03  0.17698138534E+03 0.  0.
         24    2    5    5    0    0 -0.88113948879E+02 -0.18639754114E+02  0.74238891494E+03  0.75202685633E+03  0.79319500712E+02 0.  0.
          5    1    5    5  501    0 -0.20988662069E+02 -0.47144894273E+02  0.59111849754E+02  0.78609578124E+02  0.47000000000E+01 0. -1.
        -13    1    6    6    0    0 -0.66535647468E+02  0.19086097161E+02  0.31959055897E+03  0.32700060684E+03  0.00000000000E+00 0.  1.
         14    1    6    6    0    0 -0.21578301411E+02 -0.37725851275E+02  0.42279835597E+03  0.42502624949E+03  0.00000000000E+00 0. -1.
         -5    1    3    3    0  503  0.11239060611E+03  0.17886921965E+02  0.34320760385E+03  0.36161462866E+03  0.47000000000E+01 0.  1.
         11    1    4    4    0    0  0.10835135238E+02 -0.52400141174E+01  0.30445871870E+03  0.30469652000E+03  0.00000000000E+00 0. -1.
        -12    1    4    4    0    0 -0.14123130401E+02  0.53137740539E+02  0.16847127236E+03  0.17721639849E+03  0.00000000000E+00 0.  1.
</event>
<event>
12    1  0.1039610E+000  0.2048017E+03  0.7818608E-02  0.1145886E+00
         21   -1    0    0  501  502  0.00000000000E+00  0.00000000000E+00  0.24309610409E+02  0.24309610409E+02  0.00000000000E+00 0. -1.
         21   -1    0    0  502  503 -0.00000000000E+00 -0.00000000000E+00 -0.17724569165E+04  0.17724569165E+04  0.00000000000E+00 0. -1.
         -6    2    1    2    0  503  0.10604752460E+03 -0.34002285640E+02 -0.10275522171E+04  0.10476330149E+04  0.17108226716E+03 0.  0.
        -24    2    3    3    0    0  0.11531507707E+03 -0.69932946078E+02 -0.69451175812E+03  0.71249880714E+03  0.84378812926E+02 0.  0.
          6    2    1    2  501    0 -0.10604752460E+03  0.34002285640E+02 -0.72059508893E+03  0.74913351196E+03  0.17187641966E+03 0.  0.
         24    2    5    5    0    0 -0.13137755892E+02 -0.32676698070E+02 -0.20374206731E+03  0.21975893006E+03  0.74449916888E+02 0.  0.
          5    1    5    5  501    0 -0.92909768706E+02  0.66678983711E+02 -0.51685302163E+03  0.52937458189E+03  0.47000000000E+01 0. -1.
        -13    1    6    6    0    0 -0.41747576129E+02 -0.67269130401E+01 -0.85822171390E+02  0.95674221052E+02  0.00000000000E+00 0.  1.
         14    1    6    6    0    0  0.28609820237E+02 -0.25949785030E+02 -0.11791989592E+03  0.12408470901E+03  0.00000000000E+00 0. -1.
         -5    1    3    3    0  503 -0.92675524705E+01  0.35930660437E+02 -0.33304045899E+03  0.33513420777E+03  0.47000000000E+01 0.  1.
         11    1    4    4    0    0  0.85388563095E+02 -0.37259880054E+01 -0.41397832761E+03  0.42270929186E+03  0.00000000000E+00 0. -1.
        -12    1    4    4    0    0  0.29926513973E+02 -0.66206958072E+02 -0.28053343051E+03  0.28978951528E+03  0.00000000000E+00 0.  1.
</event>
<event>
12    1  0.1039610E+000  0.2656121E+03  0.7818608E-02  0.1103844E+00
         21   -1    0    0  501  502  0.00000000000E+00  0.00000000000E+00  0.48493851661E+02  0.48493851661E+02  0.00000000000E+00 0.  1.
         21   -1    0    0  502  503 -0.00000000000E+00 -0.00000000000E+00 -0.17693043227E+04  0.17693043227E+04  0.00000000000E+00 0.  1.
         -6    2    1    2    0  503  0.48873727696E+02 -0.19628453036E+03 -0.12444393510E+04  0.12724696837E+04  0.17214394960E+03 0.  0.
        -24    2    3    3    0    0  0.85662636583E+02 -0.13217160581E+03 -0.64807828520E+03  0.67152667328E+03  0.78327444070E+02 0.  0.
          6    2    1    2  501    0 -0.48873727696E+02  0.19628453036E+03 -0.47637112001E+03  0.54532849068E+03  0.17186465794E+03 0.  0.
         24    2    5    5    0    0 -0.15547259696E+02  0.19769818113E+03 -0.46459562754E+03  0.50964370259E+03  0.67537532940E+02 0.  0.
          5    1    5    5  501    0 -0.33326468000E+02 -0.14136507688E+01 -0.11775492467E+02  0.35684788085E+02  0.47000000000E+01 0. -1.
        -13    1    6    6    0    0  0.59444024580E+01  0.60351305564E+02 -0.22101760134E+03  0.22918637853E+03  0.00000000000E+00 0.  1.
         14    1    6    6    0    0 -0.21491662154E+02  0.13734687556E+03 -0.24357802621E+03  0.28045732406E+03  0.00000000000E+00 0. -1.
         -5    1    3    3    0  503 -0.36788908888E+02 -0.64112924551E+02 -0.59636106583E+03  0.60094301040E+03  0.47000000000E+01 0.  1.
         11    1    4    4    0    0  0.27467337639E+02 -0.80625957320E+01 -0.22457503541E+03  0.22639215229E+03  0.00000000000E+00 0. -1.
        -12    1    4    4    0    0  0.58195298944E+02 -0.12410901008E+03 -0.42350324979E+03  0.44513452099E+03  0.00000000000E+00 0.  1.
</event>
<event>
12    1  0.1039610E+000  0.1944246E+03  0.7818608E-02  0.1154675E+00
         21   -1    0    0  503  502  0.00000000000E+00  0.00000000000E+00  0.42263104108E+03  0.42263104108E+03  0.00000000000E+00 0.  1.
         21   -1    0    0  501  503 -0.00000000000E+00 -0.00000000000E+00 -0.90113078793E+02  0.90113078793E+02  0.00000000000E+00 0.  1.
          6    2    1    2  501    0 -0.78925862752E+02  0.42268218099E+02  0.13987471843E+03  0.23951170773E+03  0.17258339206E+03 0.  0.
         24    2    3    3    0    0 -0.57538689126E+02 -0.37307511909E+02  0.10167976635E+03  0.14856858064E+03  0.83852829858E+02 0.  0.
         -6    2    1    2    0  502  0.78925862752E+02 -0.42268218099E+02  0.19264324386E+03  0.27323241214E+03  0.17183898733E+03 0.  0.
        -24    2    5    5    0    0  0.10587260139E+03  0.98721660816E+01  0.13849665527E+03  0.19324060355E+03  0.82789733360E+02 0.  0.
          5    1    3    3  501    0 -0.21387173627E+02  0.79575730009E+02  0.38194952073E+02  0.90943127096E+02  0.47000000000E+01 0. -1.
        -11    1    4    4    0    0 -0.54552416729E+02  0.26744969459E+01  0.92525497467E+02  0.10744341202E+03  0.00000000000E+00 0.  1.
         12    1    4    4    0    0 -0.29862723972E+01 -0.39982008855E+02  0.91542688877E+01  0.41125168617E+02  0.00000000000E+00 0. -1.
         -5    1    5    5    0  502 -0.26946738639E+02 -0.52140384181E+02  0.54146588583E+02  0.79991808587E+02  0.47000000000E+01 0.  1.
         13    1    6    6    0    0  0.73801215718E+02  0.24678612837E+01  0.14208796436E+03  0.16013025759E+03  0.00000000000E+00 0. -1.
        -14    1    6    6    0    0  0.32071385673E+02  0.74043047980E+01 -0.35913090849E+01  0.33110345958E+02  0.00000000000E+00 0.  1.
</event>
<event>
12    1  0.1039610E+000  0.2240058E+03  0.7818608E-02  0.1131518E+00
         21   -1    0    0  501  502  0.00000000000E+00  0.00000000000E+00  0.28783212375E+03  0.28783212375E+03  0.00000000000E+00 0. -1.
         21   -1    0    0  502  503 -0.00000000000E+00 -0.00000000000E+00 -0.20175996126E+03  0.20175996126E+03  0.00000000000E+00 0. -1.
         -6    2    1    2    0  503  0.76293171547E+02 -0.11868121565E+03  0.13754736973E+03  0.26286476667E+03  0.17399059648E+03 0.  0.
        -24    2    3    3    0    0 -0.88278448604E+01 -0.20655236656E+02  0.95788197584E+02  0.12640745301E+03  0.79365582804E+02 0.  0.
          6    2    1    2  501    0 -0.76293171547E+02  0.11868121565E+03 -0.51475207235E+02  0.22672731834E+03  0.16985199719E+03 0.  0.
         24    2    5    5    0    0 -0.11369044582E+03  0.88068343747E+02 -0.15854850398E+02  0.16650602751E+03  0.82409527811E+02 0.  0.
          5    1    5    5  501    0  0.37397274270E+02  0.30612871903E+02 -0.35620356837E+02  0.60221290838E+02  0.47000000000E+01 0. -1.
        -11    1    6    6    0    0 -0.75900152589E+02  0.10598205253E+02  0.80462896876E+01  0.77057756880E+02  0.00000000000E+00 0.  1.
         12    1    6    6    0    0 -0.37790293229E+02  0.77470138494E+02 -0.23901140086E+02  0.89448270626E+02  0.00000000000E+00 0. -1.
         -5    1    3    3    0  503  0.85121016408E+02 -0.98025978994E+02  0.41759172144E+02  0.13645731366E+03  0.47000000000E+01 0.  1.
         11    1    4    4    0    0 -0.16001193134E+02  0.18899256046E+02  0.25768286417E+01  0.24896989911E+02  0.00000000000E+00 0. -1.
        -12    1    4    4    0    0  0.71733482737E+01 -0.39554492702E+02  0.93211368943E+02  0.10151046310E+03  0.00000000000E+00 0.  1.
</event>
<event>
12    1  0.1039610E+000  0.2755636E+03  0.7818608E-02  0.1098347E+00
         21   -1    0    0  501  502  0.00000000000E+00  0.00000000000E+00  0.11708761003E+04  0.11708761003E+04  0.00000000000E+00 0.  1.
         21   -1    0    0  502  503 -0.00000000000E+00 -0.00000000000E+00 -0.11301674875E+03  0.11301674875E+03  0.00000000000E+00 0.  1.
         -6    2    1    2    0  503 -0.13059221414E+03  0.17049970109E+03  0.10749934829E+03  0.29438819864E+03  0.17024637191E+03 0.  0.
        -24    2    3    3    0    0 -0.92882213014E+02  0.13691597650E+03  0.80140264920E+01  0.18272204443E+03  0.77136442654E+02 0.  0.
          6    2    1    2  501    0  0.13059221414E+03 -0.17049970109E+03  0.95036000325E+03  0.98950465040E+03  0.17265816781E+03 0.  0.
         24    2    5    5    0    0  0.38879103855E+02 -0.45961822026E+02  0.57610314151E+03  0.58452160572E+03  0.78400281170E+02 0.  0.
          5    1    5    5  501    0  0.91713110288E+02 -0.12453787906E+03  0.37425686174E+03  0.40498304468E+03  0.47000000000E+01 0. -1.
        -13    1    6    6    0    0  0.15793975311E+02 -0.49234368288E+02  0.16856059139E+03  0.17631263610E+03  0.00000000000E+00 0.  1.
         14    1    6    6    0    0  0.23085128544E+02  0.32725462627E+01  0.40754255012E+03  0.40820896962E+03  0.00000000000E+00 0. -1.
         -5    1    3    3    0  503 -0.37710001128E+02  0.33583724587E+02  0.99485321793E+02  0.11166615420E+03  0.47000000000E+01 0.  1.
         11    1    4    4    0    0 -0.12194078193E+02  0.45016060316E+02 -0.29034944752E+02  0.54937867142E+02  0.00000000000E+00 0. -1.
        -12    1    4    4    0    0 -0.80688134821E+02  0.91899916187E+02  0.37048971244E+02  0.12778417729E+03  0.00000000000E+00 0.  1.
</event>
<event>
12    1  0.1039610E+000  0.1882329E+03  0.7818608E-02  0.1160128E+00
         21   -1    0    0  501  502  0.00000000000E+00  0.00000000000E+00  0.32938799935E+03  0.32938799935E+03  0.00000000000E+00 0. -1.
         21   -1    0    0  502  503 -0.00000000000E+00 -0.00000000000E+00 -0.32726545083E+03  0.32726545083E+03  0.00000000000E+00 0.  1.
         -6    2    1    2    0  503 -0.65675910416E+02 -0.38452149070E+02  0.27016718954E+03  0.32911786064E+03  0.17186146430E+03 0.  0.
        -24    2    3    3    0    0 -0.20577317006E+01  0.29677588792E+02  0.16997393941E+03  0.19218827576E+03  0.84617963364E+02 0.  0.
          6    2    1    2  501    0  0.65675910416E+02  0.38452149070E+02 -0.26804464101E+03  0.32753558954E+03  0.17216195823E+03 0.  0.
         24    2    5    5    0    0 -0.26878304065E+02 -0.97358382425E+01 -0.12888139244E+03  0.15353310538E+03  0.78388591991E+02 0.  0.
          5    1    5    5  501    0  0.92554214481E+02  0.48187987312E+02 -0.13916324857E+03  0.17400248416E+03  0.47000000000E+01 0. -1.
        -11    1    6    6    0    0 -0.51907086703E+02  0.76975373329E+01 -0.89099345445E+02  0.10340353519E+03  0.00000000000E+00 0.  1.
         12    1    6    6    0    0  0.25028782638E+02 -0.17433375575E+02 -0.39782046994E+02  0.50129570189E+02  0.00000000000E+00 0. -1.
         -5    1    3    3    0  503 -0.63618178716E+02 -0.68129737862E+02  0.10019325013E+03  0.13692958488E+03  0.47000000000E+01 0.  1.
         11    1    4    4    0    0 -0.19965886548E+02  0.28118386364E+02  0.17525405407E+02  0.38683589699E+02  0.00000000000E+00 0. -1.
        -12    1    4    4    0    0  0.17908154847E+02  0.15592024286E+01  0.15244853400E+03  0.15350468606E+03  0.00000000000E+00 0.  1.
</event>
<event>
12    1  0.1039610E+000  0.1728221E+03  0.7818608E-02  0.1175090E+00
         21   -1    0    0  503  502  0.00000000000E+00  0.00000000000E+00  0.34583559993E+03  0.34583559993E+03  0.00000000000E+00 0. -1.
         21   -1    0    0  501  503 -0.00000000000E+00 -0.00000000000E+00 -0.14174740867E+03  0.14174740867E+03  0.00000000000E+00 0. -1.
          6    2    1    2  501    0  0.11143846702E+01  0.19016015563E+02 -0.50648781318E+02  0.18009101814E+03  0.17176910393E+03 0.  0.
         24    2    3    3    0    0  0.20776755178E+02  0.68853383959E+02 -0.62870485976E+02  0.12493821071E+03  0.80525750233E+02 0.  0.
         -6    2    1    2    0  502 -0.11143846702E+01 -0.19016015563E+02  0.25473697258E+03  0.30749199046E+03  0.17116526603E+03 0.  0.
        -24    2    5    5    0    0  0.46921289727E+02 -0.47372239284E+02  0.10922802106E+03  0.15158674228E+03  0.81252959112E+02 0.  0.
          5    1    3    3  501    0 -0.19662370508E+02 -0.49837368396E+02  0.12221704658E+02  0.55152807429E+02  0.47000000000E+01 0. -1.
        -13    1    4    4    0    0 -0.13711673665E+02  0.61319008704E+02 -0.63905646046E+02  0.89621216348E+02  0.00000000000E+00 0.  1.
         14    1    4    4    0    0  0.34488428843E+02  0.75343752550E+01  0.10351600702E+01  0.35316994364E+02  0.00000000000E+00 0. -1.
         -5    1    5    5    0  502 -0.48035674397E+02  0.28356223720E+02  0.14550895152E+03  0.15590524818E+03  0.47000000000E+01 0.  1.
         13    1    6    6    0    0  0.19470494130E+01  0.14109006259E+02  0.58157685344E+02  0.59876301018E+02  0.00000000000E+00 0. -1.
        -14    1    6    6    0    0  0.44974240314E+02 -0.61481245543E+02  0.51070335716E+02  0.91710441257E+02  0.00000000000E+00 0.  1.
</event>
<event>
12    1  0.1039610E+000  0.2392334E+03  0.7818608E-02  0.1120367E+00
         21   -1    0    0  501  502  0.00000000000E+00  0.00000000000E+00  0.24573255083E+02  0.24573255083E+02  0.00000000000E+00 0.  1.
         21   -1    0    0  502  503 -0.00000000000E+00 -0.00000000000E+00 -0.23337160273E+04  0.23337160273E+04  0.00000000000E+00 0.  1.
         -6    2    1    2    0  503  0.11530363852E+03 -0.12028305337E+03 -0.10832949446E+04  0.11093155058E+04  0.17114325109E+03 0.  0.
        -24    2    3    3    0    0  0.14423474453E+03 -0.12585904570E+03 -0.98718484411E+03  0.10086808100E+04  0.79113203968E+02 0.  0.
          6    2    1    2  501    0 -0.11530363852E+03  0.12028305337E+03 -0.12258478276E+04  0.12489737766E+04  0.17166728336E+03 0.  0.
         24    2    5    5    0    0 -0.75234403771E+02  0.13963476797E+03 -0.73589430643E+03  0.75698132203E+03  0.79512311793E+02 0.  0.
          5    1    5    5  501    0 -0.40069234746E+02 -0.19351714604E+02 -0.48995352115E+03  0.49199245453E+03  0.47000000000E+01 0. -1.
        -11    1    6    6    0    0  0.23298104052E+01  0.72749452237E+02 -0.36611245082E+03  0.37327769484E+03  0.00000000000E+00 0.  1.
         12    1    6    6    0    0 -0.77564214176E+02  0.66885315736E+02 -0.36978185561E+03  0.38370362719E+03  0.00000000000E+00 0. -1.
         -5    1    3    3    0  503 -0.28931106016E+02  0.55759923268E+01 -0.96110100476E+02  0.10063469580E+03  0.47000000000E+01 0.  1.
         11    1    4    4    0    0  0.82058284613E+02 -0.22321382522E+02 -0.35302783635E+03  0.36312595532E+03  0.00000000000E+00 0. -1.
        -12    1    4    4    0    0  0.62176459919E+02 -0.10353766317E+03 -0.63415700776E+03  0.64555485465E+03  0.00000000000E+00 0.  1.
</event>
<event>
12    1  0.1039610E+000  0.2840748E+03  0.7818608E-02  0.1093708E+00
         21   -1    0    0  503  502  0.00000000000E+00  0.00000000000E+00  0.20869330224E+04  0.20869330224E+04  0.00000000000E+00 0. -1.
         21   -1    0    0  501  503 -0.00000000000E+00 -0.00000000000E+00 -0.38681965601E+02  0.38681965601E+02  0.00000000000E+00 0. -1.
          6    2    1    2  501    0  0.14916294218E+03  0.16830771658E+03  0.94344821122E+03  0.98528829809E+03  0.17355527165E+03 0.  0.
         24    2    3    3    0    0  0.13723198187E+03  0.65689595227E+02  0.70139678969E+03  0.72207012374E+03  0.79246875273E+02 0.  0.
         -6    2    1    2    0  502 -0.14916294218E+03 -0.16830771658E+03  0.11048028456E+04  0.11403266899E+04  0.17081733325E+03 0.  0.
        -24    2    5    5    0    0 -0.14727419906E+03 -0.12545918153E+03  0.63625151885E+03  0.66979295032E+03  0.79855526600E+02 0.  0.
          5    1    3    3  501    0  0.11930960311E+02  0.10261812135E+03  0.24205142152E+03  0.26321817434E+03  0.47000000000E+01 0. -1.
        -13    1    4    4    0    0  0.65146271338E+02  0.49660940184E+02  0.21457879750E+03  0.22968305550E+03  0.00000000000E+00 0.  1.
         14    1    4    4    0    0  0.72085710536E+02  0.16028655044E+02  0.48681799220E+03  0.49238706824E+03  0.00000000000E+00 0. -1.
         -5    1    5    5    0  502 -0.18887431210E+01 -0.42848535051E+02  0.46855132674E+03  0.47053373960E+03  0.47000000000E+01 0.  1.
         13    1    6    6    0    0 -0.11547155285E+03 -0.67566284815E+02  0.51061578080E+03  0.52785164389E+03  0.00000000000E+00 0. -1.
        -14    1    6    6    0    0 -0.31802646208E+02 -0.57892896712E+02  0.12563573805E+03  0.14194130643E+03  0.00000000000E+00 0.  1.
</event>
<event>
12    1  0.1039610E+000  0.1889031E+03  0.7818608E-02  0.1159738E+00
         21   -1    0    0  503  502  0.00000000000E+00  0.00000000000E+00  0.10229086752E+04  0.10229086752E+04  0.00000000000E+00 0.  1.
         21   -1    0    0  501  503 -0.00000000000E+00 -0.00000000000E+00 -0.37284963034E+02  0.37284963034E+02  0.00000000000E+00 0.  1.
          6    2    1    2  501    0  0.53511172801E+02 -0.55171494295E+02  0.35053484382E+03  0.39760609960E+03  0.17119753010E+03 0.  0.
         24    2    3    3    0    0 -0.30252618855E+02 -0.21427685186E+02  0.11049580060E+03  0.14109908271E+03  0.79531519230E+02 0.  0.
         -6    2    1    2    0  502 -0.53511172801E+02  0.55171494295E+02  0.63508886834E+03  0.66258753862E+03  0.17256023950E+03 0.  0.
        -24    2    5    5    0    0 -0.10167184550E+03  0.32356492450E+02  0.49703347282E+03  0.51452891194E+03  0.79458299414E+02 0.  0.
          5    1    3    3  501    0  0.83763791656E+02 -0.33743809109E+02  0.24003904322E+03  0.25650701689E+03  0.47000000000E+01 0. -1.
        -11    1    4    4    0    0  0.17021707976E+01 -0.46595413288E+02  0.66056989526E+02  0.80855153145E+02  0.00000000000E+00 0.  1.
         12    1    4    4    0    0 -0.31954789653E+02  0.25167728102E+02  0.44438811071E+02  0.60243929561E+02  0.00000000000E+00 0. -1.
         -5    1    5    5    0  502  0.48160672701E+02  0.22815001845E+02  0.13805539552E+03  0.14805862669E+03  0.47000000000E+01 0.  1.
         11    1    6    6    0    0 -0.22749909479E+02 -0.25126473655E+02  0.96965321611E+02  0.10271889629E+03  0.00000000000E+00 0. -1.
        -12    1    6    6    0    0 -0.78921936023E+02  0.57482966105E+02  0.40006815121E+03  0.41181001565E+03  0.00000000000E+00 0.  1.
</event>
<event>
12    1  0.1039610E+000  0.2050212E+03  0.7818608E-02  0.1145826E+00
         21   -1    0    0  501  502  0.00000000000E+00  0.00000000000E+00  0.85952593520E+02  0.85952593520E+02  0.00000000000E+00 0.  1.
         21   -1    0    0  502  503 -0.00000000000E+00 -0.00000000000E+00 -0.13746284201E+04  0.13746284201E+04  0.00000000000E+00 0.  1.
         -6    2    1    2    0  503  0.98897109977E+02 -0.60955707575E+02 -0.56494655286E+02  0.21145966633E+03  0.16741358296E+03 0.  0.
        -24    2    3    3    0    0  0.25371761576E+01  0.13609951076E+02 -0.30519650840E+02  0.86791847100E+02  0.80060649538E+02 0.  0.
          6    2    1    2  501    0 -0.98897109977E+02  0.60955707575E+02 -0.12321811713E+04  0.12491213473E+04  0.16893035463E+03 0.  0.
         24    2    5    5    0    0 -0.79002265848E+02 -0.57076471414E+01 -0.10156491924E+04  0.10216394896E+04  0.77006684675E+02 0.  0.
          5    1    5    5  501    0 -0.19894844129E+02  0.66663354716E+02 -0.21653197891E+03  0.22748185768E+03  0.47000000000E+01 0. -1.
        -13    1    6    6    0    0  0.99523022006E+01 -0.17284175880E+02 -0.23776667295E+03  0.23860172216E+03  0.00000000000E+00 0.  1.
         14    1    6    6    0    0 -0.88954568049E+02  0.11576528738E+02 -0.77788251946E+03  0.78303776746E+03  0.00000000000E+00 0. -1.
         -5    1    3    3    0  503  0.96359933820E+02 -0.74565658650E+02 -0.25975004446E+02  0.12466781923E+03  0.47000000000E+01 0.  1.
         13    1    4    4    0    0  0.32259928479E+02  0.12270994283E+02 -0.42471980137E+02  0.54727957964E+02  0.00000000000E+00 0. -1.
        -14    1    4    4    0    0 -0.29722752322E+02  0.13389567924E+01  0.11952329297E+02  0.32063889135E+02  0.00000000000E+00 0.  1.
</event>
<event>
12    1  0.1039610E+000  0.1782232E+03  0.7818608E-02  0.1169674E+00
         21   -1    0    0  501  502  0.00000000000E+00  0.00000000000E+00  0.18060098371E+04  0.18060098371E+04  0.00000000000E+00 0. -1.
         21   -1    0    0  502  503 -0.00000000000E+00 -0.00000000000E+00 -0.24943469582E+02  0.24943469582E+02  0.00000000000E+00 0. -1.
         -6    2    1    2    0  503  0.36163738689E+02  0.28783246295E+02  0.13905787708E+04  0.14019532238E+04  0.17212563015E+03 0.  0.
        -24    2    3    3    0    0 -0.46826123923E+02  0.16856891356E+02  0.81629042868E+03  0.82155788855E+03  0.78424866080E+02 0.  0.
          6    2    1    2  501    0 -0.36163738689E+02 -0.28783246295E+02  0.39048759667E+03  0.42900008287E+03  0.17153488475E+03 0.  0.
         24    2    5    5    0    0  0.33933779138E+01 -0.80788653306E+02  0.21280072677E+03  0.23962204411E+03  0.74808109124E+02 0.  0.
          5    1    5    5  501    0 -0.39557116603E+02  0.52005407011E+02  0.17768686989E+03  0.18937803876E+03  0.47000000000E+01 0. -1.
        -11    1    6    6    0    0 -0.14726302684E+02 -0.41069985156E+02  0.17946740386E+03  0.18469476636E+03  0.00000000000E+00 0.  1.
         12    1    6    6    0    0  0.18119680597E+02 -0.39718668150E+02  0.33333322910E+02  0.54927277748E+02  0.00000000000E+00 0. -1.
         -5    1    3    3    0  503  0.82989862612E+02  0.11926354939E+02  0.57428834217E+03  0.58039533526E+03  0.47000000000E+01 0.  1.
         11    1    4    4    0    0 -0.30854000694E+02  0.37948305621E+02  0.25521698337E+03  0.25986102413E+03  0.00000000000E+00 0. -1.
        -12    1    4    4    0    0 -0.15972123229E+02 -0.21091414265E+02  0.56107344530E+03  0.56169686442E+03  0.00000000000E+00 0.  1.
</event>
<event>
12    1  0.1039610E+000  0.1999377E+03  0.7818608E-02  0.1150127E+00
         21   -1    0    0  501  502  0.00000000000E+00  0.00000000000E+00  0.15473143810E+04  0.15473143810E+04  0.00000000000E+00 0. -1.
         21   -1    0    0  502  503 -0.00000000000E+00 -0.00000000000E+00 -0.29463975175E+02  0.29463975175E+02  0.00000000000E+00 0. -1.
         -6    2    1    2    0  503  0.57373607978E+01 -0.10323317898E+03  0.47193821533E+03  0.51192748263E+03  0.16927510697E+03 0.  0.
        -24    2    3    3    0    0  0.41114923095E+02 -0.47916997103E+02  0.13870730639E+03  0.17225649394E+03  0.80287653753E+02 0.  0.
          6    2    1    2  501    0 -0.57373607978E+01  0.10323317898E+03  0.10459121905E+04  0.10648508736E+04  0.17112879973E+03 0.  0.
         24    2    5    5    0    0 -0.64051571754E+02  0.35098186465E+02  0.64601730394E+03  0.65499610085E+03  0.79668366366E+02 0.  0.
          5    1    5    5  501    0  0.58314210956E+02  0.68134992513E+02  0.39989488659E+03  0.40985477272E+03  0.47000000000E+01 0. -1.
        -11    1    6    6    0    0 -0.55336876493E+02  0.59326355023E+02  0.44479067134E+03  0.45212888385E+03  0.00000000000E+00 0.  1.
         12    1    6    6    0    0 -0.87146952604E+01 -0.24228168558E+02  0.20122663260E+03  0.20286721700E+03  0.00000000000E+00 0. -1.
         -5    1    3    3    0  503 -0.35377562297E+02 -0.55316181876E+02  0.33323090894E+03  0.33967098870E+03  0.47000000000E+01 0.  1.
         11    1    4    4    0    0 -0.64936596227E+00  0.17478076296E+02  0.59282386926E+01  0.18467507713E+02  0.00000000000E+00 0. -1.
        -12    1    4    4    0    0  0.41764289057E+02 -0.65395073398E+02  0.13277906770E+03  0.15378898622E+03  0.00000000000E+00 0.  1.
</event>
<event>
12    1  0.1039610E+000  0.3446248E+03  0.7818608E-02  0.1064909E+00
         21   -1    0    0  503  502  0.00000000000E+00  0.00000000000E+00  0.15721737448E+03  0.15721737448E+03  0.00000000000E+00 0.  1.
         21   -1    0    0  501  503 -0.00000000000E+00 -0.00000000000E+00 -0.84234972622E+03  0.84234972622E+03  0.00000000000E+00 0. -1.
          6    2    1    2  501    0  0.22968451037E+03 -0.18911306778E+03 -0.18046573535E+03  0.38845773078E+03  0.17266383598E+03 0.  0.
         24    2    3    3    0    0  0.87485832721E+02 -0.10470349867E+03 -0.15545506134E+03  0.22114645472E+03  0.78248864390E+02 0.  0.
         -6    2    1    2    0  502 -0.22968451037E+03  0.18911306778E+03 -0.50466661638E+03  0.61110936992E+03  0.17391820377E+03 0.  0.
        -24    2    5    5    0    0 -0.12136644665E+03  0.24743057493E+02 -0.19170402463E+03  0.24135542870E+03  0.78485518646E+02 0.  0.
          5    1    3    3  501    0  0.14219867764E+03 -0.84409569112E+02 -0.25010674013E+02  0.16731127606E+03  0.47000000000E+01 0. -1.
        -11    1    4    4    0    0  0.61324113150E+02 -0.87086313720E+02 -0.63664165282E+02  0.12408786738E+03  0.00000000000E+00 0.  1.
         12    1    4    4    0    0  0.26161719571E+02 -0.17617184951E+02 -0.91790896057E+02  0.97058587335E+02  0.00000000000E+00 0. -1.
         -5    1    5    5    0  502 -0.10831806372E+03  0.16437001029E+03 -0.31296259176E+03  0.36975394122E+03  0.47000000000E+01 0.  1.
         11    1    6    6    0    0 -0.64543593405E+01  0.26167768601E+02 -0.15809422541E+02  0.31246579159E+02  0.00000000000E+00 0. -1.
        -12    1    6    6    0    0 -0.11491208731E+03 -0.14247111075E+01 -0.17589460209E+03  0.21010884954E+03  0.00000000000E+00 0.  1.
</event>
<event>
12    1  0.1039610E+000  0.1815805E+03  0.7818608E-02  0.1166620E+00
         21   -1    0    0  501  502  0.00000000000E+00  0.00000000000E+00  0.43376230868E+03  0.43376230868E+03  0.00000000000E+00 0. -1.
         21   -1    0    0  502  503 -0.00000000000E+00 -0.00000000000E+00 -0.77578747121E+02  0.77578747121E+02  0.00000000000E+00 0. -1.
         -6    2    1    2    0  503 -0.30059125974E+02  0.41762779513E+02  0.13616693425E+03  0.22696453716E+03  0.17413726293E+03 0.  0.
        -24    2    3    3    0    0 -0.54709297432E+02  0.75426102682E+02  0.13795118192E+03  0.18493926120E+03  0.80559279727E+02 0.  0.
          6    2    1    2  501    0  0.30059125974E+02 -0.41762779513E+02  0.22001662731E+03  0.28437651863E+03  0.17267022688E+03 0.  0.
         24    2    5    5    0    0 -0.26576641328E+02 -0.72074855498E+02  0.11726788378E+03  0.16310893688E+03  0.83376651791E+02 0.  0.
          5    1    5    5  501    0  0.56635767302E+02  0.30312075985E+02  0.10274874353E+03  0.12126758176E+03  0.47000000000E+01 0. -1.
        -11    1    6    6    0    0  0.45649865935E+01 -0.74668917185E+01 -0.12252132173E+02  0.15056836232E+02  0.00000000000E+00 0.  1.
         12    1    6    6    0    0 -0.31141627921E+02 -0.64607963779E+02  0.12952001595E+03  0.14805210064E+03  0.00000000000E+00 0. -1.
         -5    1    3    3    0  503  0.24650171459E+02 -0.33663323170E+02 -0.17842476720E+01  0.42025275960E+02  0.47000000000E+01 0.  1.
         11    1    4    4    0    0 -0.24084231955E+02  0.51038959535E+02  0.18742579622E+02  0.59466880784E+02  0.00000000000E+00 0. -1.
        -12    1    4    4    0    0 -0.30625065477E+02  0.24387143147E+02  0.11920860230E+03  0.12547238042E+03  0.00000000000E+00 0.  1.
</event>
<event>
12    1  0.1039610E+000  0.1900709E+03  0.7818608E-02  0.1158596E+00
         21   -1    0    0  501  502  0.00000000000E+00  0.00000000000E+00  0.20023000278E+04  0.20023000278E+04  0.00000000000E+00 0. -1.
         21   -1    0    0  502  503 -0.00000000000E+00 -0.00000000000E+00 -0.18575317266E+02  0.18575317266E+02  0.00000000000E+00 0. -1.
         -6    2    1    2    0  503  0.49310327448E+01 -0.78746503777E+02  0.11736319337E+04  0.11887832531E+04  0.17195458723E+03 0.  0.
        -24    2    3    3    0    0  0.13604370344E+02 -0.61418618664E+02  0.11603410174E+04  0.11648203475E+04  0.80360685018E+02 0.  0.
          6    2    1    2  501    0 -0.49310327448E+01  0.78746503777E+02  0.81009277686E+03  0.83209209201E+03  0.17292083600E+03 0.  0.
         24    2    5    5    0    0 -0.46491726760E+02  0.97064343809E+02  0.70303199327E+03  0.71570078678E+03  0.79941635830E+02 0.  0.
          5    1    5    5  501    0  0.41560694015E+02 -0.18317840032E+02  0.10706078359E+03  0.11639130523E+03  0.47000000000E+01 0. -1.
        -11    1    6    6    0    0 -0.65452444714E+02  0.48567086780E+02  0.45823850122E+03  0.46543024014E+03  0.00000000000E+00 0.  1.
         12    1    6    6    0    0  0.18960717954E+02  0.48497257029E+02  0.24479349205E+03  0.25027054664E+03  0.00000000000E+00 0. -1.
         -5    1    3    3    0  503 -0.86733375994E+01 -0.17327885114E+02  0.13290916306E+02  0.23962905581E+02  0.47000000000E+01 0.  1.
         13    1    4    4    0    0  0.29261693793E+02 -0.74961716153E+02  0.97895382296E+03  0.98225561495E+03  0.00000000000E+00 0. -1.
        -14    1    4    4    0    0 -0.15657323449E+02  0.13543097489E+02  0.18138719441E+03  0.18256473253E+03  0.00000000000E+00 0.  1.
</event>
<event>
12    1  0.1039610E+000  0.2997120E+03  0.7818608E-02  0.1085472E+00
         21   -1    0    0  503  502  0.00000000000E+00  0.00000000000E+00  0.66879899405E+03  0.66879899405E+03  0.00000000000E+00 0.  1.
         21   -1    0    0  501  503 -0.00000000000E+00 -0.00000000000E+00 -0.17096948875E+03  0.17096948875E+03  0.00000000000E+00 0.  1.
          6    2    1    2  501    0 -0.18109126171E+03 -0.16424254834E+03  0.44394275969E+03  0.53525068835E+03  0.17215825786E+03 0.  0.
         24    2    3    3    0    0 -0.19482321171E+03 -0.11575250818E+03  0.31101060208E+03  0.39300829322E+03  0.79832305271E+02 0.  0.
         -6    2    1    2    0  502  0.18109126171E+03  0.16424254834E+03  0.53886745615E+02  0.30451779445E+03  0.17337141066E+03 0.  0.
        -24    2    5    5    0    0  0.15291434595E+03  0.57486407292E+02  0.44704869789E+01  0.18346049872E+03  0.83368369994E+02 0.  0.
          5    1    3    3  501    0  0.13731950001E+02 -0.48490040165E+02  0.13293215760E+03  0.14224239513E+03  0.47000000000E+01 0. -1.
        -13    1    4    4    0    0 -0.86904350161E+02 -0.50690210037E+02  0.20490735360E+03  0.22827371077E+03  0.00000000000E+00 0.  1.
         14    1    4    4    0    0 -0.10791886155E+03 -0.65062298138E+02  0.10610324849E+03  0.16473458245E+03  0.00000000000E+00 0. -1.
         -5    1    5    5    0  502  0.28176915757E+02  0.10675614105E+03  0.49416258636E+02  0.12105729574E+03  0.47000000000E+01 0.  1.
         11    1    6    6    0    0  0.47380312394E+02  0.36865699478E+02 -0.34316620873E+02  0.69149145105E+02  0.00000000000E+00 0. -1.
        -12    1    6    6    0    0  0.10553403356E+03  0.20620707814E+02  0.38787107852E+02  0.11431135361E+03  0.00000000000E+00 0.  1.
</event>
<event>
12    1  0.1039610E+000  0.1888289E+03  0.7818608E-02  0.1159806E+00
         21   -1    0    0  503  502  0.00000000000E+00  0.00000000000E+00  0.87748257397E+02  0.87748257397E+02  0.00000000000E+00 0. -1.
         21   -1    0    0  501  503 -0.00000000000E+00 -0.00000000000E+00 -0.43174647792E+03  0.43174647792E+03  0.00000000000E+00 0. -1.
          6    2    1    2  501    0  0.21770648618E+01 -0.74022260371E+02 -0.10629796325E+03  0.21669240005E+03  0.17370176915E+03 0.  0.
         24    2    3    3    0    0 -0.48914287218E+02 -0.37244598874E+02 -0.10032712305E+02  0.10157502003E+03  0.80231301486E+02 0.  0.
         -6    2    1    2    0  502 -0.21770648618E+01  0.74022260371E+02 -0.23770025728E+03  0.30280233527E+03  0.17234792513E+03 0.  0.
        -24    2    5    5    0    0  0.51233320785E+02  0.82467006249E+02 -0.20235086981E+03  0.23802848081E+03  0.79284442906E+02 0.  0.
          5    1    3    3  501    0  0.51091352079E+02 -0.36777661498E+02 -0.96265250946E+02  0.11511738002E+03  0.47000000000E+01 0. -1.
        -13    1    4    4    0    0 -0.43578202592E+02 -0.64218395472E+01  0.28103725046E+02  0.52250541870E+02  0.00000000000E+00 0.  1.
         14    1    4    4    0    0 -0.53360846261E+01 -0.30822759326E+02 -0.38136437351E+02  0.49324478157E+02  0.00000000000E+00 0. -1.
         -5    1    5    5    0  502 -0.53410385646E+02 -0.84447458774E+01 -0.35349387470E+02  0.64773854465E+02  0.47000000000E+01 0.  1.
         13    1    6    6    0    0  0.23648250352E+02 -0.79021663119E+01 -0.17603519698E+02  0.30521596991E+02  0.00000000000E+00 0. -1.
        -14    1    6    6    0    0  0.27585070432E+02  0.90369172561E+02 -0.18474735011E+03  0.20750688382E+03  0.00000000000E+00 0.  1.
</event>
<event>
12    1  0.1039610E+000  0.1956785E+03  0.7818608E-02  0.1153451E+00
         21   -1    0    0  501  502  0.00000000000E+00  0.00000000000E+00  0.69452739668E+02  0.69452739668E+02  0.00000000000E+00 0. -1.
         21   -1    0    0  502  503 -0.00000000000E+00 -0.00000000000E+00 -0.63192869925E+03  0.63192869925E+03  0.00000000000E+00 0. -1.
         -6    2    1    2    0  503 -0.89846375311E+02  0.25301991147E+02 -0.40659660782E+03  0.45120459307E+03  0.17190759554E+03 0.  0.
        -24    2    3    3    0    0 -0.66036736621E+02  0.75537470810E+02 -0.20810138810E+03  0.24501791900E+03  0.81613925425E+02 0.  0.
          6    2    1    2  501    0  0.89846375311E+02 -0.25301991147E+02 -0.15587935176E+03  0.25017684585E+03  0.17198116170E+03 0.  0.
         24    2    5    5    0    0  0.69986080316E+02 -0.74008601543E+01 -0.18291510731E+03  0.21186361202E+03  0.80470053122E+02 0.  0.
          5    1    5    5  501    0  0.19860294994E+02 -0.17901130993E+02  0.27035755545E+02  0.38313233823E+02  0.47000000000E+01 0. -1.
        -11    1    6    6    0    0 -0.14612691204E+02 -0.15673586760E+02 -0.29315605196E+02  0.36312487854E+02  0.00000000000E+00 0.  1.
         12    1    6    6    0    0  0.84598771521E+02  0.82727266062E+01 -0.15359950211E+03  0.17555112417E+03  0.00000000000E+00 0. -1.
         -5    1    3    3    0  503 -0.23809638690E+02 -0.50235479663E+02 -0.19849521972E+03  0.20618667407E+03  0.47000000000E+01 0.  1.
         11    1    4    4    0    0  0.19406676283E+02  0.15825459383E+02 -0.37579126633E+02  0.45158111204E+02  0.00000000000E+00 0. -1.
        -12    1    4    4    0    0 -0.85443412904E+02  0.59712011427E+02 -0.17052226146E+03  0.19985980780E+03  0.00000000000E+00 0.  1.
</event>
<event>
12    1  0.1039610E+000  0.5653299E+03  0.7818608E-02  0.9980107E-01
         21   -1    0    0  503  502  0.00000000000E+00  0.00000000000E+00  0.75544868909E+03  0.75544868909E+03  0.00000000000E+00 0. -1.
         21   -1    0    0  501  503 -0.00000000000E+00 -0.00000000000E+00 -0.42309084839E+03  0.42309084839E+03  0.00000000000E+00 0. -1.
          6    2    1    2  501    0 -0.21918190381E+03 -0.49180517082E+03  0.17470468165E+03  0.59170903405E+03  0.17229283844E+03 0.  0.
         24    2    3    3    0    0 -0.15249439502E+03 -0.43333505512E+03  0.18720298857E+03  0.50201914647E+03  0.77100285222E+02 0.  0.
         -6    2    1    2    0  502  0.21918190381E+03  0.49180517082E+03  0.15765315906E+03  0.58683050343E+03  0.17205373636E+03 0.  0.
        -24    2    5    5    0    0  0.54794082732E+02  0.27596552830E+03  0.10341686139E+03  0.31011083846E+03  0.79462699394E+02 0.  0.
          5    1    3    3  501    0 -0.66687508785E+02 -0.58470115700E+02 -0.12498306920E+02  0.89689887578E+02  0.47000000000E+01 0. -1.
        -13    1    4    4    0    0 -0.64542510157E+02 -0.10984762926E+03  0.78299211812E+02  0.14954264891E+03  0.00000000000E+00 0.  1.
         14    1    4    4    0    0 -0.87951884864E+02 -0.32348742586E+03  0.10890377676E+03  0.35247649756E+03  0.00000000000E+00 0. -1.
         -5    1    5    5    0  502  0.16438782107E+03  0.21583964252E+03  0.54236297667E+02  0.27671966498E+03  0.47000000000E+01 0.  1.
         11    1    6    6    0    0  0.30809835513E+02  0.23715658570E+02  0.11152872854E+02  0.40448300318E+02  0.00000000000E+00 0. -1.
        -12    1    6    6    0    0  0.23984247220E+02  0.25224986973E+03  0.92263988537E+02  0.26966253814E+03  0.00000000000E+00 0.  1.
</event>
<event>
12    1  0.1039610E+000  0.2518571E+03  0.7818608E-02  0.1113677E+00
         21   -1    0    0  501  502  0.00000000000E+00  0.00000000000E+00  0.23326631038E+02  0.23326631038E+02  0.00000000000E+00 0.  1.
         21   -1    0    0  502  503 -0.00000000000E+00 -0.00000000000E+00 -0.27092947298E+04  0.27092947298E+04  0.00000000000E+00 0. -1.
         -6    2    1    2    0  503 -0.17447502812E+03 -0.14115573270E+02 -0.16214691407E+04  0.16409126055E+04  0.18108346103E+03 0.  0.
        -24    2    3    3    0    0 -0.35247334518E+01 -0.13980125368E+01 -0.47719851428E+03  0.48386329970E+03  0.79943058385E+02 0.  0.
          6    2    1    2  501    0  0.17447502812E+03  0.14115573270E+02 -0.10644989581E+04  0.10917087553E+04  0.16741920405E+03 0.  0.
         24    2    5    5    0    0  0.18627529964E+02  0.11384245046E+02 -0.28159364592E+03  0.29342389350E+03  0.79536242969E+02 0.  0.
          5    1    5    5  501    0  0.15584749815E+03  0.27313282243E+01 -0.78290531215E+03  0.79828486183E+03  0.47000000000E+01 0. -1.
        -11    1    6    6    0    0  0.18882550452E+02  0.13090925779E+02 -0.16410703902E+02  0.28235336936E+02  0.00000000000E+00 0.  1.
         12    1    6    6    0    0 -0.25502048773E+00 -0.17066807324E+01 -0.26518294202E+03  0.26518855656E+03  0.00000000000E+00 0. -1.
         -5    1    3    3    0  503 -0.17095029467E+03 -0.12717560734E+02 -0.11442706264E+04  0.11570493058E+04  0.47000000000E+01 0.  1.
         11    1    4    4    0    0 -0.33389097722E+02 -0.21375700000E+02 -0.32858349507E+03  0.33096656271E+03  0.00000000000E+00 0. -1.
        -12    1    4    4    0    0  0.29864364270E+02  0.19977687463E+02 -0.14861501920E+03  0.15289673699E+03  0.00000000000E+00 0.  1.
</event>
<event>
12    1  0.1039610E+000  0.3735910E+03  0.7818608E-02  0.1053361E+00
         21   -1    0    0  501  502  0.00000000000E+00  0.00000000000E+00  0.19266141761E+03  0.19266141761E+03  0.00000000000E+00 0. -1.
         21   -1    0    0  502  503 -0.00000000000E+00 -0.00000000000E+00 -0.85995962748E+03  0.85995962748E+03  0.00000000000E+00 0. -1.
         -6    2    1    2    0  503  0.30276663424E+03  0.13527453977E+03 -0.12432440376E+03  0.39373438697E+03  0.17205631110E+03 0.  0.
        -24    2    3    3    0    0  0.16243304188E+03  0.16224703895E+02 -0.10117601299E+03  0.20819647019E+03  0.80383148009E+02 0.  0.
          6    2    1    2  501    0 -0.30276663424E+03 -0.13527453977E+03 -0.54297380611E+03  0.65888665813E+03  0.17130160019E+03 0.  0.
         24    2    5    5    0    0 -0.18214658143E+03 -0.20905718822E+01 -0.32514361612E+03  0.37646985957E+03  0.53192447209E+02 0.  0.
          5    1    5    5  501    0 -0.12062005281E+03 -0.13318396789E+03 -0.21783018998E+03  0.28241679856E+03  0.47000000000E+01 0. -1.
        -13    1    6    6    0    0 -0.11272696237E+03 -0.19602571701E+02 -0.23482411845E+03  0.26121637672E+03  0.00000000000E+00 0.  1.
         14    1    6    6    0    0 -0.69419619057E+02  0.17511999818E+02 -0.90319497673E+02  0.11525348284E+03  0.00000000000E+00 0. -1.
         -5    1    3    3    0  503  0.14033359236E+03  0.11904983588E+03 -0.23148390778E+02  0.18553791678E+03  0.47000000000E+01 0.  1.
         13    1    4    4    0    0  0.44257883260E+02 -0.27146112613E+02 -0.10280949567E+02  0.52927965998E+02  0.00000000000E+00 0. -1.
        -14    1    4    4    0    0  0.11817515862E+03  0.43370816508E+02 -0.90895063419E+02  0.15526850419E+03  0.00000000000E+00 0.  1.
</event>
<event>
12    1  0.1039610E+000  0.1783185E+03  0.7818608E-02  0.1169634E+00
         21   -1    0    0  501  502  0.00000000000E+00  0.00000000000E+00  0.46365858050E+03  0.46365858050E+03  0.00000000000E+00 0.  1.
         21   -1    0    0  502  503 -0.00000000000E+00 -0.00000000000E+00 -0.71692869502E+02  0.71692869502E+02  0.00000000000E+00 0.  1.
         -6    2    1    2    0  503 -0.19878716298E+01  0.46836139074E+02  0.13713780447E+03  0.22432932909E+03  0.17122877947E+03 0.  0.
        -24    2    3    3    0    0 -0.34205889223E+02  0.32570402773E+02  0.97468474609E+01  0.92071785569E+02  0.78430470279E+02 0.  0.
          6    2    1    2  501    0  0.19878716298E+01 -0.46836139074E+02  0.25482790653E+03  0.31102212091E+03  0.17204627923E+03 0.  0.
         24    2    5    5    0    0 -0.55637603161E+00 -0.98322136468E+02  0.17919811645E+03  0.21937477359E+03  0.79660368286E+02 0.  0.
          5    1    5    5  501    0  0.25442476614E+01  0.51485997394E+02  0.75629790082E+02  0.91647347325E+02  0.47000000000E+01 0. -1.
        -13    1    6    6    0    0  0.17272689674E+02  0.12788757828E+01  0.51806322135E+01  0.18078171422E+02  0.00000000000E+00 0.  1.
         14    1    6    6    0    0 -0.17829065705E+02 -0.99601012251E+02  0.17401748423E+03  0.20129660217E+03  0.00000000000E+00 0. -1.
         -5    1    3    3    0  503  0.32218017593E+02  0.14265736301E+02  0.12739095701E+03  0.13225754352E+03  0.47000000000E+01 0.  1.
         11    1    4    4    0    0 -0.46554330498E+02  0.20237080897E+02  0.34795044956E+02  0.61542995417E+02  0.00000000000E+00 0. -1.
        -12    1    4    4    0    0  0.12348441275E+02  0.12333321877E+02 -0.25048197495E+02  0.30528790153E+02  0.00000000000E+00 0.  1.
</event>
<event>
12    1  0.1039610E+000  0.3223583E+03  0.7818608E-02  0.1074749E+00
         21   -1    0    0  501  502  0.00000000000E+00  0.00000000000E+00  0.52189378142E+02  0.52189378142E+02  0.00000000000E+00 0.  1.
         21   -1    0    0  502  503 -0.00000000000E+00 -0.00000000000E+00 -0.20011129142E+04  0.20011129142E+04  0.00000000000E+00 0.  1.
         -6    2    1    2    0  503 -0.83634013675E+02  0.25906834556E+03 -0.10740136484E+04  0.11208956381E+04  0.16967810311E+03 0.  0.
        -24    2    3    3    0    0 -0.75490514169E+02  0.97229095314E+02 -0.35711721059E+03  0.38589845985E+03  0.78946846116E+02 0.  0.
          6    2    1    2  501    0  0.83634013675E+02 -0.25906834556E+03 -0.87490988767E+03  0.93240665424E+03  0.17263777517E+03 0.  0.
         24    2    5    5    0    0  0.51528483478E+02 -0.14078916749E+03 -0.68996375195E+03  0.71048799312E+03  0.79160817801E+02 0.  0.
          5    1    5    5  501    0  0.32105530197E+02 -0.11827917808E+03 -0.18494613572E+03  0.22191866112E+03  0.47000000000E+01 0. -1.
        -11    1    6    6    0    0  0.29269999824E+02 -0.44866427725E+02 -0.41460715133E+03  0.41805360799E+03  0.00000000000E+00 0.  1.
         12    1    6    6    0    0  0.22258483654E+02 -0.95922739760E+02 -0.27535660062E+03  0.29243438512E+03  0.00000000000E+00 0. -1.
         -5    1    3    3    0  503 -0.81434995053E+01  0.16183925025E+03 -0.71689643783E+03  0.73499717828E+03  0.47000000000E+01 0.  1.
         11    1    4    4    0    0  0.11449060542E+02  0.41213494918E+02 -0.10046966458E+03  0.10919609266E+03  0.00000000000E+00 0. -1.
        -12    1    4    4    0    0 -0.86939574711E+02  0.56015600396E+02 -0.25664754601E+03  0.27670236719E+03  0.00000000000E+00 0.  1.
</event>
<event>
12    1  0.1039610E+000  0.3362871E+03  0.7818608E-02  0.1068405E+00
         21   -1    0    0  503  502  0.00000000000E+00  0.00000000000E+00  0.81509476032E+03  0.81509476032E+03  0.00000000000E+00 0. -1.
         21   -1    0    0  501  503 -0.00000000000E+00 -0.00000000000E+00 -0.22050678781E+03  0.22050678781E+03  0.00000000000E+00 0. -1.
          6    2    1    2  501    0  0.27384381912E+03 -0.90948243719E+02  0.61276449484E+03  0.69897733325E+03  0.17270485213E+03 0.  0.
         24    2    3    3    0    0  0.28890830380E+03 -0.10165196715E+03  0.58600367682E+03  0.66611793924E+03  0.80694914942E+02 0.  0.
         -6    2    1    2    0  502 -0.27384381912E+03  0.90948243719E+02 -0.18176522336E+02  0.33662421487E+03  0.17240491805E+03 0.  0.
        -24    2    5    5    0    0 -0.23079997671E+03  0.16195436176E+02  0.41750087575E+01  0.24739173454E+03  0.87488960535E+02 0.  0.
          5    1    3    3  501    0 -0.15064484674E+02  0.10703723430E+02  0.26760818023E+02  0.32859394015E+02  0.47000000000E+01 0. -1.
        -11    1    4    4    0    0  0.54376296574E+02 -0.49117596426E+02  0.17946788445E+03  0.19385056476E+03  0.00000000000E+00 0.  1.
         12    1    4    4    0    0  0.23453200722E+03 -0.52534370723E+02  0.40653579237E+03  0.47226737448E+03  0.00000000000E+00 0. -1.
         -5    1    5    5    0  502 -0.43043842410E+02  0.74752807544E+02 -0.22351531093E+02  0.89232480338E+02  0.47000000000E+01 0.  1.
         11    1    6    6    0    0  0.37706532807E+01  0.66373022439E+01  0.99677622811E+01  0.12554994709E+02  0.00000000000E+00 0. -1.
        -12    1    6    6    0    0 -0.23457062999E+03  0.95581339317E+01 -0.57927535236E+01  0.23483673983E+03  0.00000000000E+00 0.  1.
</event>
<event>
12    1  0.1039610E+000  0.2633387E+03  0.7818608E-02  0.1105515E+00
         21   -1    0    0  503  502  0.00000000000E+00  0.00000000000E+00  0.92663467747E+02  0.92663467747E+02  0.00000000000E+00 0.  1.
         21   -1    0    0  501  503 -0.00000000000E+00 -0.00000000000E+00 -0.93944610763E+03  0.93944610763E+03  0.00000000000E+00 0. -1.
          6    2    1    2  501    0  0.17584246627E+03  0.94621920163E+02 -0.65873109819E+03  0.70851933586E+03  0.16792590285E+03 0.  0.
         24    2    3    3    0    0  0.83646424384E+02  0.11544439165E+03 -0.36519814878E+03  0.40010829869E+03  0.79955180786E+02 0.  0.
         -6    2    1    2    0  502 -0.17584246627E+03 -0.94621920163E+02 -0.18805154169E+03  0.32359023951E+03  0.17167812923E+03 0.  0.
        -24    2    5    5    0    0 -0.29532744869E+02 -0.99584911782E+00 -0.71922886186E+02  0.11459184147E+03  0.84173712275E+02 0.  0.
          5    1    3    3  501    0  0.92196041887E+02 -0.20822471491E+02 -0.29353294941E+03  0.30841103717E+03  0.47000000000E+01 0. -1.
        -11    1    4    4    0    0  0.22036936634E+02 -0.94879876975E+01 -0.47586739355E+02  0.53293022519E+02  0.00000000000E+00 0.  1.
         12    1    4    4    0    0  0.61609487750E+02  0.12493237935E+03 -0.31761140943E+03  0.34681527618E+03  0.00000000000E+00 0. -1.
         -5    1    5    5    0  502 -0.14630972140E+03 -0.93626071045E+02 -0.11612865550E+03  0.20899839805E+03  0.47000000000E+01 0.  1.
         11    1    6    6    0    0 -0.19306354337E+02  0.30425978500E+02 -0.73129822487E+02  0.81525740858E+02  0.00000000000E+00 0. -1.
        -12    1    6    6    0    0 -0.10226390532E+02 -0.31421827618E+02  0.12069363010E+01  0.33066100607E+02  0.00000000000E+00 0.  1.
</event>
<event>
12    1  0.1039610E+000  0.1721043E+03  0.7818608E-02  0.1176994E+00
         21   -1    0    0  501  502  0.00000000000E+00  0.00000000000E+00  0.14267755702E+04  0.14267755702E+04  0.00000000000E+00 0.  1.
         21   -1    0    0  502  503 -0.00000000000E+00 -0.00000000000E+00 -0.20928100816E+02  0.20928100816E+02  0.00000000000E+00 0.  1.
         -6    2    1    2    0  503 -0.13691705287E+02 -0.36618311665E+00  0.55346664500E+03  0.57812161071E+03  0.16646823351E+03 0.  0.
        -24    2    3    3    0    0  0.29352322877E+02  0.27783596068E+02  0.49462967743E+03  0.49983318768E+03  0.59508072082E+02 0.  0.
          6    2    1    2  501    0  0.13691705287E+02  0.36618311665E+00  0.85238082443E+03  0.86958206035E+03  0.17155842426E+03 0.  0.
         24    2    5    5    0    0  0.58885883433E+02 -0.42502601602E+02  0.58515260027E+03  0.59514944524E+03  0.80779193883E+02 0.  0.
          5    1    5    5  501    0 -0.45194178146E+02  0.42868784719E+02  0.26722822417E+03  0.27443261510E+03  0.47000000000E+01 0. -1.
        -13    1    6    6    0    0  0.47614645867E+02 -0.22166754339E+01  0.13713241060E+03  0.14518046076E+03  0.00000000000E+00 0.  1.
         14    1    6    6    0    0  0.11271237566E+02 -0.40285926168E+02  0.44802018967E+03  0.44996898448E+03  0.00000000000E+00 0. -1.
         -5    1    3    3    0  503 -0.43044028164E+02 -0.28149779184E+02  0.58836967562E+02  0.78288423030E+02  0.47000000000E+01 0.  1.
         13    1    4    4    0    0 -0.77430930655E+01 -0.10896108536E+02  0.42868074041E+02  0.44903813239E+02  0.00000000000E+00 0. -1.
        -14    1    4    4    0    0  0.37095415942E+02  0.38679704603E+02  0.45176160339E+03  0.45492937444E+03  0.00000000000E+00 0.  1.
</event>
<event>
12    1  0.1039610E+000  0.2477124E+03  0.7818608E-02  0.1114832E+00
         21   -1    0    0  501  502  0.00000000000E+00  0.00000000000E+00  0.18369451427E+03  0.18369451427E+03  0.00000000000E+00 0.  1.
         21   -1    0    0  502  503 -0.00000000000E+00 -0.00000000000E+00 -0.68714836484E+03  0.68714836484E+03  0.00000000000E+00 0.  1.
         -6    2    1    2    0  503  0.17800357305E+03 -0.44928031467E+01  0.60564723031E+02  0.25500890730E+03  0.17220917463E+03 0.  0.
        -24    2    3    3    0    0  0.11165676755E+03  0.33165110456E+02 -0.22491424486E+02  0.14213539093E+03  0.78290784179E+02 0.  0.
          6    2    1    2  501    0 -0.17800357305E+03  0.44928031467E+01 -0.56401857360E+03  0.61583397181E+03  0.17154903720E+03 0.  0.
         24    2    5    5    0    0 -0.16461723681E+03  0.24062200198E+02 -0.30925467628E+03  0.35992600265E+03  0.78933189779E+02 0.  0.
          5    1    5    5  501    0 -0.13386336238E+02 -0.19569397052E+02 -0.25476389732E+03  0.25590796916E+03  0.47000000000E+01 0. -1.
        -13    1    6    6    0    0 -0.89214532674E+02  0.33511406062E+00 -0.23542526437E+03  0.25176258707E+03  0.00000000000E+00 0.  1.
         14    1    6    6    0    0 -0.75402704140E+02  0.23727086138E+02 -0.73829411905E+02  0.10816341558E+03  0.00000000000E+00 0. -1.
         -5    1    3    3    0  503  0.66346805501E+02 -0.37657913603E+02  0.83056147517E+02  0.11287351637E+03  0.47000000000E+01 0.  1.
         13    1    4    4    0    0  0.59894404219E+02 -0.92682989653E+00 -0.46330899407E+02  0.75728138168E+02  0.00000000000E+00 0. -1.
        -14    1    4    4    0    0  0.51762363332E+02  0.34091940353E+02  0.23839474921E+02  0.66407252761E+02  0.00000000000E+00 0.  1.
</event>
<event>
12    1  0.1039610E+000  0.3085074E+03  0.7818608E-02  0.1081101E+00
         21   -1    0    0  501  502  0.00000000000E+00  0.00000000000E+00  0.17546525436E+03  0.17546525436E+03  0.00000000000E+00 0. -1.
         21   -1    0    0  502  503 -0.00000000000E+00 -0.00000000000E+00 -0.54198913769E+03  0.54198913769E+03  0.00000000000E+00 0. -1.
         -6    2    1    2    0  503 -0.37694650949E+02  0.25359644650E+03 -0.18861984827E+03  0.36159962564E+03  0.17159486505E+03 0.  0.
        -24    2    3    3    0    0 -0.54877214154E+02  0.18914559168E+03 -0.20220332877E+03  0.29336653903E+03  0.79938580008E+02 0.  0.
          6    2    1    2  501    0  0.37694650949E+02 -0.25359644650E+03 -0.17790403506E+03  0.35585476641E+03  0.17102843244E+03 0.  0.
         24    2    5    5    0    0  0.30952782162E+02 -0.21955672562E+03 -0.20374106842E+03  0.31233698056E+03  0.82950201795E+02 0.  0.
          5    1    5    5  501    0  0.67418687873E+01 -0.34039720883E+02  0.25837033362E+02  0.43517785852E+02  0.47000000000E+01 0. -1.
        -11    1    6    6    0    0  0.18330176906E+01 -0.73870269058E+02 -0.12235682357E+03  0.14293833943E+03  0.00000000000E+00 0.  1.
         12    1    6    6    0    0  0.29119764471E+02 -0.14568645656E+03 -0.81384244849E+02  0.16939864113E+03  0.00000000000E+00 0. -1.
         -5    1    3    3    0  503  0.17182563205E+02  0.64450854816E+02  0.13583480498E+02  0.68233086602E+02  0.47000000000E+01 0.  1.
         11    1    4    4    0    0 -0.40626847596E+02  0.25660203224E+02 -0.53474812062E+02  0.71892574722E+02  0.00000000000E+00 0. -1.
        -12    1    4    4    0    0 -0.14250366558E+02  0.16348538846E+03 -0.14872851671E+03  0.22147396431E+03  0.00000000000E+00 0.  1.
</event>
<event>
12    1  0.1039610E+000  0.2914857E+03  0.7818608E-02  0.1089709E+00
         21   -1    0    0  503  502  0.00000000000E+00  0.00000000000E+00  0.17087121522E+04  0.17087121522E+04  0.00000000000E+00 0. -1.
         21   -1    0    0  501  503 -0.00000000000E+00 -0.00000000000E+00 -0.54623817311E+02  0.54623817311E+02  0.00000000000E+00 0. -1.
          6    2    1    2  501    0  0.19434762995E+03 -0.13383183571E+03  0.10944440877E+04  0.11323323357E+04  0.16937147288E+03 0.  0.
         24    2    3    3    0    0  0.11415982925E+03 -0.14088358396E+03  0.90471294299E+03  0.92617752054E+03  0.80116412188E+02 0.  0.
         -6    2    1    2    0  502 -0.19434762995E+03  0.13383183571E+03  0.55964424718E+03  0.63100363382E+03  0.17111966856E+03 0.  0.
        -24    2    5    5    0    0 -0.90724229811E+02  0.34500542359E+02  0.13551294215E+03  0.18321577243E+03  0.76046620435E+02 0.  0.
          5    1    3    3  501    0  0.80187800701E+02  0.70517482473E+01  0.18973114471E+03  0.20615481514E+03  0.47000000000E+01 0. -1.
        -11    1    4    4    0    0  0.58817554425E+02 -0.10978955303E+03  0.72409861401E+03  0.73473264081E+03  0.00000000000E+00 0.  1.
         12    1    4    4    0    0  0.55342274828E+02 -0.31094030929E+02  0.18061432898E+03  0.19144487973E+03  0.00000000000E+00 0. -1.
         -5    1    5    5    0  502 -0.10362340014E+03  0.99331293352E+02  0.42413130503E+03  0.44778786138E+03  0.47000000000E+01 0.  1.
         13    1    6    6    0    0 -0.79679141553E+02  0.50598991688E+02  0.13362838256E+03  0.16360185874E+03  0.00000000000E+00 0. -1.
        -14    1    6    6    0    0 -0.11045088259E+02 -0.16098449329E+02  0.18845595935E+01  0.19613913692E+02  0.00000000000E+00 0.  1.
</event>
<event>
12    1  0.1039610E+000  0.2435062E+03  0.7818608E-02  0.1117705E+00
         21   -1    0    0  503  502  0.00000000000E+00  0.00000000000E+00  0.74645992912E+03  0.74645992912E+03  0.00000000000E+00 0.  1.
         21   -1    0    0  501  503 -0.00000000000E+00 -0.00000000000E+00 -0.91041723878E+02  0.91041723878E+02  0.00000000000E+00 0.  1.
          6    2    1    2  501    0 -0.57038424763E+02  0.16075279481E+03  0.48089803542E+03  0.53903447908E+03  0.17378264074E+03 0.  0.
         24    2    3    3    0    0  0.18416673311E+02  0.28670307709E+02  0.20121867403E+03  0.22062924920E+03  0.83828100448E+02 0.  0.
         -6    2    1    2    0  502  0.57038424763E+02 -0.16075279481E+03  0.17452016982E+03  0.29846717392E+03  0.17184446833E+03 0.  0.
        -24    2    5    5    0    0 -0.21294891624E+02 -0.11073278408E+03  0.64207673730E+02  0.15414445664E+03  0.83202561664E+02 0.  0.
          5    1    3    3  501    0 -0.75455098074E+02  0.13208248710E+03  0.27967936139E+03  0.31840522987E+03  0.47000000000E+01 0. -1.
        -11    1    4    4    0    0 -0.19828353250E+02 -0.19772186454E+02  0.50133839322E+02  0.57423904386E+02  0.00000000000E+00 0.  1.
         12    1    4    4    0    0  0.38245026561E+02  0.48442494163E+02  0.15108483471E+03  0.16320534482E+03  0.00000000000E+00 0. -1.
         -5    1    5    5    0  502  0.78333316387E+02 -0.50020010725E+02  0.11031249609E+03  0.14432271728E+03  0.47000000000E+01 0.  1.
         13    1    6    6    0    0 -0.15994875724E+02 -0.88772591348E+02  0.84632455974E+02  0.12368937557E+03  0.00000000000E+00 0. -1.
        -14    1    6    6    0    0 -0.53000159005E+01 -0.21960192735E+02 -0.20424782244E+02  0.30455081074E+02  0.00000000000E+00 0.  1.
</event>
<event>
12    1  0.1039610E+000  0.2986362E+03  0.7818608E-02  0.1085982E+00
         21   -1    0    0  503  502  0.00000000000E+00  0.00000000000E+00  0.12581728784E+03  0.12581728784E+03  0.00000000000E+00 0. -1.
         21   -1    0    0  501  503 -0.00000000000E+00 -0.00000000000E+00 -0.82009784238E+03  0.82009784238E+03  0.00000000000E+00 0. -1.
          6    2    1    2  501    0  0.65424390955E+01 -0.24358817863E+03 -0.17185484377E+03  0.34415752223E+03  0.17184966832E+03 0.  0.
         24    2    3    3    0    0  0.19253111336E+02 -0.41436549254E+02 -0.76481292575E+02  0.12022662504E+03  0.80730312427E+02 0.  0.
         -6    2    1    2    0  502 -0.65424390955E+01  0.24358817863E+03 -0.52242571077E+03  0.60175760799E+03  0.17264295879E+03 0.  0.
        -24    2    5    5    0    0 -0.23368601831E+02  0.37200924473E+02 -0.14098727897E+03  0.16771131358E+03  0.79496361802E+02 0.  0.
          5    1    3    3  501    0 -0.12710672240E+02 -0.20215162937E+03 -0.95373551199E+02  0.22393089719E+03  0.47000000000E+01 0. -1.
        -13    1    4    4    0    0  0.16090847645E+02 -0.59828002520E+02 -0.27447632562E+02  0.67761919960E+02  0.00000000000E+00 0.  1.
         14    1    4    4    0    0  0.31622636911E+01  0.18391453266E+02 -0.49033660013E+02  0.52464705081E+02  0.00000000000E+00 0. -1.
         -5    1    5    5    0  502  0.16826162736E+02  0.20638725416E+03 -0.38143843180E+03  0.43404629441E+03  0.47000000000E+01 0.  1.
         11    1    6    6    0    0  0.25567813163E+02  0.15662669800E+02 -0.85727273584E+02  0.90819588918E+02  0.00000000000E+00 0. -1.
        -12    1    6    6    0    0 -0.48936414994E+02  0.21538254673E+02 -0.55260005382E+02  0.76891724663E+02  0.00000000000E+00 0.  1.
</event>
<event>
12    1  0.1039610E+000  0.2258522E+03  0.7818608E-02  0.1129778E+00
         21   -1    0    0  501  502  0.00000000000E+00  0.00000000000E+00  0.20718645153E+03  0.20718645153E+03  0.00000000000E+00 0. -1.
         21   -1    0    0  502  503 -0.00000000000E+00 -0.00000000000E+00 -0.28129376834E+03  0.28129376834E+03  0.00000000000E+00 0. -1.
         -6    2    1    2    0  503 -0.11625955637E+03 -0.89469687082E+02  0.50642020998E+02  0.23046548687E+03  0.17037786533E+03 0.  0.
        -24    2    3    3    0    0  0.63563609134E+01 -0.40482968792E+02  0.36656264433E+02  0.97604457491E+02  0.80645361390E+02 0.  0.
          6    2    1    2  501    0  0.11625955637E+03  0.89469687082E+02 -0.12474933781E+03  0.25801473300E+03  0.17172098243E+03 0.  0.
         24    2    5    5    0    0  0.70447346173E+02  0.16795878778E+01 -0.10063020439E+02  0.10642020304E+03  0.79109706335E+02 0.  0.
          5    1    5    5  501    0  0.45812210202E+02  0.87790099204E+02 -0.11468631737E+03  0.15159452996E+03  0.47000000000E+01 0. -1.
        -11    1    6    6    0    0  0.27256612214E+02  0.35123776331E+02 -0.23327356926E+02  0.50207252009E+02  0.00000000000E+00 0.  1.
         12    1    6    6    0    0  0.43190733959E+02 -0.33444188453E+02  0.13264336488E+02  0.56212951031E+02  0.00000000000E+00 0. -1.
         -5    1    3    3    0  503 -0.12261591729E+03 -0.48986718290E+02  0.13985756566E+02  0.13286102938E+03  0.47000000000E+01 0.  1.
         13    1    4    4    0    0  0.55077322712E+01  0.24499979665E+02  0.63780668278E+01  0.25908760194E+02  0.00000000000E+00 0. -1.
        -14    1    4    4    0    0  0.84862864227E+00 -0.64982948456E+02  0.30278197605E+02  0.71695697297E+02  0.00000000000E+00 0.  1.
</event>
<event>
12    1  0.1039610E+000  0.2362837E+03  0.7818608E-02  0.1122567E+00
         21   -1    0    0  503  502  0.00000000000E+00  0.00000000000E+00  0.11555194032E+04  0.11555194032E+04  0.00000000000E+00 0.  1.
         21   -1    0    0  501  503 -0.00000000000E+00 -0.00000000000E+00 -0.85963591193E+02  0.85963591193E+02  0.00000000000E+00 0.  1.
          6    2    1    2  501    0 -0.15057687689E+03  0.54619751000E+02  0.12322215103E+03  0.26648388916E+03  0.17370449513E+03 0.  0.
         24    2    3    3    0    0 -0.11786770751E+03  0.77809244843E+02  0.29780416945E+02  0.16469444936E+03  0.79311495770E+02 0.  0.
         -6    2    1    2    0  502  0.15057687689E+03 -0.54619751000E+02  0.94633366094E+03  0.97499910519E+03  0.17152009866E+03 0.  0.
        -24    2    5    5    0    0  0.97194265461E+02  0.12814632365E+02  0.74785626267E+03  0.75863721649E+03  0.81427861169E+02 0.  0.
          5    1    3    3  501    0 -0.32709169377E+02 -0.23189493843E+02  0.93441734084E+02  0.10178943980E+03  0.47000000000E+01 0. -1.
        -13    1    4    4    0    0  0.54152216969E+01 -0.66204096670E+01  0.11243041458E+02  0.14126585979E+02  0.00000000000E+00 0.  1.
         14    1    4    4    0    0 -0.12328292921E+03  0.84429654510E+02  0.18537375487E+02  0.15056786338E+03  0.00000000000E+00 0. -1.
         -5    1    5    5    0  502  0.53382611425E+02 -0.67434383365E+02  0.19847739827E+03  0.21636188871E+03  0.47000000000E+01 0.  1.
         11    1    6    6    0    0  0.27272543413E+02  0.15856410724E+02  0.50263282022E+03  0.50362185153E+03  0.00000000000E+00 0. -1.
        -12    1    6    6    0    0  0.69921722048E+02 -0.30417783590E+01  0.24522344246E+03  0.25501536495E+03  0.00000000000E+00 0.  1.
</event>
<event>
12    1  0.1039610E+000  0.2813246E+03  0.7818608E-02  0.1095019E+00
         21   -1    0    0  501  502  0.00000000000E+00  0.00000000000E+00  0.86981675110E+03  0.86981675110E+03  0.00000000000E+00 0.  1.
         21   -1    0    0  502  503 -0.00000000000E+00 -0.00000000000E+00 -0.10612449718E+03  0.10612449718E+03  0.00000000000E+00 0.  1.
         -6    2    1    2    0  503  0.30844166691E+02  0.22074672653E+03  0.56708889137E+03  0.63303503826E+03  0.17164809657E+03 0.  0.
        -24    2    3    3    0    0  0.31314020182E+02  0.16034021112E+03  0.53349969646E+03  0.56375667309E+03  0.80685247529E+02 0.  0.
          6    2    1    2  501    0 -0.30844166691E+02 -0.22074672653E+03  0.19660336255E+03  0.34290621002E+03  0.17103013422E+03 0.  0.
         24    2    5    5    0    0 -0.22036418158E+02 -0.24284213759E+03  0.18218670117E+03  0.31469781145E+03  0.79905011952E+02 0.  0.
          5    1    5    5  501    0 -0.88077485331E+01  0.22095411064E+02  0.14416661384E+02  0.28208398568E+02  0.47000000000E+01 0. -1.
        -11    1    6    6    0    0 -0.30872796151E+02 -0.29755029547E+02  0.37677807686E+02  0.57079843356E+02  0.00000000000E+00 0.  1.
         12    1    6    6    0    0  0.88363779926E+01 -0.21308710804E+03  0.14450889348E+03  0.25761796809E+03  0.00000000000E+00 0. -1.
         -5    1    3    3    0  503 -0.46985349082E+00  0.60406515408E+02  0.33589194913E+02  0.69278365173E+02  0.47000000000E+01 0.  1.
         11    1    4    4    0    0  0.58765217330E+02  0.11273489160E+03  0.36284413919E+03  0.38447155408E+03  0.00000000000E+00 0. -1.
        -12    1    4    4    0    0 -0.27451197148E+02  0.47605319515E+02  0.17065555727E+03  0.17928511901E+03  0.00000000000E+00 0.  1.
</event>
<event>
12    1  0.1039610E+000  0.1844297E+03  0.7818608E-02  0.1164185E+00
         21   -1    0    0  503  502  0.00000000000E+00  0.00000000000E+00  0.26966753686E+03  0.26966753686E+03  0.00000000000E+00 0.  1.
         21   -1    0    0  501  503 -0.00000000000E+00 -0.00000000000E+00 -0.13429513153E+03  0.13429513153E+03  0.00000000000E+00 0.  1.
          6    2    1    2  501    0  0.49500902871E+02  0.16505705364E+02  0.12421115016E+02  0.18230678502E+03  0.17423748756E+03 0.  0.
         24    2    3    3    0    0  0.44902376070E+02 -0.52033600087E+02 -0.18809624429E+02  0.10670101853E+03  0.79420315222E+02 0.  0.
         -6    2    1    2    0  502 -0.49500902871E+02 -0.16505705364E+02  0.12295129031E+03  0.22165588337E+03  0.17689412977E+03 0.  0.
        -24    2    5    5    0    0 -0.21348739844E+02 -0.58047040642E+02  0.12993202807E+02  0.10069680836E+03  0.78395129144E+02 0.  0.
          5    1    3    3  501    0  0.45985268005E+01  0.68539305451E+02  0.31230739445E+02  0.75605766491E+02  0.47000000000E+01 0. -1.
        -11    1    4    4    0    0  0.39700240904E+01 -0.21718167978E+02 -0.44483012791E+02  0.49660631677E+02  0.00000000000E+00 0.  1.
         12    1    4    4    0    0  0.40932351980E+02 -0.30315432109E+02  0.25673388363E+02  0.57040386855E+02  0.00000000000E+00 0. -1.
         -5    1    5    5    0  502 -0.28152163027E+02  0.41541335278E+02  0.10995808750E+03  0.12095907501E+03  0.47000000000E+01 0.  1.
         11    1    6    6    0    0 -0.45887255787E+02 -0.26852459524E+02  0.25660299462E+02  0.59035123398E+02  0.00000000000E+00 0. -1.
        -12    1    6    6    0    0  0.24538515943E+02 -0.31194581118E+02 -0.12667096655E+02  0.41661684957E+02  0.00000000000E+00 0.  1.
</event>
<event>
12    1  0.1039610E+000  0.2260127E+03  0.7818608E-02  0.1129565E+00
         21   -1    0    0  501  502  0.00000000000E+00  0.00000000000E+00  0.35680216134E+03  0.35680216134E+03  0.00000000000E+00 0.  1.
         21   -1    0    0  502  503 -0.00000000000E+00 -0.00000000000E+00 -0.18737267957E+03  0.18737267957E+03  0.00000000000E+00 0.  1.
         -6    2    1    2    0  503  0.83076891713E+02 -0.12280331769E+03  0.21740236365E+03  0.31360092356E+03  0.17058524779E+03 0.  0.
        -24    2    3    3    0    0  0.67654941923E+02 -0.12340550003E+03  0.23806614721E+03  0.28738487676E+03  0.78156690965E+02 0.  0.
          6    2    1    2  501    0 -0.83076891713E+02  0.12280331769E+03 -0.47972881885E+02  0.23057391735E+03  0.16994266443E+03 0.  0.
         24    2    5    5    0    0 -0.39362246618E+02  0.12746179412E+02 -0.71133864373E+02  0.10981769601E+03  0.72718966910E+02 0.  0.
          5    1    5    5  501    0 -0.43714645095E+02  0.11005713828E+03  0.23160982488E+02  0.12075622134E+03  0.47000000000E+01 0. -1.
        -11    1    6    6    0    0  0.11528241534E+02 -0.15454675130E+02 -0.18869314660E+01  0.19372863666E+02  0.00000000000E+00 0.  1.
         12    1    6    6    0    0 -0.50890488152E+02  0.28200854543E+02 -0.69246932907E+02  0.90444832347E+02  0.00000000000E+00 0. -1.
         -5    1    3    3    0  503  0.15421949790E+02  0.60218233710E+00 -0.20663783555E+02  0.26216046798E+02  0.47000000000E+01 0.  1.
         13    1    4    4    0    0  0.52488898483E+01 -0.22061131448E+02  0.16943509142E+01  0.22740166896E+02  0.00000000000E+00 0. -1.
        -14    1    4    4    0    0  0.62406052075E+02 -0.10134436858E+03  0.23637179629E+03  0.26464470987E+03  0.00000000000E+00 0.  1.
</event>
<event>
12    1  0.1039610E+000  0.2859144E+03  0.7818608E-02  0.1092644E+00
         21   -1    0    0  503  502  0.00000000000E+00  0.00000000000E+00  0.79881237734E+02  0.79881237734E+02  0.00000000000E+00 0.  1.
         21   -1    0    0  501  503 -0.00000000000E+00 -0.00000000000E+00 -0.10355757847E+04  0.10355757847E+04  0.00000000000E+00 0.  1.
          6    2    1    2  501    0 -0.83820429015E+02 -0.21302546668E+03 -0.40933716329E+03  0.49930346991E+03  0.17129310564E+03 0.  0.
         24    2    3    3    0    0 -0.37671011809E+01 -0.28390438858E+02 -0.12556138285E+03  0.15138190926E+03  0.79565152675E+02 0.  0.
         -6    2    1    2    0  502  0.83820429015E+02  0.21302546668E+03 -0.54635738366E+03  0.61615355251E+03  0.16950839453E+03 0.  0.
        -24    2    5    5    0    0  0.16849441587E+01  0.53006660038E+02 -0.27039429262E+03  0.28671467507E+03  0.79244472196E+02 0.  0.
          5    1    3    3  501    0 -0.80053327834E+02 -0.18463502782E+03 -0.28377578045E+03  0.34792156065E+03  0.47000000000E+01 0. -1.
        -13    1    4    4    0    0  0.36071780186E+02 -0.46354642037E+01 -0.40035123398E+02  0.54087632225E+02  0.00000000000E+00 0.  1.
         14    1    4    4    0    0 -0.39838881366E+02 -0.23754974654E+02 -0.85526259449E+02  0.97294277040E+02  0.00000000000E+00 0. -1.
         -5    1    5    5    0  502  0.82135484856E+02  0.16001880664E+03 -0.27596309104E+03  0.32943887743E+03  0.47000000000E+01 0.  1.
         11    1    6    6    0    0  0.32988965057E+02  0.54662273232E+02 -0.17339215101E+03  0.18477303364E+03  0.00000000000E+00 0. -1.
        -12    1    6    6    0    0 -0.31304020898E+02 -0.16556131943E+01 -0.97002141617E+02  0.10194164143E+03  0.00000000000E+00 0.  1.
</event>
<event>
12    1  0.1039610E+000  0.1854062E+03  0.7818608E-02  0.1162939E+00
         21   -1    0    0  503  502  0.00000000000E+00  0.00000000000E+00  0.26118072364E+02  0.26118072364E+02  0.00000000000E+00 0. -1.
         21   -1    0    0  501  503 -0.00000000000E+00 -0.00000000000E+00 -0.13117799920E+04  0.13117799920E+04  0.00000000000E+00 0. -1.
          6    2    1    2  501    0  0.49881888352E+02  0.41180010521E+02 -0.60905209530E+03  0.63664740355E+03  0.17375691528E+03 0.  0.
         24    2    3    3    0    0  0.92163677993E+02  0.37888236051E+02 -0.31535047185E+03  0.33986243235E+03  0.78300005455E+02 0.  0.
         -6    2    1    2    0  502 -0.49881888352E+02 -0.41180010521E+02 -0.67660982436E+03  0.70125066083E+03  0.17253300801E+03 0.  0.
        -24    2    5    5    0    0  0.22806775128E+02 -0.36948747499E+02 -0.52266185630E+03  0.53088748332E+03  0.82345279019E+02 0.  0.
          5    1    3    3  501    0 -0.42281789642E+02  0.32917744699E+01 -0.29370162345E+03  0.29678497120E+03  0.47000000000E+01 0. -1.
        -11    1    4    4    0    0  0.18972120248E+02  0.25691404516E+02 -0.26097957988E+02  0.41244308987E+02  0.00000000000E+00 0.  1.
         12    1    4    4    0    0  0.73191557746E+02  0.12196831535E+02 -0.28925251386E+03  0.29861812336E+03  0.00000000000E+00 0. -1.
         -5    1    5    5    0  502 -0.72688663480E+02 -0.42312630218E+01 -0.15394796806E+03  0.17036317752E+03  0.47000000000E+01 0.  1.
         13    1    6    6    0    0  0.40585786379E+02 -0.12282284037E+02 -0.12364872695E+03  0.13071751311E+03  0.00000000000E+00 0. -1.
        -14    1    6    6    0    0 -0.17779011251E+02 -0.24666463463E+02 -0.39901312936E+03  0.40016997021E+03  0.00000000000E+00 0.  1.
</event>
<event>
12    1  0.1039610E+000  0.1807634E+03  0.7818608E-02  0.1167332E+00
         21   -1    0    0  503  502  0.00000000000E+00  0.00000000000E+00  0.38469478665E+02  0.38469478665E+02  0.00000000000E+00 0.  1.
         21   -1    0    0  501  503 -0.00000000000E+00 -0.00000000000E+00 -0.93977809348E+03  0.93977809348E+03  0.00000000000E+00 0.  1.
          6    2    1    2  501    0  0.14614938707E+02 -0.48439758342E+02 -0.29592317626E+03  0.34676493159E+03  0.17353784865E+03 0.  0.
         24    2    3    3    0    0 -0.41693992852E+02 -0.63097816156E+02 -0.24611608305E+03  0.27002907970E+03  0.81380919763E+02 0.  0.
         -6    2    1    2    0  502 -0.14614938707E+02  0.48439758342E+02 -0.60538543855E+03  0.63148264055E+03  0.17239138460E+03 0.  0.
        -24    2    5    5    0    0 -0.45080193340E+02  0.73128203887E+02 -0.27817966980E+03  0.30190206438E+03  0.79880972409E+02 0.  0.
          5    1    3    3  501    0  0.56308931559E+02  0.14658057814E+02 -0.49807093209E+02  0.76735851895E+02  0.47000000000E+01 0. -1.
        -11    1    4    4    0    0 -0.28303853092E+01  0.17156291339E+02 -0.75956153037E+02  0.77921027956E+02  0.00000000000E+00 0.  1.
         12    1    4    4    0    0 -0.38863607543E+02 -0.80254107495E+02 -0.17015993002E+03  0.19210805174E+03  0.00000000000E+00 0. -1.
         -5    1    5    5    0  502  0.30465254633E+02 -0.24688445545E+02 -0.32720576876E+03  0.32958057617E+03  0.47000000000E+01 0.  1.
         13    1    6    6    0    0 -0.48728393692E+02  0.24249029375E+02 -0.21586034803E+03  0.22261662478E+03  0.00000000000E+00 0. -1.
        -14    1    6    6    0    0  0.36482003516E+01  0.48879174512E+02 -0.62319321767E+02  0.79285439598E+02  0.00000000000E+00 0.  1.
</event>
<event>
12    1  0.1039610E+000  0.3333252E+03  0.7818608E-02  0.1069771E+00
         21   -1    0    0  503  502  0.00000000000E+00  0.00000000000E+00  0.56569156912E+03  0.56569156912E+03  0.00000000000E+00 0. -1.
         21   -1    0    0  501  503 -0.00000000000E+00 -0.00000000000E+00 -0.19869154729E+03  0.19869154729E+03  0.00000000000E+00 0. -1.
          6    2    1    2  501    0 -0.14058732322E+03 -0.24866459264E+03  0.22911460601E+03  0.40447394990E+03  0.17177543008E+03 0.  0.
         24    2    3    3    0    0 -0.12345365261E+03 -0.15135094148E+03  0.79720760473E+02  0.22529772253E+03  0.79093313857E+02 0.  0.
         -6    2    1    2    0  502  0.14058732322E+03  0.24866459264E+03  0.13788541582E+03  0.35990916650E+03  0.17006864835E+03 0.  0.
        -24    2    5    5    0    0  0.37706622887E+02  0.61947217003E+02  0.92999621107E+02  0.14199945714E+03  0.79092788537E+02 0.  0.
          5    1    3    3  501    0 -0.17133670608E+02 -0.97313651159E+02  0.14939384553E+03  0.17917622737E+03  0.47000000000E+01 0. -1.
        -13    1    4    4    0    0 -0.60503643866E+02 -0.17858447339E+02  0.26060359654E+02  0.68255090709E+02  0.00000000000E+00 0.  1.
         14    1    4    4    0    0 -0.62950008746E+02 -0.13349249414E+03  0.53660400819E+02  0.15704263182E+03  0.00000000000E+00 0. -1.
         -5    1    5    5    0  502  0.10288070033E+03  0.18671737564E+03  0.44885794717E+02  0.21790970936E+03  0.47000000000E+01 0.  1.
         13    1    6    6    0    0 -0.14974844155E+02 -0.93819829094E+01  0.23119128029E+02  0.29099169088E+02  0.00000000000E+00 0. -1.
        -14    1    6    6    0    0  0.52681467043E+02  0.71329199912E+02  0.69880493078E+02  0.11290028805E+03  0.00000000000E+00 0.  1.
</event>
<event>
12    1  0.1039610E+000  0.3182824E+03  0.7818608E-02  0.1076737E+00
         21   -1    0    0  501  502  0.00000000000E+00  0.00000000000E+00  0.10546517575E+03  0.10546517575E+03  0.00000000000E+00 0. -1.
         21   -1    0    0  502  503 -0.00000000000E+00 -0.00000000000E+00 -0.95523224456E+03  0.95523224456E+03  0.00000000000E+00 0. -1.
         -6    2    1    2    0  503 -0.25258544967E+03  0.89118362486E+02 -0.40043748667E+03  0.51152116052E+03  0.17193668894E+03 0.  0.
        -24    2    3    3    0    0 -0.22468025256E+03  0.19405436461E+02 -0.33503387134E+03  0.41183006272E+03  0.80613390707E+02 0.  0.
          6    2    1    2  501    0  0.25258544967E+03 -0.89118362486E+02 -0.44932958214E+03  0.54917625979E+03  0.16720047551E+03 0.  0.
         24    2    5    5    0    0  0.10502769935E+03 -0.81726256487E+01 -0.28601074210E+03  0.31461148088E+03  0.77978393569E+02 0.  0.
          5    1    5    5  501    0  0.14755775032E+03 -0.80945736837E+02 -0.16331884004E+03  0.23456477891E+03  0.47000000000E+01 0. -1.
        -13    1    6    6    0    0  0.10253383168E+03  0.13839321884E+02 -0.19282907569E+03  0.21883273498E+03  0.00000000000E+00 0.  1.
         14    1    6    6    0    0  0.24938676699E+01 -0.22011947533E+02 -0.93181666413E+02  0.95778745898E+02  0.00000000000E+00 0. -1.
         -5    1    3    3    0  503 -0.27905197115E+02  0.69712926025E+02 -0.65403615335E+02  0.99691097797E+02  0.47000000000E+01 0.  1.
         11    1    4    4    0    0 -0.24343661856E+02 -0.17715260344E+02 -0.79511181200E+02  0.85020422590E+02  0.00000000000E+00 0. -1.
        -12    1    4    4    0    0 -0.20033659070E+03  0.37120696805E+02 -0.25552269014E+03  0.32680964013E+03  0.00000000000E+00 0.  1.
</event>
<event>
12    1  0.1039610E+000  0.1809667E+03  0.7818608E-02  0.1167602E+00
         21   -1    0    0  501  502  0.00000000000E+00  0.00000000000E+00  0.13219612938E+03  0.13219612938E+03  0.00000000000E+00 0. -1.
         21   -1    0    0  502  503 -0.00000000000E+00 -0.00000000000E+00 -0.31322541498E+03  0.31322541498E+03  0.00000000000E+00 0. -1.
         -6    2    1    2    0  503 -0.24578680892E+02 -0.48271049313E+02  0.15062006497E+02  0.17858686778E+03  0.16950575078E+03 0.  0.
        -24    2    3    3    0    0 -0.42314314803E+02 -0.18007610886E+02 -0.47900846794E+02  0.10635917703E+03  0.83084343464E+02 0.  0.
          6    2    1    2  501    0  0.24578680892E+02  0.48271049313E+02 -0.19609129210E+03  0.26683467658E+03  0.17266946467E+03 0.  0.
         24    2    5    5    0    0 -0.39835699648E+02  0.31609026455E+02 -0.50914260149E+02  0.10706829703E+03  0.79280166645E+02 0.  0.
          5    1    5    5  501    0  0.64414380540E+02  0.16662022859E+02 -0.14517703195E+03  0.15976637955E+03  0.47000000000E+01 0. -1.
        -13    1    6    6    0    0  0.25569962721E+01  0.48342746202E+02 -0.29721766058E+02  0.56806185560E+02  0.00000000000E+00 0.  1.
         14    1    6    6    0    0 -0.42392695920E+02 -0.16733719747E+02 -0.21192494090E+02  0.50262111473E+02  0.00000000000E+00 0. -1.
         -5    1    3    3    0  503  0.17735633912E+02 -0.30263438428E+02  0.62962853291E+02  0.72227690744E+02  0.47000000000E+01 0.  1.
         11    1    4    4    0    0 -0.39519148128E+02  0.14761707285E+02  0.66046250127E+01  0.42700025085E+02  0.00000000000E+00 0. -1.
        -12    1    4    4    0    0 -0.27951666755E+01 -0.32769318171E+02 -0.54505471806E+02  0.63659151950E+02  0.00000000000E+00 0.  1.
</event>
<event>
12    1  0.1039610E+000  0.2487141E+03  0.7818608E-02  0.1114261E+00
         21   -1    0    0  501  502  0.00000000000E+00  0.00000000000E+00  0.23666822587E+03  0.23666822587E+03  0.00000000000E+00 0. -1.
         21   -1    0    0  502  503 -0.00000000000E+00 -0.00000000000E+00 -0.26371017604E+03  0.26371017604E+03  0.00000000000E+00 0. -1.
         -6    2    1    2    0  503  0.14035518192E+03 -0.11001443186E+03 -0.41336014373E+02  0.25125384140E+03  0.17209611972E+03 0.  0.
        -24    2    3    3    0    0  0.11905287054E+03 -0.99565533726E+02  0.29034591774E+02  0.17684228213E+03  0.79644860106E+02 0.  0.
          6    2    1    2  501    0 -0.14035518192E+03  0.11001443186E+03  0.14294064196E+02  0.24912456051E+03  0.17336658868E+03 0.  0.
         24    2    5    5    0    0 -0.14029455183E+03  0.52701676181E+02 -0.33727908947E+02  0.17420489992E+03  0.82156846142E+02 0.  0.
          5    1    5    5  501    0 -0.60630091420E-01  0.57312755676E+02  0.48021973143E+02  0.74919660596E+02  0.47000000000E+01 0. -1.
        -11    1    6    6    0    0 -0.12515818573E+03  0.67277031087E+02 -0.99052665492E+01  0.14243905600E+03  0.00000000000E+00 0.  1.
         12    1    6    6    0    0 -0.15136366096E+02 -0.14575354905E+02 -0.23822642397E+02  0.31765843921E+02  0.00000000000E+00 0. -1.
         -5    1    3    3    0  503  0.21302311382E+02 -0.10448898132E+02 -0.70370606148E+02  0.74411559263E+02  0.47000000000E+01 0.  1.
         11    1    4    4    0    0 -0.10059093785E+02  0.27637315053E+00  0.67462209940E+01  0.12115000932E+02  0.00000000000E+00 0. -1.
        -12    1    4    4    0    0  0.12911196432E+03 -0.99841906877E+02  0.22288370780E+02  0.16472728120E+03  0.00000000000E+00 0.  1.
</event>
<event>
12    1  0.1039610E+000  0.2488257E+03  0.7818608E-02  0.1114067E+00
         21   -1    0    0  501  502  0.00000000000E+00  0.00000000000E+00  0.57669518636E+03  0.57669518636E+03  0.00000000000E+00 0. -1.
         21   -1    0    0  502  503 -0.00000000000E+00 -0.00000000000E+00 -0.10762810721E+03  0.10762810721E+03  0.00000000000E+00 0. -1.
         -6    2    1    2    0  503 -0.16551166492E+03 -0.70535910550E+02  0.25304448246E+03  0.35480847567E+03  0.17172104822E+03 0.  0.
        -24    2    3    3    0    0 -0.10596437711E+03 -0.94462035329E+02  0.10520360487E+03  0.19357152575E+03  0.79060810576E+02 0.  0.
          6    2    1    2  501    0  0.16551166492E+03  0.70535910550E+02  0.21602259669E+03  0.32951481790E+03  0.17188608738E+03 0.  0.
         24    2    5    5    0    0  0.25204179401E+02  0.77086195414E+02  0.56255218879E+02  0.11673135581E+03  0.62321967205E+02 0.  0.
          5    1    5    5  501    0  0.14030748552E+03 -0.65502848642E+01  0.15976737781E+03  0.21278346209E+03  0.47000000000E+01 0. -1.
        -13    1    6    6    0    0  0.25061432997E+02  0.71898646959E+02  0.18150288599E+02  0.78274669176E+02  0.00000000000E+00 0.  1.
         14    1    6    6    0    0  0.14274640403E+00  0.51875484553E+01  0.38104930280E+02  0.38456686638E+02  0.00000000000E+00 0. -1.
         -5    1    3    3    0  503 -0.59547287809E+02  0.23926124779E+02  0.14784087759E+03  0.16123694992E+03  0.47000000000E+01 0.  1.
         13    1    4    4    0    0 -0.13950841317E+02 -0.63231085507E+02  0.34232803376E+02  0.73243982516E+02  0.00000000000E+00 0. -1.
        -14    1    4    4    0    0 -0.92013535797E+02 -0.31230949822E+02  0.70970801492E+02  0.12032754324E+03  0.00000000000E+00 0.  1.
</event>
<event>
12    1  0.1039610E+000  0.1823089E+03  0.7818608E-02  0.1166420E+00
         21   -1    0    0  503  502  0.00000000000E+00  0.00000000000E+00  0.10123277022E+03  0.10123277022E+03  0.00000000000E+00 0. -1.
         21   -1    0    0  501  503 -0.00000000000E+00 -0.00000000000E+00 -0.43696613036E+03  0.43696613036E+03  0.00000000000E+00 0. -1.
          6    2    1    2  501    0  0.51239216742E+02  0.16697212507E+01 -0.28717093237E+02  0.18113376421E+03  0.17133745589E+03 0.  0.
         24    2    3    3    0    0  0.49294083538E+02  0.20734020232E+02 -0.80921698641E+02  0.12532478765E+03  0.79361040962E+02 0.  0.
         -6    2    1    2    0  502 -0.51239216742E+02 -0.16697212507E+01 -0.30701626690E+03  0.35706513637E+03  0.17495221680E+03 0.  0.
        -24    2    5    5    0    0  0.18595697582E+02 -0.14043612624E+02 -0.65354170898E+02  0.10516696827E+03  0.79031009970E+02 0.  0.
          5    1    3    3  501    0  0.19451332038E+01 -0.19064298981E+02  0.52204605403E+02  0.55808976555E+02  0.47000000000E+01 0. -1.
        -13    1    4    4    0    0  0.60911993307E+02 -0.36906575405E+01 -0.76597958908E+02  0.97934361644E+02  0.00000000000E+00 0.  1.
         14    1    4    4    0    0 -0.11617909769E+02  0.24424677772E+02 -0.43237397321E+01  0.27390426009E+02  0.00000000000E+00 0. -1.
         -5    1    5    5    0  502 -0.69834914324E+02  0.12373891373E+02 -0.24166209601E+03  0.25189816810E+03  0.47000000000E+01 0.  1.
         13    1    6    6    0    0  0.38431155909E+02 -0.34663975322E+02 -0.52758068393E+02  0.73905065524E+02  0.00000000000E+00 0. -1.
        -14    1    6    6    0    0 -0.19835458327E+02  0.20620362699E+02 -0.12596102506E+02  0.31261902745E+02  0.00000000000E+00 0.  1.
</event>
<event>
12    1  0.1039610E+000  0.3173372E+03  0.7818608E-02  0.1077074E+00
         21   -1    0    0  501  502  0.00000000000E+00  0.00000000000E+00  0.26722415456E+03  0.26722415456E+03  0.00000000000E+00 0.  1.
         21   -1    0    0  502  503 -0.00000000000E+00 -0.00000000000E+00 -0.43243346321E+03  0.43243346321E+03  0.00000000000E+00 0.  1.
         -6    2    1    2    0  503 -0.86239910258E+02  0.25160722724E+03 -0.21002997619E+03  0.37917084692E+03  0.17004241040E+03 0.  0.
        -24    2    3    3    0    0 -0.25231523814E+02  0.87404675094E+02 -0.15257836343E+03  0.19476022045E+03  0.79844720919E+02 0.  0.
          6    2    1    2  501    0  0.86239910258E+02 -0.25160722724E+03  0.44820667545E+02  0.32048677085E+03  0.17308772091E+03 0.  0.
         24    2    5    5    0    0  0.34696698137E+02 -0.73252171381E+02  0.69547856084E+02  0.13313482258E+03  0.79487327447E+02 0.  0.
          5    1    5    5  501    0  0.51543212121E+02 -0.17835505586E+03 -0.24727188539E+02  0.18735194827E+03  0.47000000000E+01 0. -1.
        -11    1    6    6    0    0 -0.12839649284E+02 -0.63210685768E+02  0.45416819139E+02  0.78886848395E+02  0.00000000000E+00 0.  1.
         12    1    6    6    0    0  0.47536347421E+02 -0.10041485613E+02  0.24131036945E+02  0.54247974187E+02  0.00000000000E+00 0. -1.
         -5    1    3    3    0  503 -0.61008386443E+02  0.16420255215E+03 -0.57451612764E+02  0.18441062647E+03  0.47000000000E+01 0.  1.
         13    1    4    4    0    0 -0.11677847183E+02  0.93541031476E+02 -0.89625615231E+02  0.13007323933E+03  0.00000000000E+00 0. -1.
        -14    1    4    4    0    0 -0.13553676631E+02 -0.61363563823E+01 -0.62952748199E+02  0.64686981114E+02  0.00000000000E+00 0.  1.
</event>
<event>
12    1  0.1039610E+000  0.2628683E+03  0.7818608E-02  0.1105451E+00
         21   -1    0    0  503  502  0.00000000000E+00  0.00000000000E+00  0.85054755861E+03  0.85054755861E+03  0.00000000000E+00 0. -1.
         21   -1    0    0  501  503 -0.00000000000E+00 -0.00000000000E+00 -0.88762481806E+02  0.88762481806E+02  0.00000000000E+00 0.  1.
          6    2    1    2  501    0 -0.10965107771E+03 -0.16555785985E+03  0.51805344983E+03  0.58092951602E+03  0.17224099950E+03 0.  0.
         24    2    3    3    0    0 -0.79079530428E+02 -0.22342931319E+02  0.25310133381E+03  0.27816417944E+03  0.81007696123E+02 0.  0.
         -6    2    1    2    0  502  0.10965107771E+03  0.16555785985E+03  0.24373162698E+03  0.35838052440E+03  0.17204281582E+03 0.  0.
        -24    2    5    5    0    0  0.44212264979E+02  0.16805575743E+03  0.21174904724E+03  0.28535003001E+03  0.79934464655E+02 0.  0.
          5    1    3    3  501    0 -0.30571547278E+02 -0.14321492854E+03  0.26495211601E+03  0.30276533659E+03  0.47000000000E+01 0. -1.
        -13    1    4    4    0    0 -0.46807294338E+02 -0.38877779409E+02  0.75841594429E+02  0.97233492072E+02  0.00000000000E+00 0.  1.
         14    1    4    4    0    0 -0.32272236090E+02  0.16534848090E+02  0.17725973938E+03  0.18093068736E+03  0.00000000000E+00 0. -1.
         -5    1    5    5    0  502  0.65438812728E+02 -0.24978975730E+01  0.31982579738E+02  0.73030494386E+02  0.47000000000E+01 0.  1.
         13    1    6    6    0    0  0.51641043136E+02  0.48379035436E+02  0.67776344277E+02  0.97984494944E+02  0.00000000000E+00 0. -1.
        -14    1    6    6    0    0 -0.74287781568E+01  0.11967672199E+03  0.14397270297E+03  0.18736553507E+03  0.00000000000E+00 0.  1.
</event>
<event>
12    1  0.1039610E+000  0.1864447E+03  0.7818608E-02  0.1162396E+00
         21   -1    0    0  501  502  0.00000000000E+00  0.00000000000E+00  0.24081580887E+03  0.24081580887E+03  0.00000000000E+00 0. -1.
         21   -1    0    0  502  503 -0.00000000000E+00 -0.00000000000E+00 -0.16975339178E+03  0.16975339178E+03  0.00000000000E+00 0. -1.
         -6    2    1    2    0  503 -0.58649756914E+02  0.27916339053E+02  0.11866378745E+03  0.22100392037E+03  0.17476419083E+03 0.  0.
        -24    2    3    3    0    0 -0.28838145291E+02  0.34063435883E+02 -0.70473685483E+01  0.91574774777E+02  0.79651225251E+02 0.  0.
          6    2    1    2  501    0  0.58649756914E+02 -0.27916339053E+02 -0.47601370364E+02  0.18956528027E+03  0.17160999112E+03 0.  0.
         24    2    5    5    0    0  0.26669999870E+02 -0.80519300220E+01  0.36926175464E+02  0.96913806397E+02  0.85162321281E+02 0.  0.
          5    1    5    5  501    0  0.31979757044E+02 -0.19864409031E+02 -0.84527545828E+02  0.92651473871E+02  0.47000000000E+01 0. -1.
        -11    1    6    6    0    0  0.50649475241E+02 -0.98055436114E+00  0.47800618037E+02  0.69650771092E+02  0.00000000000E+00 0.  1.
         12    1    6    6    0    0 -0.23979475371E+02 -0.70713756608E+01 -0.10874442572E+02  0.27263035306E+02  0.00000000000E+00 0. -1.
         -5    1    3    3    0  503 -0.29811611623E+02 -0.61470968298E+01  0.12571115600E+03  0.12942914560E+03  0.47000000000E+01 0.  1.
         11    1    4    4    0    0  0.55746552039E+01  0.22903086757E+02  0.31085093540E+02  0.39011680353E+02  0.00000000000E+00 0. -1.
        -12    1    4    4    0    0 -0.34412800495E+02  0.11160349127E+02 -0.38132462088E+02  0.52563094424E+02  0.00000000000E+00 0.  1.
</event>
<event>
12    1  0.1039610E+000  0.3425711E+03  0.7818608E-02  0.1065801E+00
         21   -1    0    0  503  502  0.00000000000E+00  0.00000000000E+00  0.96092979417E+03  0.96092979417E+03  0.00000000000E+00 0. -1.
         21   -1    0    0  501  503 -0.00000000000E+00 -0.00000000000E+00 -0.12305735056E+03  0.12305735056E+03  0.00000000000E+00 0. -1.
          6    2    1    2  501    0  0.29049177416E+03  0.52104730262E+02  0.36480416590E+03  0.50043681859E+03  0.17393836889E+03 0.  0.
         24    2    3    3    0    0  0.10849219188E+03  0.78236831506E+02  0.17803508074E+03  0.23830800324E+03  0.84868468415E+02 0.  0.
         -6    2    1    2    0  502 -0.29049177416E+03 -0.52104730262E+02  0.47306827770E+03  0.58355032613E+03  0.17215404145E+03 0.  0.
        -24    2    5    5    0    0 -0.41645838072E+02 -0.18547451550E+02  0.95628634116E+02  0.13019266885E+03  0.75676360721E+02 0.  0.
          5    1    3    3  501    0  0.18199958228E+03 -0.26132101244E+02  0.18676908516E+03  0.26212881535E+03  0.47000000000E+01 0. -1.
        -13    1    4    4    0    0  0.46619516172E+02 -0.11501315419E+02  0.40495593237E+02  0.62813633999E+02  0.00000000000E+00 0.  1.
         14    1    4    4    0    0  0.61872675706E+02  0.89738146925E+02  0.13753948751E+03  0.17549436924E+03  0.00000000000E+00 0. -1.
         -5    1    5    5    0  502 -0.24884593609E+03 -0.33557278712E+02  0.37743964359E+03  0.45335765728E+03  0.47000000000E+01 0.  1.
         13    1    6    6    0    0  0.35830297150E+01 -0.38582557794E+02  0.38500400013E+02  0.54623554160E+02  0.00000000000E+00 0. -1.
        -14    1    6    6    0    0 -0.45228867787E+02  0.20035106244E+02  0.57128234104E+02  0.75569114692E+02  0.00000000000E+00 0.  1.
</event>
<event>
12    1  0.1039610E+000  0.1804744E+03  0.7818608E-02  0.1168824E+00
         21   -1    0    0  501  502  0.00000000000E+00  0.00000000000E+00  0.39606968402E+03  0.39606968402E+03  0.00000000000E+00 0.  1.
         21   -1    0    0  502  503 -0.00000000000E+00 -0.00000000000E+00 -0.79556011227E+02  0.79556011227E+02  0.00000000000E+00 0.  1.
         -6    2    1    2    0  503  0.14153969950E+02  0.16480288335E+02  0.15539957889E+03  0.23815972407E+03  0.17916218987E+03 0.  0.
        -24    2    3    3    0    0  0.27560520858E+02 -0.56960668190E+02  0.11236430020E+03  0.15186120198E+03  0.80199680031E+02 0.  0.
          6    2    1    2  501    0 -0.14153969950E+02 -0.16480288335E+02  0.16111409390E+03  0.23746597118E+03  0.17309073183E+03 0.  0.
         24    2    5    5    0    0  0.91574908062E+01 -0.19230350385E+02  0.18538966670E+03  0.20337226973E+03  0.80853482062E+02 0.  0.
          5    1    5    5  501    0 -0.23311460757E+02  0.27500620494E+01 -0.24275572800E+02  0.34093701451E+02  0.47000000000E+01 0. -1.
        -13    1    6    6    0    0  0.13467423159E+02  0.24032451228E+02  0.13036554490E+03  0.13324453270E+03  0.00000000000E+00 0.  1.
         14    1    6    6    0    0 -0.43099323528E+01 -0.43262801613E+02  0.55024121802E+02  0.70127737026E+02  0.00000000000E+00 0. -1.
         -5    1    3    3    0  503 -0.13406550907E+02  0.73440956525E+02  0.43035278699E+02  0.86298522092E+02  0.47000000000E+01 0.  1.
         11    1    4    4    0    0  0.13134538374E+02  0.43786488115E+01 -0.80072338014E+01  0.15993888110E+02  0.00000000000E+00 0. -1.
        -12    1    4    4    0    0  0.14425982483E+02 -0.61339317002E+02  0.12037153400E+03  0.13586731387E+03  0.00000000000E+00 0.  1.
</event>
<event>
12    1  0.1039610E+000  0.1870388E+03  0.7818608E-02  0.1161457E+00
         21   -1    0    0  501  502  0.00000000000E+00  0.00000000000E+00  0.14956950438E+03  0.14956950438E+03  0.00000000000E+00 0. -1.
         21   -1    0    0  502  503 -0.00000000000E+00 -0.00000000000E+00 -0.36357302501E+03  0.36357302501E+03  0.00000000000E+00 0. -1.
         -6    2    1    2    0  503 -0.65088201793E+02 -0.28682395900E+02 -0.26094236269E+03  0.32030378767E+03  0.17159383994E+03 0.  0.
        -24    2    3    3    0    0  0.70633869274E+01 -0.61744311287E+02 -0.13380310871E+03  0.17035238919E+03  0.85172843039E+02 0.  0.
          6    2    1    2  501    0  0.65088201793E+02  0.28682395900E+02  0.46938842058E+02  0.19283874172E+03  0.17298662251E+03 0.  0.
         24    2    5    5    0    0  0.89132214263E+02  0.66707473309E+02  0.13221868375E+02  0.13642114374E+03  0.77726906795E+02 0.  0.
          5    1    5    5  501    0 -0.24044012471E+02 -0.38025077410E+02  0.33716973683E+02  0.56417597982E+02  0.47000000000E+01 0. -1.
        -11    1    6    6    0    0  0.90435377539E+00  0.43113124830E+02  0.13183673762E+02  0.45092889042E+02  0.00000000000E+00 0.  1.
         12    1    6    6    0    0  0.88227860488E+02  0.23594348480E+02  0.38194612966E-01  0.91328254693E+02  0.00000000000E+00 0. -1.
         -5    1    3    3    0  503 -0.72151588720E+02  0.33061915388E+02 -0.12713925398E+03  0.14995139848E+03  0.47000000000E+01 0.  1.
         11    1    4    4    0    0  0.36879614370E+02 -0.60414487398E+02 -0.11512562049E+03  0.13514408880E+03  0.00000000000E+00 0. -1.
        -12    1    4    4    0    0 -0.29816227442E+02 -0.13298238894E+01 -0.18677488222E+02  0.35208300396E+02  0.00000000000E+00 0.  1.
</event>
<event>
12    1  0.1039610E+000  0.1921822E+03  0.7818608E-02  0.1157617E+00
         21   -1    0    0  501  502  0.00000000000E+00  0.00000000000E+00  0.26943002520E+03  0.26943002520E+03  0.00000000000E+00 0.  1.
         21   -1    0    0  502  503 -0.00000000000E+00 -0.00000000000E+00 -0.39156957529E+03  0.39156957529E+03  0.00000000000E+00 0.  1.
         -6    2    1    2    0  503  0.74508077441E+02 -0.33584013484E+02  0.20691255755E+03  0.28239477726E+03  0.17393867940E+03 0.  0.
        -24    2    3    3    0    0  0.62983961796E+02  0.41751217719E+02  0.15419985876E+03  0.18961050642E+03  0.80401517901E+02 0.  0.
          6    2    1    2  501    0 -0.74508077441E+02  0.33584013484E+02 -0.32905210763E+03  0.37860482323E+03  0.16848437039E+03 0.  0.
         24    2    5    5    0    0  0.11179346606E+02 -0.22881174829E+02 -0.16304486612E+03  0.18338406007E+03  0.79984743350E+02 0.  0.
          5    1    5    5  501    0 -0.85687424047E+02  0.56465188312E+02 -0.16600724152E+03  0.19522076315E+03  0.47000000000E+01 0. -1.
        -13    1    6    6    0    0 -0.45781174499E+01  0.95674796513E+01  0.48465108187E+01  0.11661238930E+02  0.00000000000E+00 0.  1.
         14    1    6    6    0    0  0.15757464056E+02 -0.32448654480E+02 -0.16789137694E+03  0.17172282114E+03  0.00000000000E+00 0. -1.
         -5    1    3    3    0  503  0.11524115644E+02 -0.75335231203E+02  0.52712698788E+02  0.92784270840E+02  0.47000000000E+01 0.  1.
         11    1    4    4    0    0  0.44597749678E+01 -0.20028500805E+02  0.56148479075E+02  0.59780282198E+02  0.00000000000E+00 0. -1.
        -12    1    4    4    0    0  0.58524186829E+02  0.61779718524E+02  0.98051379683E+02  0.12983022423E+03  0.00000000000E+00 0.  1.
</event>
<event>
12    1  0.1039610E+000  0.1989934E+03  0.7818608E-02  0.1151000E+00
         21   -1    0    0  503  502  0.00000000000E+00  0.00000000000E+00  0.17258168425E+03  0.17258168425E+03  0.00000000000E+00 0.  1.
         21   -1    0    0  501  503 -0.00000000000E+00 -0.00000000000E+00 -0.24224787531E+03  0.24224787531E+03  0.00000000000E+00 0.  1.
          6    2    1    2  501    0 -0.21070716404E+02  0.95741826627E+02 -0.86295592698E+02  0.21514248841E+03  0.17096458272E+03 0.  0.
         24    2    3    3    0    0 -0.68911585708E+02  0.56598464363E+02  0.13170465810E+01  0.10781580884E+03  0.60583175979E+02 0.  0.
         -6    2    1    2    0  502  0.21070716404E+02 -0.95741826627E+02  0.16629401637E+02  0.19968707115E+03  0.17317019643E+03 0.  0.
        -24    2    5    5    0    0  0.51237997526E+02 -0.12366971283E+03  0.23006700427E+02  0.15782071690E+03  0.80365043127E+02 0.  0.
          5    1    3    3  501    0  0.47840869304E+02  0.39143362264E+02 -0.87612639279E+02  0.10732667957E+03  0.47000000000E+01 0. -1.
        -13    1    4    4    0    0 -0.73393345746E+02  0.59177401731E+02 -0.10553521002E+02  0.94867933892E+02  0.00000000000E+00 0.  1.
         14    1    4    4    0    0  0.44817600381E+01 -0.25789373682E+01  0.11870567583E+02  0.12947874951E+02  0.00000000000E+00 0. -1.
         -5    1    5    5    0  502 -0.30167281122E+02  0.27927886207E+02 -0.63772987900E+01  0.41866354249E+02  0.47000000000E+01 0.  1.
         13    1    6    6    0    0  0.42225895303E+02 -0.40826220217E+02  0.42179576947E+02  0.72311293743E+02  0.00000000000E+00 0. -1.
        -14    1    6    6    0    0  0.90121022224E+01 -0.82843492616E+02 -0.19172876520E+02  0.85509423161E+02  0.00000000000E+00 0.  1.
</event>
<event>
12    1  0.1039610E+000  0.3706628E+03  0.7818608E-02  0.1054455E+00
         21   -1    0    0  503  502  0.00000000000E+00  0.00000000000E+00  0.73244203110E+03  0.73244203110E+03  0.00000000000E+00 0. -1.
         21   -1    0    0  501  503 -0.00000000000E+00 -0.00000000000E+00 -0.19693578871E+03  0.19693578871E+03  0.00000000000E+00 0.  1.
          6    2    1    2  501    0  0.21386891458E+03  0.24885041943E+03  0.36952389780E+03  0.52339166857E+03  0.17240789950E+03 0.  0.
         24    2    3    3    0    0  0.15102261511E+03  0.21046639631E+03  0.35782903403E+03  0.44867988618E+03  0.78537178606E+02 0.  0.
         -6    2    1    2    0  502 -0.21386891458E+03 -0.24885041943E+03  0.16598234459E+03  0.40598615124E+03  0.17207025428E+03 0.  0.
        -24    2    5    5    0    0 -0.16541974785E+03 -0.19127972115E+03  0.50154270095E+02  0.26778361907E+03  0.72394689940E+02 0.  0.
          5    1    3    3  501    0  0.62846299473E+02  0.38384023122E+02  0.11694863769E+02  0.74711782385E+02  0.47000000000E+01 0. -1.
        -13    1    4    4    0    0  0.97432695269E+01  0.27491489867E+02  0.91404522978E+02  0.95945297629E+02  0.00000000000E+00 0.  1.
         14    1    4    4    0    0  0.14127934558E+03  0.18297490644E+03  0.26642451105E+03  0.35273458855E+03  0.00000000000E+00 0. -1.
         -5    1    5    5    0  502 -0.48449166733E+02 -0.57570698287E+02  0.11582807450E+03  0.13820253218E+03  0.47000000000E+01 0.  1.
         13    1    6    6    0    0 -0.91982838023E+02 -0.68276226038E+02  0.48811789741E+02  0.12451938142E+03  0.00000000000E+00 0. -1.
        -14    1    6    6    0    0 -0.73436909825E+02 -0.12300349511E+03  0.13424803549E+01  0.14326423764E+03  0.00000000000E+00 0.  1.
</event>
<event>
12    1  0.1039610E+000  0.2850570E+03  0.7818608E-02  0.1093175E+00
         21   -1    0    0  503  502  0.00000000000E+00  0.00000000000E+00  0.29317554994E+04  0.29317554994E+04  0.00000000000E+00 0. -1.
         21   -1    0    0  501  503 -0.00000000000E+00 -0.00000000000E+00 -0.29904890250E+02  0.29904890250E+02  0.00000000000E+00 0. -1.
          6    2    1    2  501    0 -0.21798802089E+03 -0.58667768281E+02  0.18694438013E+04  0.18910519938E+04  0.17405985314E+03 0.  0.
         24    2    3    3    0    0 -0.36581721771E+02 -0.41950213641E+02  0.47347964770E+03  0.48324315368E+03  0.79012188906E+02 0.  0.
         -6    2    1    2    0  502  0.21798802089E+03  0.58667768281E+02  0.10324068078E+04  0.10706083959E+04  0.17139963895E+03 0.  0.
        -24    2    5    5    0    0  0.67487828886E+02  0.65230590626E+00  0.60020739058E+03  0.60926846923E+03  0.80025766745E+02 0.  0.
          5    1    3    3  501    0 -0.18140629912E+03 -0.16717554641E+02  0.13959641536E+04  0.14078088401E+04  0.47000000000E+01 0. -1.
        -13    1    4    4    0    0 -0.11098881500E+02  0.12327427665E+02  0.20775407022E+02  0.26585112005E+02  0.00000000000E+00 0.  1.
         14    1    4    4    0    0 -0.25482840271E+02 -0.54277641306E+02  0.45270424068E+03  0.45665804167E+03  0.00000000000E+00 0. -1.
         -5    1    5    5    0  502  0.15050019201E+03  0.58015462375E+02  0.43219941727E+03  0.46133992669E+03  0.47000000000E+01 0.  1.
         13    1    6    6    0    0  0.56014935412E+02 -0.12477116065E+02  0.18503175916E+03  0.19372687814E+03  0.00000000000E+00 0. -1.
        -14    1    6    6    0    0  0.11472893474E+02  0.13129421972E+02  0.41517563141E+03  0.41554159109E+03  0.00000000000E+00 0.  1.
</event>
<event>
12    1  0.1039610E+000  0.2372956E+03  0.7818608E-02  0.1121713E+00
         21   -1    0    0  503  502  0.00000000000E+00  0.00000000000E+00  0.10169264569E+04  0.10169264569E+04  0.00000000000E+00 0. -1.
         21   -1    0    0  501  503 -0.00000000000E+00 -0.00000000000E+00 -0.57122204887E+02  0.57122204887E+02  0.00000000000E+00 0. -1.
          6    2    1    2  501    0  0.16286050889E+03 -0.13537154659E+01  0.38146164462E+03  0.44891718519E+03  0.17172150399E+03 0.  0.
         24    2    3    3    0    0  0.14991184730E+03  0.42562351596E+01  0.17832273839E+03  0.24523447947E+03  0.76480542582E+02 0.  0.
         -6    2    1    2    0  502 -0.16286050889E+03  0.13537154659E+01  0.57834260736E+03  0.62513147657E+03  0.17257987604E+03 0.  0.
        -24    2    5    5    0    0 -0.12796959117E+03 -0.35016361005E+02  0.25152513975E+03  0.29441724081E+03  0.76251255447E+02 0.  0.
          5    1    3    3  501    0  0.12948661591E+02 -0.56099506255E+01  0.20313890623E+03  0.20368270572E+03  0.47000000000E+01 0. -1.
        -13    1    4    4    0    0  0.61104779757E+01  0.22565609385E+02  0.23990101438E+02  0.33497307877E+02  0.00000000000E+00 0.  1.
         14    1    4    4    0    0  0.14380136932E+03 -0.18309374225E+02  0.15433263695E+03  0.21173717159E+03  0.00000000000E+00 0. -1.
         -5    1    5    5    0  502 -0.34890917722E+02  0.36370076471E+02  0.32681746761E+03  0.33071423576E+03  0.47000000000E+01 0.  1.
         13    1    6    6    0    0 -0.81984337520E+02  0.13541130899E+02  0.10973077420E+03  0.13764314959E+03  0.00000000000E+00 0. -1.
        -14    1    6    6    0    0 -0.45985253649E+02 -0.48557491904E+02  0.14179436555E+03  0.15677409122E+03  0.00000000000E+00 0.  1.
</event>
<event>
12    1  0.1039610E+000  0.1858988E+03  0.7818608E-02  0.1162487E+00
         21   -1    0    0  501  502  0.00000000000E+00  0.00000000000E+00  0.41943409893E+02  0.41943409893E+02  0.00000000000E+00 0. -1.
         21   -1    0    0  502  503 -0.00000000000E+00 -0.00000000000E+00 -0.87787594338E+03  0.87787594338E+03  0.00000000000E+00 0. -1.
         -6    2    1    2    0  503 -0.55139014388E+02 -0.38303241524E+02 -0.29982214828E+03  0.35277711167E+03  0.17335201382E+03 0.  0.
        -24    2    3    3    0    0  0.18669486740E+02  0.28697723799E+02 -0.12677147978E+03  0.15301363136E+03  0.78549692627E+02 0.  0.
          6    2    1    2  501    0  0.55139014388E+02  0.38303241524E+02 -0.53611038520E+03  0.56704224160E+03  0.17209041060E+03 0.  0.
         24    2    5    5    0    0  0.74796239331E+01  0.59034101495E+02 -0.48297353097E+03  0.49256539062E+03  0.76264424946E+02 0.  0.
          5    1    5    5  501    0  0.47659390455E+02 -0.20730859972E+02 -0.53136854234E+02  0.74476850978E+02  0.47000000000E+01 0. -1.
        -13    1    6    6    0    0 -0.11549444346E+01  0.50674018399E+02 -0.47595737940E+03  0.47864874077E+03  0.00000000000E+00 0.  1.
         14    1    6    6    0    0  0.86345683678E+01  0.83600830968E+01 -0.70161515663E+01  0.13916649851E+02  0.00000000000E+00 0. -1.
         -5    1    3    3    0  503 -0.73808501128E+02 -0.67000965323E+02 -0.17305066851E+03  0.19976348030E+03  0.47000000000E+01 0.  1.
         11    1    4    4    0    0  0.26364034007E+02 -0.21452473829E+02 -0.62336069986E+02  0.71000398195E+02  0.00000000000E+00 0. -1.
        -12    1    4    4    0    0 -0.76945472671E+01  0.50150197628E+02 -0.64435409791E+02  0.82013233169E+02  0.00000000000E+00 0.  1.
</event>
<event>
12    1  0.1039610E+000  0.3871266E+03  0.7818608E-02  0.1048495E+00
         21   -1    0    0  501  502  0.00000000000E+00  0.00000000000E+00  0.10745548993E+03  0.10745548993E+03  0.00000000000E+00 0. -1.
         21   -1    0    0  502  503 -0.00000000000E+00 -0.00000000000E+00 -0.28577070010E+04  0.28577070010E+04  0.00000000000E+00 0. -1.
         -6    2    1    2    0  503  0.24042364749E+03  0.25021200674E+03 -0.31352820130E+03  0.49816356662E+03  0.17163166233E+03 0.  0.
        -24    2    3    3    0    0  0.12918082069E+03  0.12745357125E+03 -0.25338687900E+03  0.32185795513E+03  0.80346347592E+02 0.  0.
          6    2    1    2  501    0 -0.24042364749E+03 -0.25021200674E+03 -0.24367233097E+04  0.24669989243E+04  0.16749216581E+03 0.  0.
         24    2    5    5    0    0 -0.12865094614E+03 -0.18836964849E+03 -0.18974473366E+04  0.19127803039E+04  0.79924371595E+02 0.  0.
          5    1    5    5  501    0 -0.11177270135E+03 -0.61842358249E+02 -0.53927597310E+03  0.55421862041E+03  0.47000000000E+01 0. -1.
        -11    1    6    6    0    0 -0.27935041752E+02 -0.56560048133E+02 -0.84379587321E+03  0.84615062563E+03  0.00000000000E+00 0.  1.
         12    1    6    6    0    0 -0.10071590438E+03 -0.13180960035E+03 -0.10536514634E+04  0.10666296782E+04  0.00000000000E+00 0. -1.
         -5    1    3    3    0  503  0.11124282680E+03  0.12275843549E+03 -0.60141322304E+02  0.17630561150E+03  0.47000000000E+01 0.  1.
         13    1    4    4    0    0  0.34525376574E+02  0.22986055779E+02 -0.12310125278E+03  0.12990103473E+03  0.00000000000E+00 0. -1.
        -14    1    4    4    0    0  0.94655444113E+02  0.10446751547E+03 -0.13028562622E+03  0.19195692040E+03  0.00000000000E+00 0.  1.
</event>
<event>
12    1  0.1039610E+000  0.1999922E+03  0.7818608E-02  0.1150182E+00
         21   -1    0    0  501  502  0.00000000000E+00  0.00000000000E+00  0.77225712435E+03  0.77225712435E+03  0.00000000000E+00 0. -1.
         21   -1    0    0  502  503 -0.00000000000E+00 -0.00000000000E+00 -0.89139666109E+02  0.89139666109E+02  0.00000000000E+00 0. -1.
         -6    2    1    2    0  503 -0.82592071081E+02 -0.53485259758E+02  0.62333554590E+03  0.65463278609E+03  0.17411133974E+03 0.  0.
        -24    2    3    3    0    0 -0.95233958388E+02  0.69431320401E+01  0.51631272792E+03  0.53099063543E+03  0.79085447439E+02 0.  0.
          6    2    1    2  501    0  0.82592071081E+02  0.53485259758E+02  0.59781912342E+02  0.20676400437E+03  0.17174211261E+03 0.  0.
         24    2    5    5    0    0  0.76392574302E+02 -0.27420278702E+02  0.16110861836E+02  0.11449596783E+03  0.79133240100E+02 0.  0.
          5    1    5    5  501    0  0.61994967794E+01  0.80905538459E+02  0.43671050506E+02  0.92268036535E+02  0.47000000000E+01 0. -1.
        -11    1    6    6    0    0 -0.98257191700E+01 -0.13033141561E+02  0.21413536442E+02  0.26924841301E+02  0.00000000000E+00 0.  1.
         12    1    6    6    0    0  0.86218293472E+02 -0.14387137141E+02 -0.53026746058E+01  0.87571126533E+02  0.00000000000E+00 0. -1.
         -5    1    3    3    0  503  0.12641887307E+02 -0.60428391798E+02  0.10702281799E+03  0.12364215066E+03  0.47000000000E+01 0.  1.
         11    1    4    4    0    0 -0.64559095725E+01  0.15086793054E+02  0.24197590740E+03  0.24253170897E+03  0.00000000000E+00 0. -1.
        -12    1    4    4    0    0 -0.88778048816E+02 -0.81436610140E+01  0.27433682052E+03  0.28845892646E+03  0.00000000000E+00 0.  1.
</event>
<event>
12    1  0.1039610E+000  0.1915283E+03  0.7818608E-02  0.1157226E+00
         21   -1    0    0  503  502  0.00000000000E+00  0.00000000000E+00  0.29136327119E+03  0.29136327119E+03  0.00000000000E+00 0.  1.
         21   -1    0    0  501  503 -0.00000000000E+00 -0.00000000000E+00 -0.13717073868E+03  0.13717073868E+03  0.00000000000E+00 0.  1.
          6    2    1    2  501    0  0.35539773689E+02 -0.76767977630E+02  0.14491931216E+02  0.19147001813E+03  0.17115593436E+03 0.  0.
         24    2    3    3    0    0  0.81951827292E+02 -0.68129783115E+02 -0.18820399558E+02  0.13350021128E+03  0.78168597458E+02 0.  0.
         -6    2    1    2    0  502 -0.35539773689E+02  0.76767977630E+02  0.13970060130E+03  0.23706399175E+03  0.17183329211E+03 0.  0.
        -24    2    5    5    0    0 -0.50648044964E+02 -0.12760310469E+02  0.43486253549E+02  0.10469003304E+03  0.79629760695E+02 0.  0.
          5    1    3    3  501    0 -0.46412053603E+02 -0.86381945149E+01  0.33312330774E+02  0.57969806846E+02  0.47000000000E+01 0. -1.
        -13    1    4    4    0    0  0.77678751987E+01 -0.65882993359E+01  0.25464393815E+02  0.27425917043E+02  0.00000000000E+00 0.  1.
         14    1    4    4    0    0  0.74183952093E+02 -0.61541483779E+02 -0.44284793374E+02  0.10607429424E+03  0.00000000000E+00 0. -1.
         -5    1    5    5    0  502  0.15108271275E+02  0.89528288098E+02  0.96214347750E+02  0.13237395871E+03  0.47000000000E+01 0.  1.
         13    1    6    6    0    0 -0.15216324681E+02 -0.25566631235E+02  0.57298882189E+02  0.64562768447E+02  0.00000000000E+00 0. -1.
        -14    1    6    6    0    0 -0.35431720283E+02  0.12806320766E+02 -0.13812628640E+02  0.40127264593E+02  0.00000000000E+00 0.  1.
</event>
<event>
12    1  0.1039610E+000  0.1758926E+03  0.7818608E-02  0.1172354E+00
         21   -1    0    0  501  502  0.00000000000E+00  0.00000000000E+00  0.41430148028E+03  0.41430148028E+03  0.00000000000E+00 0. -1.
         21   -1    0    0  502  503 -0.00000000000E+00 -0.00000000000E+00 -0.91720348049E+02  0.91720348049E+02  0.00000000000E+00 0. -1.
         -6    2    1    2    0  503 -0.32799754696E+02 -0.18073057035E+02  0.50236850638E+02  0.18292604693E+03  0.17185964676E+03 0.  0.
        -24    2    3    3    0    0 -0.70515170375E+01  0.24445001532E+02 -0.29784080772E+02  0.88606396214E+02  0.79477795580E+02 0.  0.
          6    2    1    2  501    0  0.32799754696E+02  0.18073057035E+02  0.27234428160E+03  0.32309578141E+03  0.16975575673E+03 0.  0.
         24    2    5    5    0    0 -0.39161355244E+02  0.26377826473E+02  0.20146810989E+03  0.22164188914E+03  0.79412380941E+02 0.  0.
          5    1    5    5  501    0  0.71961109941E+02 -0.83047694374E+01  0.70876171712E+02  0.10145389227E+03  0.47000000000E+01 0. -1.
        -11    1    6    6    0    0 -0.40856430453E+02  0.30793987633E+02  0.55072186870E+02  0.75169563990E+02  0.00000000000E+00 0.  1.
         12    1    6    6    0    0  0.16950752090E+01 -0.44161611607E+01  0.14639592302E+03  0.14647232515E+03  0.00000000000E+00 0. -1.
         -5    1    3    3    0  503 -0.25748237659E+02 -0.42518058567E+02  0.80020931410E+02  0.94319650713E+02  0.47000000000E+01 0.  1.
         13    1    4    4    0    0  0.14510561142E+01  0.53191346682E+02 -0.15655751990E+02  0.55466453790E+02  0.00000000000E+00 0. -1.
        -14    1    4    4    0    0 -0.85025731517E+01 -0.28746345150E+02 -0.14128328782E+02  0.33139942424E+02  0.00000000000E+00 0.  1.
</event>
<event>
12    1  0.1039610E+000  0.1836700E+03  0.7818608E-02  0.1164703E+00
         21   -1    0    0  501  502  0.00000000000E+00  0.00000000000E+00  0.28639935571E+03  0.28639935571E+03  0.00000000000E+00 0. -1.
         21   -1    0    0  502  503 -0.00000000000E+00 -0.00000000000E+00 -0.11940284242E+03  0.11940284242E+03  0.00000000000E+00 0. -1.
         -6    2    1    2    0  503  0.52923359556E+02 -0.28846229495E+02  0.11443965956E+03  0.21640496855E+03  0.17349837979E+03 0.  0.
        -24    2    3    3    0    0 -0.71797385415E+01 -0.68042117301E+02  0.95886089712E+02  0.14214175440E+03  0.79554118511E+02 0.  0.
          6    2    1    2  501    0 -0.52923359556E+02  0.28846229495E+02  0.52556853728E+02  0.18939722957E+03  0.17168605288E+03 0.  0.
         24    2    5    5    0    0  0.53004631834E-01  0.54228648122E+02 -0.18432020359E+02  0.97135251586E+02  0.78452333550E+02 0.  0.
          5    1    5    5  501    0 -0.52976364187E+02 -0.25382418627E+02  0.70988874087E+02  0.92261977987E+02  0.47000000000E+01 0. -1.
        -13    1    6    6    0    0  0.25350336195E+02  0.18878630302E+01  0.15548714470E+02  0.29798759936E+02  0.00000000000E+00 0.  1.
         14    1    6    6    0    0 -0.25297331563E+02  0.52340785092E+02 -0.33980734829E+02  0.67336491650E+02  0.00000000000E+00 0. -1.
         -5    1    3    3    0  503  0.60103098097E+02  0.39195887806E+02  0.18553569847E+02  0.74263214150E+02  0.47000000000E+01 0.  1.
         13    1    4    4    0    0  0.47755446143E+01  0.14019311378E+02  0.38620795686E+02  0.41363181421E+02  0.00000000000E+00 0. -1.
        -14    1    4    4    0    0 -0.11955283156E+02 -0.82061428679E+02  0.57265294027E+02  0.10077857298E+03  0.00000000000E+00 0.  1.
</event>
<event>
12    1  0.1039610E+000  0.2697700E+03  0.7818608E-02  0.1101518E+00
         21   -1    0    0  503  502  0.00000000000E+00  0.00000000000E+00  0.84830151641E+03  0.84830151641E+03  0.00000000000E+00 0. -1.
         21   -1    0    0  501  503 -0.00000000000E+00 -0.00000000000E+00 -0.88276949669E+02  0.88276949669E+02  0.00000000000E+00 0. -1.
          6    2    1    2  501    0 -0.19622556956E+03 -0.68758782144E+02  0.29724938711E+03  0.40091371493E+03  0.17071134823E+03 0.  0.
         24    2    3    3    0    0 -0.21310716466E+03 -0.87204461785E+02  0.26919484444E+03  0.36304052237E+03  0.79456118843E+02 0.  0.
         -6    2    1    2    0  502  0.19622556956E+03  0.68758782144E+02  0.46277517963E+03  0.53566475114E+03  0.17188256010E+03 0.  0.
        -24    2    5    5    0    0  0.10735736487E+03 -0.18311521780E+02  0.30937116373E+03  0.33809532607E+03  0.82079333217E+02 0.  0.
          5    1    3    3  501    0  0.16881595104E+02  0.18445679641E+02  0.28054542669E+02  0.37873192565E+02  0.47000000000E+01 0. -1.
        -11    1    4    4    0    0 -0.67645379898E+02 -0.69569571832E+02  0.10957070669E+03  0.14636106897E+03  0.00000000000E+00 0.  1.
         12    1    4    4    0    0 -0.14546178477E+03 -0.17634889953E+02  0.15962413775E+03  0.21667945340E+03  0.00000000000E+00 0. -1.
         -5    1    5    5    0  502  0.88868204690E+02  0.87070303924E+02  0.15340401590E+03  0.19756942507E+03  0.47000000000E+01 0.  1.
         11    1    6    6    0    0  0.12038247142E+02  0.25385880196E+02  0.10089825070E+03  0.10473690516E+03  0.00000000000E+00 0. -1.
        -12    1    6    6    0    0  0.95319117728E+02 -0.43697401976E+02  0.20847291303E+03  0.23335842091E+03  0.00000000000E+00 0.  1.
</event>
<event>
12    1  0.1039610E+000  0.1788741E+03  0.7818608E-02  0.1169187E+00
         21   -1    0    0  503  502  0.00000000000E+00  0.00000000000E+00  0.67209384392E+03  0.67209384392E+03  0.00000000000E+00 0.  1.
         21   -1    0    0  501  503 -0.00000000000E+00 -0.00000000000E+00 -0.57509603365E+02  0.57509603365E+02  0.00000000000E+00 0.  1.
          6    2    1    2  501    0  0.45186110365E+02 -0.68743611257E+01  0.46022215689E+03  0.49333327614E+03  0.17170977328E+03 0.  0.
         24    2    3    3    0    0  0.93827245853E+02  0.59899057520E+01  0.28224933621E+03  0.30832553488E+03  0.80997016190E+02 0.  0.
         -6    2    1    2    0  502 -0.45186110365E+02  0.68743611257E+01  0.15436208367E+03  0.23627017115E+03  0.17293611390E+03 0.  0.
        -24    2    5    5    0    0 -0.46331552686E+02 -0.42080825994E+02  0.36324264051E+02  0.10839155979E+03  0.80696154707E+02 0.  0.
          5    1    3    3  501    0 -0.48641135488E+02 -0.12864266878E+02  0.17797282068E+03  0.18500774126E+03  0.47000000000E+01 0. -1.
        -11    1    4    4    0    0 -0.12906553340E+02 -0.91384772680E+01  0.27814073032E+02  0.31995523820E+02  0.00000000000E+00 0.  1.
         12    1    4    4    0    0  0.10673379919E+03  0.15128383020E+02  0.25443526318E+03  0.27633001106E+03  0.00000000000E+00 0. -1.
         -5    1    5    5    0  502  0.11454423209E+01  0.48955187119E+02  0.11803781962E+03  0.12787861136E+03  0.47000000000E+01 0.  1.
         11    1    6    6    0    0 -0.55695898709E+02  0.28558476809E+01  0.24982863526E+02  0.61109184816E+02  0.00000000000E+00 0. -1.
        -12    1    6    6    0    0  0.93643460229E+01 -0.44936673675E+02  0.11341400525E+02  0.47282374974E+02  0.00000000000E+00 0.  1.
</event>
<event>
12    1  0.1039610E+000  0.2064280E+03  0.7818608E-02  0.1147221E+00
         21   -1    0    0  503  502  0.00000000000E+00  0.00000000000E+00  0.18437943410E+03  0.18437943410E+03  0.00000000000E+00 0.  1.
         21   -1    0    0  501  503 -0.00000000000E+00 -0.00000000000E+00 -0.25632589387E+03  0.25632589387E+03  0.00000000000E+00 0.  1.
          6    2    1    2  501    0  0.83567617941E+02 -0.19100963294E+02  0.51924604328E+02  0.19996362892E+03  0.17303437459E+03 0.  0.
         24    2    3    3    0    0  0.13123928827E+02  0.11036384484E+01  0.86520549825E+02  0.11878783997E+03  0.80319921915E+02 0.  0.
         -6    2    1    2    0  502 -0.83567617941E+02  0.19100963294E+02 -0.12387106410E+03  0.24074169905E+03  0.18778746384E+03 0.  0.
        -24    2    5    5    0    0 -0.93930020469E+02 -0.50343283512E+02 -0.62519079684E+02  0.14738197116E+03  0.80346220562E+02 0.  0.
          5    1    3    3  501    0  0.70443689113E+02 -0.20204601742E+02 -0.34595945497E+02  0.81175788954E+02  0.47000000000E+01 0. -1.
        -11    1    4    4    0    0 -0.29223945774E+02  0.13294991730E+02  0.16612133776E+02  0.36149118943E+02  0.00000000000E+00 0.  1.
         12    1    4    4    0    0  0.42347874602E+02 -0.12191353282E+02  0.69908416049E+02  0.82638721024E+02  0.00000000000E+00 0. -1.
         -5    1    5    5    0  502  0.10362402528E+02  0.69444246806E+02 -0.61351984411E+02  0.93359727890E+02  0.47000000000E+01 0.  1.
         13    1    6    6    0    0  0.25179688705E+01 -0.31548830992E+02 -0.14363510452E+01  0.31681729886E+02  0.00000000000E+00 0. -1.
        -14    1    6    6    0    0 -0.96447989339E+02 -0.18794452520E+02 -0.61082728639E+02  0.11570024127E+03  0.00000000000E+00 0.  1.
</event>
<event>
12    1  0.1039610E+000  0.2010711E+03  0.7818608E-02  0.1149327E+00
         21   -1    0    0  503  502  0.00000000000E+00  0.00000000000E+00  0.16726072751E+03  0.16726072751E+03  0.00000000000E+00 0. -1.
         21   -1    0    0  501  503 -0.00000000000E+00 -0.00000000000E+00 -0.23904198802E+03  0.23904198802E+03  0.00000000000E+00 0. -1.
          6    2    1    2  501    0  0.32383001135E+01 -0.97590093288E+02 -0.31424059551E+02  0.20122149939E+03  0.17311356794E+03 0.  0.
         24    2    3    3    0    0  0.42351920150E+02 -0.90787070546E+02  0.26058373067E+02  0.13120381270E+03  0.80619007316E+02 0.  0.
         -6    2    1    2    0  502 -0.32383001135E+01  0.97590093288E+02 -0.40357200954E+02  0.20508121613E+03  0.17577055682E+03 0.  0.
        -24    2    5    5    0    0  0.70372988199E+01  0.10803310316E+03 -0.84281081358E+02  0.15854046347E+03  0.79442450416E+02 0.  0.
          5    1    3    3  501    0 -0.39113620036E+02 -0.68030227417E+01 -0.57482432618E+02  0.70017686697E+02  0.47000000000E+01 0. -1.
        -13    1    4    4    0    0  0.18409037485E+02 -0.33429368141E+02 -0.29188010644E+02  0.48045346089E+02  0.00000000000E+00 0.  1.
         14    1    4    4    0    0  0.23942882664E+02 -0.57357702405E+02  0.55246383711E+02  0.83158466608E+02  0.00000000000E+00 0. -1.
         -5    1    5    5    0  502 -0.10275598933E+02 -0.10443009875E+02  0.43923880404E+02  0.46540752663E+02  0.47000000000E+01 0.  1.
         13    1    6    6    0    0 -0.15730275453E+02  0.48871952084E+02 -0.79932499729E+02  0.95000598836E+02  0.00000000000E+00 0. -1.
        -14    1    6    6    0    0  0.22767574273E+02  0.59161151079E+02 -0.43485816291E+01  0.63539864632E+02  0.00000000000E+00 0.  1.
</event>
<event>
12    1  0.1039610E+000  0.2401668E+03  0.7818608E-02  0.1120175E+00
         21   -1    0    0  503  502  0.00000000000E+00  0.00000000000E+00  0.96926290469E+02  0.96926290469E+02  0.00000000000E+00 0. -1.
         21   -1    0    0  501  503 -0.00000000000E+00 -0.00000000000E+00 -0.68445087952E+03  0.68445087952E+03  0.00000000000E+00 0. -1.
          6    2    1    2  501    0 -0.16034733768E+03 -0.35156475495E+02 -0.14852375037E+03  0.28238161307E+03  0.17530779933E+03 0.  0.
         24    2    3    3    0    0 -0.14564756118E+03 -0.79750476418E+02 -0.83744810962E+02  0.20223730985E+03  0.79456815721E+02 0.  0.
         -6    2    1    2    0  502  0.16034733768E+03  0.35156475495E+02 -0.43900083868E+03  0.49899555692E+03  0.17125297953E+03 0.  0.
        -24    2    5    5    0    0  0.15026130449E+03 -0.27222676435E+02 -0.34141315139E+03  0.38264121290E+03  0.80819701387E+02 0.  0.
          5    1    3    3  501    0 -0.14699776492E+02  0.44594000923E+02 -0.64778939412E+02  0.80144303220E+02  0.47000000000E+01 0. -1.
        -13    1    4    4    0    0 -0.45997846262E+02 -0.23340864303E+02 -0.69935110375E+02  0.86899467606E+02  0.00000000000E+00 0.  1.
         14    1    4    4    0    0 -0.99649714922E+02 -0.56409612116E+02 -0.13809700587E+02  0.11533784224E+03  0.00000000000E+00 0. -1.
         -5    1    5    5    0  502  0.10086033189E+02  0.62379151931E+02 -0.97587687294E+02  0.11635434402E+03  0.47000000000E+01 0.  1.
         13    1    6    6    0    0  0.35315318594E+02 -0.19647237472E+02 -0.29210183380E+02  0.49864019902E+02  0.00000000000E+00 0. -1.
        -14    1    6    6    0    0  0.11494598589E+03 -0.75754389636E+01 -0.31220296801E+03  0.33277719300E+03  0.00000000000E+00 0.  1.
</event>
<event>
12    1  0.1039610E+000  0.2202312E+03  0.7818608E-02  0.1134350E+00
         21   -1    0    0  501  502  0.00000000000E+00  0.00000000000E+00  0.21848092767E+03  0.21848092767E+03  0.00000000000E+00 0.  1.
         21   -1    0    0  502  503 -0.00000000000E+00 -0.00000000000E+00 -0.64504366325E+03  0.64504366325E+03  0.00000000000E+00 0.  1.
         -6    2    1    2    0  503  0.11599064244E+03  0.72838676261E+02  0.13834715400E+03  0.25720374888E+03  0.16809084308E+03 0.  0.
        -24    2    3    3    0    0  0.12773724490E+03  0.10052907207E+03  0.13512292643E+03  0.22658959640E+03  0.81619494501E+02 0.  0.
          6    2    1    2  501    0 -0.11599064244E+03 -0.72838676261E+02 -0.56490988957E+03  0.60632084203E+03  0.17246007728E+03 0.  0.
         24    2    5    5    0    0 -0.68035517477E+02 -0.50847874034E+02 -0.53071037543E+03  0.54327335072E+03  0.79234418559E+02 0.  0.
          5    1    5    5  501    0 -0.47955124967E+02 -0.21990802226E+02 -0.34199514141E+02  0.63047491311E+02  0.47000000000E+01 0. -1.
        -11    1    6    6    0    0  0.28690621480E+01 -0.48162333363E+01 -0.25111503043E+03  0.25117759878E+03  0.00000000000E+00 0.  1.
         12    1    6    6    0    0 -0.70904579625E+02 -0.46031640698E+02 -0.27959534500E+03  0.29209575194E+03  0.00000000000E+00 0. -1.
         -5    1    3    3    0  503 -0.11746602453E+02 -0.27690395807E+02  0.32242275641E+01  0.30614152488E+02  0.47000000000E+01 0.  1.
         13    1    4    4    0    0  0.63032364389E+02  0.92727703750E+02  0.10900841875E+03  0.15637883924E+03  0.00000000000E+00 0. -1.
        -14    1    4    4    0    0  0.64704880508E+02  0.78013683179E+01  0.26114507683E+02  0.70210757158E+02  0.00000000000E+00 0.  1.
</event>
<event>
12    1  0.1039610E+000  0.1742776E+03  0.7818608E-02  0.1173596E+00
         21   -1    0    0  503  502  0.00000000000E+00  0.00000000000E+00  0.78174240069E+03  0.78174240069E+03  0.00000000000E+00 0. -1.
         21   -1    0    0  501  503 -0.00000000000E+00 -0.00000000000E+00 -0.47419846598E+02  0.47419846598E+02  0.00000000000E+00 0. -1.
          6    2    1    2  501    0 -0.14821137948E+02  0.13023725747E+02  0.18923612737E+03  0.25689317727E+03  0.17261086021E+03 0.  0.
         24    2    3    3    0    0 -0.16122753100E+02 -0.56282013346E+01  0.21187240804E+03  0.22715969802E+03  0.80124848193E+02 0.  0.
         -6    2    1    2    0  502  0.14821137948E+02 -0.13023725747E+02  0.54508642672E+03  0.57226907002E+03  0.17315713195E+03 0.  0.
        -24    2    5    5    0    0  0.49305870971E+02  0.44761238849E+02  0.30250646719E+03  0.32048458735E+03  0.82253088849E+02 0.  0.
          5    1    3    3  501    0  0.13016151523E+01  0.18651927081E+02 -0.22636280667E+02  0.29733479249E+02  0.47000000000E+01 0. -1.
        -11    1    4    4    0    0 -0.46146569627E+02 -0.16818263646E+02  0.14297645733E+03  0.15117746933E+03  0.00000000000E+00 0.  1.
         12    1    4    4    0    0  0.30023816527E+02  0.11190062311E+02  0.68895950705E+02  0.75982228691E+02  0.00000000000E+00 0. -1.
         -5    1    5    5    0  502 -0.34484733023E+02 -0.57784964596E+02  0.24257995954E+03  0.25178448267E+03  0.47000000000E+01 0.  1.
         13    1    6    6    0    0  0.94125332720E+01  0.11620975511E+02  0.23441403569E+03  0.23489057661E+03  0.00000000000E+00 0. -1.
        -14    1    6    6    0    0  0.39893337699E+02  0.33140263338E+02  0.68092431496E+02  0.85594010736E+02  0.00000000000E+00 0.  1.
</event>
<event>
12    1  0.1039610E+000  0.2490198E+03  0.7818608E-02  0.1114034E+00
         21   -1    0    0  503  502  0.00000000000E+00  0.00000000000E+00  0.76975214931E+03  0.76975214931E+03  0.00000000000E+00 0. -1.
         21   -1    0    0  501  503 -0.00000000000E+00 -0.00000000000E+00 -0.87895849046E+02  0.87895849046E+02  0.00000000000E+00 0. -1.
          6    2    1    2  501    0 -0.16291149725E+03 -0.74140543925E+02  0.46623769546E+03  0.52825119784E+03  0.17214750409E+03 0.  0.
         24    2    3    3    0    0 -0.13163170742E+03  0.15520678196E+02  0.29291191523E+03  0.33056084376E+03  0.76845842397E+02 0.  0.
         -6    2    1    2    0  502  0.16291149725E+03  0.74140543925E+02  0.21561860481E+03  0.32939680052E+03  0.17312970070E+03 0.  0.
        -24    2    5    5    0    0  0.76223756659E+02  0.61119596607E+02  0.20536170984E+03  0.24101352534E+03  0.79802389422E+02 0.  0.
          5    1    3    3  501    0 -0.31279789822E+02 -0.89661222121E+02  0.17332578023E+03  0.19769035407E+03  0.47000000000E+01 0. -1.
        -13    1    4    4    0    0 -0.13161176322E+03 -0.43942938249E+00  0.28207693072E+03  0.31127037147E+03  0.00000000000E+00 0.  1.
         14    1    4    4    0    0 -0.19944206602E-01  0.15960107579E+02  0.10834984516E+02  0.19290472289E+02  0.00000000000E+00 0. -1.
         -5    1    5    5    0  502  0.86687740587E+02  0.13020947318E+02  0.10256894963E+02  0.88383275179E+02  0.47000000000E+01 0.  1.
         11    1    6    6    0    0 -0.25127094537E+01  0.33848374731E+02  0.24438378375E+02  0.41824161896E+02  0.00000000000E+00 0. -1.
        -12    1    6    6    0    0  0.78736466112E+02  0.27271221876E+02  0.18092333147E+03  0.19918936344E+03  0.00000000000E+00 0.  1.
</event>
<event>
12    1  0.1039610E+000  0.2815937E+03  0.7818608E-02  0.1095073E+00
         21   -1    0    0  501  502  0.00000000000E+00  0.00000000000E+00  0.23588876310E+03  0.23588876310E+03  0.00000000000E+00 0.  1.
         21   -1    0    0  502  503 -0.00000000000E+00 -0.00000000000E+00 -0.50227374007E+03  0.50227374007E+03  0.00000000000E+00 0.  1.
         -6    2    1    2    0  503  0.17980813161E+03  0.12756726099E+03 -0.34655797693E+03  0.44537811502E+03  0.17220587591E+03 0.  0.
        -24    2    3    3    0    0  0.10066323435E+03  0.12132526665E+03 -0.15049706472E+03  0.23380106393E+03  0.84620706255E+02 0.  0.
          6    2    1    2  501    0 -0.17980813161E+03 -0.12756726099E+03  0.80172999955E+02  0.29278438815E+03  0.17518737897E+03 0.  0.
         24    2    5    5    0    0 -0.54628771188E+02 -0.68284964874E+02  0.98341712186E+02  0.15301151878E+03  0.78065955788E+02 0.  0.
          5    1    5    5  501    0 -0.12517936042E+03 -0.59282296121E+02 -0.18168712231E+02  0.13977286937E+03  0.47000000000E+01 0. -1.
        -13    1    6    6    0    0 -0.66435927385E+02 -0.73770219651E+02  0.98695267315E+02  0.13998761926E+03  0.00000000000E+00 0.  1.
         14    1    6    6    0    0  0.11807156197E+02  0.54852547779E+01 -0.35355512951E+00  0.13023899518E+02  0.00000000000E+00 0. -1.
         -5    1    3    3    0  503  0.79144897260E+02  0.62419943487E+01 -0.19606091220E+03  0.21157705109E+03  0.47000000000E+01 0.  1.
         13    1    4    4    0    0  0.70698543922E+02  0.12818370825E+03 -0.13600484063E+03  0.19981657552E+03  0.00000000000E+00 0. -1.
        -14    1    4    4    0    0  0.29964690426E+02 -0.68584416085E+01 -0.14492224090E+02  0.33984488413E+02  0.00000000000E+00 0.  1.
</event>
<event>
12    1  0.1039610E+000  0.3463872E+03  0.7818608E-02  0.1064357E+00
         21   -1    0    0  501  502  0.00000000000E+00  0.00000000000E+00  0.45164825393E+03  0.45164825393E+03  0.00000000000E+00 0. -1.
         21   -1    0    0  502  503 -0.00000000000E+00 -0.00000000000E+00 -0.27609376741E+03  0.27609376741E+03  0.00000000000E+00 0. -1.
         -6    2    1    2    0  503 -0.22354525110E+03  0.20001340055E+03  0.10805348661E+02  0.34417147294E+03  0.16840251643E+03 0.  0.
        -24    2    3    3    0    0 -0.16506772615E+03  0.11209392616E+03  0.65606368524E+02  0.22511393778E+03  0.80991894008E+02 0.  0.
          6    2    1    2  501    0  0.22354525110E+03 -0.20001340055E+03  0.16474913786E+03  0.38357054840E+03  0.17322311475E+03 0.  0.
         24    2    5    5    0    0  0.15127489845E+03 -0.20096943999E+03  0.88290956693E+02  0.27825264227E+03  0.79727217351E+02 0.  0.
          5    1    5    5  501    0  0.72270352647E+02  0.95603944257E+00  0.76458181168E+02  0.10531790612E+03  0.47000000000E+01 0. -1.
        -11    1    6    6    0    0  0.13344339305E+03 -0.11526140428E+03  0.58916960560E+02  0.18591271798E+03  0.00000000000E+00 0.  1.
         12    1    6    6    0    0  0.17831505406E+02 -0.85708035706E+02  0.29373996132E+02  0.92339924293E+02  0.00000000000E+00 0. -1.
         -5    1    3    3    0  503 -0.58477524950E+02  0.87919474386E+02 -0.54801019863E+02  0.11905753516E+03  0.47000000000E+01 0.  1.
         13    1    4    4    0    0 -0.93860741035E+02  0.77480544156E+02  0.78597131952E+02  0.14488127064E+03  0.00000000000E+00 0. -1.
        -14    1    4    4    0    0 -0.71206985113E+02  0.34613382005E+02 -0.12990763428E+02  0.80232667145E+02  0.00000000000E+00 0.  1.
</event>
<event>
12    1  0.1039610E+000  0.2628591E+03  0.7818608E-02  0.1105512E+00
         21   -1    0    0  501  502  0.00000000000E+00  0.00000000000E+00  0.12133956188E+04  0.12133956188E+04  0.00000000000E+00 0.  1.
         21   -1    0    0  502  503 -0.00000000000E+00 -0.00000000000E+00 -0.81997290683E+02  0.81997290683E+02  0.00000000000E+00 0. -1.
         -6    2    1    2    0  503  0.53932065062E+02  0.19016833840E+03  0.92487556225E+03  0.96150388534E+03  0.17326930282E+03 0.  0.
        -24    2    3    3    0    0 -0.28101926776E+02  0.12132822076E+03  0.64604085041E+03  0.66277420127E+03  0.79941266160E+02 0.  0.
          6    2    1    2  501    0 -0.53932065062E+02 -0.19016833840E+03  0.20652276590E+03  0.33388902418E+03  0.17250380593E+03 0.  0.
         24    2    5    5    0    0 -0.50937280377E+02 -0.82344367896E+02  0.32991105813E+02  0.12951117703E+03  0.79432552881E+02 0.  0.
          5    1    5    5  501    0 -0.29947846844E+01 -0.10782397051E+03  0.17353166009E+03  0.20437784715E+03  0.47000000000E+01 0. -1.
        -11    1    6    6    0    0  0.10705406098E+02 -0.15108929258E+02  0.33518509710E+02  0.38293288658E+02  0.00000000000E+00 0.  1.
         12    1    6    6    0    0 -0.61642686475E+02 -0.67235438638E+02 -0.52740389776E+00  0.91217888374E+02  0.00000000000E+00 0. -1.
         -5    1    3    3    0  503  0.82033991838E+02  0.68840117646E+02  0.27883471184E+03  0.29872968407E+03  0.47000000000E+01 0.  1.
         11    1    4    4    0    0 -0.12824270630E+02  0.33063867531E+02  0.58245492583E+02  0.68192511755E+02  0.00000000000E+00 0. -1.
        -12    1    4    4    0    0 -0.15277656146E+02  0.88264353226E+02  0.58779535782E+03  0.59458168951E+03  0.00000000000E+00 0.  1.
</event>
<event>
12    1  0.1039610E+000  0.1940242E+03  0.7818608E-02  0.1155307E+00
         21   -1    0    0  501  502  0.00000000000E+00  0.00000000000E+00  0.14422766913E+03  0.14422766913E+03  0.00000000000E+00 0.  1.
         21   -1    0    0  502  503 -0.00000000000E+00 -0.00000000000E+00 -0.27448759965E+03  0.27448759965E+03  0.00000000000E+00 0. -1.
         -6    2    1    2    0  503 -0.75227709503E+02 -0.47991621399E+02 -0.11547259898E+03  0.22412837769E+03  0.17010939001E+03 0.  0.
        -24    2    3    3    0    0 -0.11537441638E+03 -0.44258911177E+02 -0.10853803243E+03  0.18294744263E+03  0.80119629980E+02 0.  0.
          6    2    1    2  501    0  0.75227709503E+02  0.47991621399E+02 -0.14787331541E+02  0.19458689109E+03  0.17228751844E+03 0.  0.
         24    2    5    5    0    0  0.21372633650E+02  0.63239595399E+02 -0.61179760255E+02  0.12173624011E+03  0.81367765091E+02 0.  0.
          5    1    5    5  501    0  0.53855075854E+02 -0.15247974000E+02  0.46392428714E+02  0.72850650981E+02  0.47000000000E+01 0. -1.
        -13    1    6    6    0    0  0.65186594297E+01  0.23017742998E+02  0.19173876307E+02  0.30658554208E+02  0.00000000000E+00 0.  1.
         14    1    6    6    0    0  0.14853974220E+02  0.40221852401E+02 -0.80353636561E+02  0.91077685902E+02  0.00000000000E+00 0. -1.
         -5    1    3    3    0  503  0.40146706879E+02 -0.37327102218E+01 -0.69345665480E+01  0.41180935056E+02  0.47000000000E+01 0.  1.
         13    1    4    4    0    0 -0.10076567397E+02  0.17893199168E+02 -0.34078659206E+02  0.39787671460E+02  0.00000000000E+00 0. -1.
        -14    1    4    4    0    0 -0.10529784899E+03 -0.62152110346E+02 -0.74459373222E+02  0.14315977117E+03  0.00000000000E+00 0.  1.
</event>
<event>
12    1  0.1039610E+000  0.2052614E+03  0.7818608E-02  0.1145514E+00
         21   -1    0    0  503  502  0.00000000000E+00  0.00000000000E+00  0.55139964330E+02  0.55139964330E+02  0.00000000000E+00 0. -1.
         21   -1    0    0  501  503 -0.00000000000E+00 -0.00000000000E+00 -0.90529862084E+03  0.90529862084E+03  0.00000000000E+00 0. -1.
          6    2    1    2  501    0 -0.20027173289E+02 -0.11000001036E+03 -0.23312005936E+03  0.31015489390E+03  0.17131843504E+03 0.  0.
         24    2    3    3    0    0 -0.95883299044E+01 -0.12998743226E+03 -0.11111288446E+03  0.18599247119E+03  0.72515223431E+02 0.  0.
         -6    2    1    2    0  502  0.20027173289E+02  0.11000001036E+03 -0.61703859715E+03  0.65028369128E+03  0.17213703499E+03 0.  0.
        -24    2    5    5    0    0 -0.17096120941E+02  0.69275353248E+02 -0.56084990338E+03  0.57144273758E+03  0.83083309385E+02 0.  0.
          5    1    3    3  501    0 -0.10438843384E+02  0.19987421903E+02 -0.12200717490E+03  0.12416242271E+03  0.47000000000E+01 0. -1.
        -13    1    4    4    0    0  0.15728443878E+02 -0.33161517453E+02 -0.67476042654E+02  0.76812020666E+02  0.00000000000E+00 0.  1.
         14    1    4    4    0    0 -0.25316773782E+02 -0.96825914809E+02 -0.43636841805E+02  0.10918045052E+03  0.00000000000E+00 0. -1.
         -5    1    5    5    0  502  0.37123294230E+02  0.40724657111E+02 -0.56188693774E+02  0.78840953694E+02  0.47000000000E+01 0.  1.
         13    1    6    6    0    0  0.16054907023E+02  0.64161207341E+02 -0.24341558174E+03  0.25224108706E+03  0.00000000000E+00 0. -1.
        -14    1    6    6    0    0 -0.33151027964E+02  0.51141459072E+01 -0.31743432164E+03  0.31920165052E+03  0.00000000000E+00 0.  1.
</event>
<event>
12    1  0.1039610E+000  0.1965596E+03  0.7818608E-02  0.1152676E+00
         21   -1    0    0  501  502  0.00000000000E+00  0.00000000000E+00  0.34178581741E+03  0.34178581741E+03  0.00000000000E+00 0.  1.
         21   -1    0    0  502  503 -0.00000000000E+00 -0.00000000000E+00 -0.14572186577E+03  0.14572186577E+03  0.00000000000E+00 0.  1.
         -6    2    1    2    0  503 -0.91865450495E+02  0.28412229981E+02  0.21347501205E+03  0.29018487270E+03  0.17143267999E+03 0.  0.
        -24    2    3    3    0    0  0.29663458022E+01 -0.27158636916E+02  0.72334989370E+02  0.11123296062E+03  0.79962679257E+02 0.  0.
          6    2    1    2  501    0  0.91865450495E+02 -0.28412229981E+02 -0.17411060415E+02  0.19732281047E+03  0.17142529189E+03 0.  0.
         24    2    5    5    0    0  0.97665575257E+01 -0.60568580985E+02 -0.24264304235E+01  0.10776339850E+03  0.88561412837E+02 0.  0.
          5    1    5    5  501    0  0.82098892970E+02  0.32156351004E+02 -0.14984629991E+02  0.89559411972E+02  0.47000000000E+01 0. -1.
        -13    1    6    6    0    0  0.17539046256E+02 -0.81849386989E+02 -0.89566211121E+01  0.84185279924E+02  0.00000000000E+00 0.  1.
         14    1    6    6    0    0 -0.77724887305E+01  0.21280806004E+02  0.65301906885E+01  0.23578118578E+02  0.00000000000E+00 0. -1.
         -5    1    3    3    0  503 -0.94831796297E+02  0.55570866897E+02  0.14114002268E+03  0.17895191209E+03  0.47000000000E+01 0.  1.
         13    1    4    4    0    0  0.23982941153E+02  0.42241722522E+01 -0.52780137553E+01  0.24917514458E+02  0.00000000000E+00 0. -1.
        -14    1    4    4    0    0 -0.21016595351E+02 -0.31382809168E+02  0.77613003125E+02  0.86315446158E+02  0.00000000000E+00 0.  1.
</event>
<event>
12    1  0.1039610E+000  0.3951782E+03  0.7818608E-02  0.1045704E+00
         21   -1    0    0  501  502  0.00000000000E+00  0.00000000000E+00  0.13511896998E+04  0.13511896998E+04  0.00000000000E+00 0. -1.
         21   -1    0    0  502  503 -0.00000000000E+00 -0.00000000000E+00 -0.31037397768E+03  0.31037397768E+03  0.00000000000E+00 0. -1.
         -6    2    1    2    0  503 -0.17407203338E+03 -0.31164857851E+03 -0.13843888823E+03  0.41872564275E+03  0.16952854872E+03 0.  0.
        -24    2    3    3    0    0 -0.64649748518E+02 -0.24757954107E+03 -0.10027836840E+03  0.28622510216E+03  0.79961483223E+02 0.  0.
          6    2    1    2  501    0  0.17407203338E+03  0.31164857851E+03  0.11792546103E+04  0.12428380347E+04  0.16303078004E+03 0.  0.
         24    2    5    5    0    0  0.18561287340E+03  0.31806509564E+03  0.11117863896E+04  0.11739293017E+04  0.80146649197E+02 0.  0.
          5    1    5    5  501    0 -0.11540840027E+02 -0.64165171309E+01  0.67468220720E+02  0.68908733029E+02  0.47000000000E+01 0. -1.
        -11    1    6    6    0    0  0.13018004198E+03  0.19186802698E+03  0.80240254869E+03  0.83523052701E+03  0.00000000000E+00 0.  1.
         12    1    6    6    0    0  0.55432831429E+02  0.12619706865E+03  0.30938384090E+03  0.33869877464E+03  0.00000000000E+00 0. -1.
         -5    1    3    3    0  503 -0.10942228486E+03 -0.64069037436E+02 -0.38160519833E+02  0.13250054059E+03  0.47000000000E+01 0.  1.
         11    1    4    4    0    0 -0.18423631427E+02 -0.68861587007E+01  0.36573856207E+01  0.20005645358E+02  0.00000000000E+00 0. -1.
        -12    1    4    4    0    0 -0.46226117091E+02 -0.24069338237E+03 -0.10393575402E+03  0.26621945680E+03  0.00000000000E+00 0.  1.
</event>
<event>
12    1  0.1039610E+000  0.2191687E+03  0.7818608E-02  0.1137049E+00
         21   -1    0    0  501  502  0.00000000000E+00  0.00000000000E+00  0.13174841931E+04  0.13174841931E+04  0.00000000000E+00 0. -1.
         21   -1    0    0  502  503 -0.00000000000E+00 -0.00000000000E+00 -0.37131515697E+02  0.37131515697E+02  0.00000000000E+00 0. -1.
         -6    2    1    2    0  503  0.92966358173E+02  0.10322234250E+03  0.47169008770E+03  0.52012157745E+03  0.16952085641E+03 0.  0.
        -24    2    3    3    0    0  0.60300566594E+02  0.24415313729E+02  0.11830258390E+03  0.15655257497E+03  0.79252391117E+02 0.  0.
          6    2    1    2  501    0 -0.92966358173E+02 -0.10322234250E+03  0.80866258972E+03  0.83449413136E+03  0.15214360163E+03 0.  0.
         24    2    5    5    0    0 -0.11845773803E+03 -0.91014341223E+02  0.59080668997E+03  0.61476218375E+03  0.81019452326E+02 0.  0.
          5    1    5    5  501    0  0.25491379852E+02 -0.12208001274E+02  0.21785589976E+03  0.21973194761E+03  0.47000000000E+01 0. -1.
        -11    1    6    6    0    0 -0.47225034063E+02 -0.44628803335E+02  0.40821095980E+03  0.41334987799E+03  0.00000000000E+00 0.  1.
         12    1    6    6    0    0 -0.71232703962E+02 -0.46385537888E+02  0.18259573016E+03  0.20141230576E+03  0.00000000000E+00 0. -1.
         -5    1    3    3    0  503  0.32665791578E+02  0.78807028768E+02  0.35338750380E+03  0.36356900248E+03  0.47000000000E+01 0.  1.
         13    1    4    4    0    0  0.65962949836E+02 -0.61801479619E+01  0.10144978555E+03  0.12116667846E+03  0.00000000000E+00 0. -1.
        -14    1    4    4    0    0 -0.56623832412E+01  0.30595461691E+02  0.16852798343E+02  0.35385896513E+02  0.00000000000E+00 0.  1.
</event>
<event>
12    1  0.1039610E+000  0.2896354E+03  0.7818608E-02  0.1090638E+00
         21   -1    0    0  503  502  0.00000000000E+00  0.00000000000E+00  0.95311081114E+03  0.95311081114E+03  0.00000000000E+00 0.  1.
         21   -1    0    0  501  503 -0.00000000000E+00 -0.00000000000E+00 -0.10738506244E+03  0.10738506244E+03  0.00000000000E+00 0. -1.
          6    2    1    2  501    0 -0.93780922442E+02 -0.21337185716E+03  0.19678999561E+03  0.35016417871E+03  0.17194836097E+03 0.  0.
         24    2    3    3    0    0  0.11743032478E+02 -0.77576082454E+02  0.11625839780E+03  0.16020832664E+03  0.77425741755E+02 0.  0.
         -6    2    1    2    0  502  0.93780922442E+02  0.21337185716E+03  0.64893575309E+03  0.71033169487E+03  0.17067833564E+03 0.  0.
        -24    2    5    5    0    0  0.93647086858E+02  0.15836891241E+03  0.61142621680E+03  0.64359042461E+03  0.80722529483E+02 0.  0.
          5    1    3    3  501    0 -0.10552395492E+03 -0.13579577471E+03  0.80531597815E+02  0.18995585207E+03  0.47000000000E+01 0. -1.
        -11    1    4    4    0    0  0.25562052171E+02 -0.31605489688E+01  0.61836057943E+02  0.66985861515E+02  0.00000000000E+00 0.  1.
         12    1    4    4    0    0 -0.13819019693E+02 -0.74415533485E+02  0.54422339853E+02  0.93222465127E+02  0.00000000000E+00 0. -1.
         -5    1    5    5    0  502  0.13383558470E+00  0.55002944753E+02  0.37509536295E+02  0.66741270264E+02  0.47000000000E+01 0.  1.
         13    1    6    6    0    0  0.64446635088E+02  0.36071676417E+02  0.19165203316E+03  0.20538996185E+03  0.00000000000E+00 0. -1.
        -14    1    6    6    0    0  0.29200451770E+02  0.12229723599E+03  0.41977418364E+03  0.43820046276E+03  0.00000000000E+00 0.  1.
</event>
<event>
12    1  0.1039610E+000  0.1910487E+03  0.7818608E-02  0.1157891E+00
         21   -1    0    0  501  502  0.00000000000E+00  0.00000000000E+00  0.11111928144E+03  0.11111928144E+03  0.00000000000E+00 0. -1.
         21   -1    0    0  502  503 -0.00000000000E+00 -0.00000000000E+00 -0.61956591738E+03  0.61956591738E+03  0.00000000000E+00 0.  1.
         -6    2    1    2    0  503 -0.58976108355E+02 -0.57079393901E+02 -0.20020858527E+01  0.18940368299E+03  0.17068540716E+03 0.  0.
        -24    2    3    3    0    0 -0.10461224990E+03 -0.47535669200E+02  0.76243218519E+01  0.14156543656E+03  0.82336382407E+02 0.  0.
          6    2    1    2  501    0  0.58976108355E+02  0.57079393901E+02 -0.50644455009E+03  0.54128151582E+03  0.17252060309E+03 0.  0.
         24    2    5    5    0    0  0.92824434754E+01  0.61701837010E+02 -0.13856910851E+03  0.17000633778E+03  0.76206801574E+02 0.  0.
          5    1    5    5  501    0  0.49693664880E+02 -0.46224431094E+01 -0.36787544158E+03  0.37127517804E+03  0.47000000000E+01 0. -1.
        -13    1    6    6    0    0 -0.49435472318E+01  0.59549065096E+02 -0.14297468936E+03  0.15495899978E+03  0.00000000000E+00 0.  1.
         14    1    6    6    0    0  0.14225990707E+02  0.21527719137E+01  0.44055808520E+01  0.15047338009E+02  0.00000000000E+00 0. -1.
         -5    1    3    3    0  503  0.45636141548E+02 -0.95437247010E+01 -0.96264077045E+01  0.47838246434E+02  0.47000000000E+01 0.  1.
         13    1    4    4    0    0 -0.31091540152E+02 -0.47239212226E+02  0.30904702050E+02  0.64446316028E+02  0.00000000000E+00 0. -1.
        -14    1    4    4    0    0 -0.73520709751E+02 -0.29645697351E+00 -0.23280380198E+02  0.77119120529E+02  0.00000000000E+00 0.  1.
</event>
<event>
12    1  0.1039610E+000  0.2882290E+03  0.7818608E-02  0.1092487E+00
         21   -1    0    0  503  502  0.00000000000E+00  0.00000000000E+00  0.80017942619E+03  0.80017942619E+03  0.00000000000E+00 0. -1.
         21   -1    0    0  501  503 -0.00000000000E+00 -0.00000000000E+00 -0.10200345609E+03  0.10200345609E+03  0.00000000000E+00 0.  1.
          6    2    1    2  501    0  0.23095620996E+03  0.11880515791E+02  0.30149837290E+03  0.41710577176E+03  0.17202917891E+03 0.  0.
         24    2    3    3    0    0  0.78570285558E+02  0.20728386444E+02  0.51517326398E+02  0.12416828972E+03  0.78490594820E+02 0.  0.
         -6    2    1    2    0  502 -0.23095620996E+03 -0.11880515791E+02  0.39667759720E+03  0.48507711052E+03  0.15641217811E+03 0.  0.
        -24    2    5    5    0    0 -0.18859402612E+03 -0.53196291606E+02  0.25628976642E+03  0.33265538969E+03  0.81102477089E+02 0.  0.
          5    1    3    3  501    0  0.15238592440E+03 -0.88478706530E+01  0.24998104650E+03  0.29293748204E+03  0.47000000000E+01 0. -1.
        -11    1    4    4    0    0  0.13391671337E+01  0.20824593207E+02  0.41289045407E+02  0.46262753068E+02  0.00000000000E+00 0.  1.
         12    1    4    4    0    0  0.77231118424E+02 -0.96206762900E-01  0.10228280991E+02  0.77905536651E+02  0.00000000000E+00 0. -1.
         -5    1    5    5    0  502 -0.42362183838E+02  0.41315775816E+02  0.14038783078E+03  0.15242172084E+03  0.47000000000E+01 0.  1.
         13    1    6    6    0    0 -0.73531359914E+02 -0.41949450926E+02  0.16461835074E+03  0.18511028800E+03  0.00000000000E+00 0. -1.
        -14    1    6    6    0    0 -0.11506266621E+03 -0.11246840680E+02  0.91671415680E+02  0.14754510169E+03  0.00000000000E+00 0.  1.
</event>
<event>
12    1  0.1039610E+000  0.1767640E+03  0.7818608E-02  0.1171037E+00
         21   -1    0    0  501  502  0.00000000000E+00  0.00000000000E+00  0.12656909700E+04  0.12656909700E+04  0.00000000000E+00 0.  1.
         21   -1    0    0  502  503 -0.00000000000E+00 -0.00000000000E+00 -0.26032331051E+02  0.26032331051E+02  0.00000000000E+00 0.  1.
         -6    2    1    2    0  503 -0.28048111078E+02 -0.28315752968E+02  0.47057221791E+03  0.50258487937E+03  0.17194438140E+03 0.  0.
        -24    2    3    3    0    0  0.37267543442E+02 -0.16465025294E+02  0.14587353540E+03  0.17113669503E+03  0.79678812776E+02 0.  0.
          6    2    1    2  501    0  0.28048111078E+02  0.28315752968E+02  0.76908642108E+03  0.78913842173E+03  0.17221221546E+03 0.  0.
         24    2    5    5    0    0  0.49798470612E+02 -0.18209928043E+02  0.67387420339E+03  0.68085558130E+03  0.81525403646E+02 0.  0.
          5    1    5    5  501    0 -0.21750359534E+02  0.46525681010E+02  0.95212217692E+02  0.10828284043E+03  0.47000000000E+01 0. -1.
        -13    1    6    6    0    0 -0.20790025785E+02 -0.13892158175E+02  0.12800212007E+03  0.13042147053E+03  0.00000000000E+00 0.  1.
         14    1    6    6    0    0  0.70588496397E+02 -0.43177698678E+01  0.54587208332E+03  0.55043411078E+03  0.00000000000E+00 0. -1.
         -5    1    3    3    0  503 -0.65315654520E+02 -0.11850727674E+02  0.32469868251E+03  0.33144818433E+03  0.47000000000E+01 0.  1.
         13    1    4    4    0    0  0.78255960937E+01 -0.53700123779E+01 -0.90119334569E+01  0.13087854362E+02  0.00000000000E+00 0. -1.
        -14    1    4    4    0    0  0.29441947348E+02 -0.11095012916E+02  0.15488546885E+03  0.15804884067E+03  0.00000000000E+00 0.  1.
</event>
<event>
12    1  0.1039610E+000  0.1839585E+03  0.7818608E-02  0.1164100E+00
         21   -1    0    0  501  502  0.00000000000E+00  0.00000000000E+00  0.49411940614E+03  0.49411940614E+03  0.00000000000E+00 0. -1.
         21   -1    0    0  502  503 -0.00000000000E+00 -0.00000000000E+00 -0.73664895837E+02  0.73664895837E+02  0.00000000000E+00 0. -1.
         -6    2    1    2    0  503  0.36620003501E+02 -0.52659773197E+02  0.13427956190E+03  0.22775363516E+03  0.17241415608E+03 0.  0.
        -24    2    3    3    0    0  0.70900741867E+02 -0.80066257087E+02  0.75517751774E+02  0.15425992991E+03  0.81582316847E+02 0.  0.
          6    2    1    2  501    0 -0.36620003501E+02  0.52659773197E+02  0.28617494839E+03  0.34003066681E+03  0.17207753169E+03 0.  0.
         24    2    5    5    0    0  0.18954518193E+02 -0.19208739848E+02  0.84819728885E+02  0.11907903171E+03  0.79102338387E+02 0.  0.
          5    1    5    5  501    0 -0.55574521694E+02  0.71868513046E+02  0.20135521951E+03  0.22095163510E+03  0.47000000000E+01 0. -1.
        -11    1    6    6    0    0 -0.52359837923E+01 -0.37012436052E+02  0.10360731831E+02  0.38790214138E+02  0.00000000000E+00 0.  1.
         12    1    6    6    0    0  0.24190501985E+02  0.17803696204E+02  0.74458997054E+02  0.80288817572E+02  0.00000000000E+00 0. -1.
         -5    1    3    3    0  503 -0.34280738366E+02  0.27406483890E+02  0.58761810130E+02  0.73493705253E+02  0.47000000000E+01 0.  1.
         13    1    4    4    0    0 -0.10907546177E+01  0.12458248121E+02 -0.33747151427E+01  0.12953238752E+02  0.00000000000E+00 0. -1.
        -14    1    4    4    0    0  0.71991496485E+02 -0.92524505208E+02  0.78892466917E+02  0.14130669116E+03  0.00000000000E+00 0.  1.
</event>
<event>
12    1  0.1039610E+000  0.1802574E+03  0.7818608E-02  0.1167976E+00
         21   -1    0    0  503  502  0.00000000000E+00  0.00000000000E+00  0.10928862953E+04  0.10928862953E+04  0.00000000000E+00 0.  1.
         21   -1    0    0  501  503 -0.00000000000E+00 -0.00000000000E+00 -0.29595959264E+02  0.29595959264E+02  0.00000000000E+00 0.  1.
          6    2    1    2  501    0 -0.15726249841E+02 -0.48606682396E+02  0.49414376423E+03  0.52599503479E+03  0.17286640041E+03 0.  0.
         24    2    3    3    0    0  0.20461172621E+02  0.26374225821E+02  0.16568897142E+03  0.18711997365E+03  0.80291904428E+02 0.  0.
         -6    2    1    2    0  502  0.15726249841E+02  0.48606682396E+02  0.56914657181E+03  0.59648721978E+03  0.17105337953E+03 0.  0.
        -24    2    5    5    0    0  0.57548322562E+02  0.78821276522E+02  0.37193959246E+03  0.39258849451E+03  0.79133194767E+02 0.  0.
          5    1    3    3  501    0 -0.36187422462E+02 -0.74980908216E+02  0.32845479282E+03  0.33887506114E+03  0.47000000000E+01 0. -1.
        -13    1    4    4    0    0  0.49031395540E+02  0.57005439595E+01  0.11713065737E+03  0.12710690322E+03  0.00000000000E+00 0.  1.
         14    1    4    4    0    0 -0.28570222919E+02  0.20673681861E+02  0.48558314044E+02  0.60013070427E+02  0.00000000000E+00 0. -1.
         -5    1    5    5    0  502 -0.41822072722E+02 -0.30214594126E+02  0.19720697934E+03  0.20389872527E+03  0.47000000000E+01 0.  1.
         13    1    6    6    0    0  0.11140586888E+02  0.78447760235E+02  0.23527046325E+03  0.24825461655E+03  0.00000000000E+00 0. -1.
        -14    1    6    6    0    0  0.46407735675E+02  0.37351628709E+00  0.13666912922E+03  0.14433387796E+03  0.00000000000E+00 0.  1.
</event>
<event>
12    1  0.1039610E+000  0.1895930E+03  0.7818608E-02  0.1158898E+00
         21   -1    0    0  501  502  0.00000000000E+00  0.00000000000E+00  0.31938712446E+03  0.31938712446E+03  0.00000000000E+00 0. -1.
         21   -1    0    0  502  503 -0.00000000000E+00 -0.00000000000E+00 -0.14057564726E+03  0.14057564726E+03  0.00000000000E+00 0. -1.
         -6    2    1    2    0  503  0.37943643462E+02  0.69657940362E+02 -0.13680961156E+02  0.18977979633E+03  0.17186405576E+03 0.  0.
        -24    2    3    3    0    0 -0.42903272616E+02  0.17601240966E+02 -0.95890031150E+01  0.93421309872E+02  0.80530104140E+02 0.  0.
          6    2    1    2  501    0 -0.37943643462E+02 -0.69657940362E+02  0.19249243835E+03  0.27018297540E+03  0.17220206920E+03 0.  0.
         24    2    5    5    0    0 -0.16945663519E+02 -0.10921706167E+03  0.10091596017E+03  0.16813308272E+03  0.76610576399E+02 0.  0.
          5    1    5    5  501    0 -0.20997979943E+02  0.39559121305E+02  0.91576478177E+02  0.10204989268E+03  0.47000000000E+01 0. -1.
        -11    1    6    6    0    0  0.60523663579E+01 -0.48733577864E+02  0.10297936216E+01  0.49118766525E+02  0.00000000000E+00 0.  1.
         12    1    6    6    0    0 -0.22998029877E+02 -0.60483483802E+02  0.99886166553E+02  0.11901431620E+03  0.00000000000E+00 0. -1.
         -5    1    3    3    0  503  0.80846916077E+02  0.52056699396E+02 -0.40919580413E+01  0.96358486454E+02  0.47000000000E+01 0.  1.
         13    1    4    4    0    0 -0.17928687780E+02  0.34382034223E+02 -0.36353049758E+02  0.53151729507E+02  0.00000000000E+00 0. -1.
        -14    1    4    4    0    0 -0.24974584835E+02 -0.16780793257E+02  0.26764046643E+02  0.40269580365E+02  0.00000000000E+00 0.  1.
</event>
<event>
12    1  0.1039610E+000  0.2317934E+03  0.7818608E-02  0.1125920E+00
         21   -1    0    0  503  502  0.00000000000E+00  0.00000000000E+00  0.91088783234E+02  0.91088783234E+02  0.00000000000E+00 0.  1.
         21   -1    0    0  501  503 -0.00000000000E+00 -0.00000000000E+00 -0.10467360340E+04  0.10467360340E+04  0.00000000000E+00 0.  1.
          6    2    1    2  501    0  0.14865469157E+03 -0.42057848159E+02 -0.97024709097E+02  0.24846501443E+03  0.16868310318E+03 0.  0.
         24    2    3    3    0    0  0.65049534261E+02 -0.71730063848E+02 -0.98972569387E+02  0.15960474843E+03  0.79381750191E+02 0.  0.
         -6    2    1    2    0  502 -0.14865469157E+03  0.42057848159E+02 -0.85862254164E+03  0.88935980278E+03  0.17280367435E+03 0.  0.
        -24    2    5    5    0    0 -0.12323028549E+03  0.64138728436E+02 -0.82810837558E+03  0.84367424676E+03  0.81995568122E+02 0.  0.
          5    1    3    3  501    0  0.83605157311E+02  0.29672215689E+02  0.19478602902E+01  0.88860265995E+02  0.47000000000E+01 0. -1.
        -11    1    4    4    0    0  0.75134391065E+02 -0.70304697396E+02 -0.10560853111E+03  0.14744859796E+03  0.00000000000E+00 0.  1.
         12    1    4    4    0    0 -0.10084856804E+02 -0.14253664519E+01  0.66359617246E+01  0.12156150471E+02  0.00000000000E+00 0. -1.
         -5    1    5    5    0  502 -0.25424406087E+02 -0.22080880277E+02 -0.30514166062E+02  0.45685556023E+02  0.47000000000E+01 0.  1.
         13    1    6    6    0    0 -0.37152012439E+02  0.84106355842E+01 -0.45926509059E+03  0.46084209254E+03  0.00000000000E+00 0. -1.
        -14    1    6    6    0    0 -0.86078273047E+02  0.55728092852E+02 -0.36884328499E+03  0.38283215422E+03  0.00000000000E+00 0.  1.
</event>
<event>
12    1  0.1039610E+000  0.1915293E+03  0.7818608E-02  0.1157624E+00
         21   -1    0    0  501  502  0.00000000000E+00  0.00000000000E+00  0.51420775961E+03  0.51420775961E+03  0.00000000000E+00 0.  1.
         21   -1    0    0  502  503 -0.00000000000E+00 -0.00000000000E+00 -0.98055698690E+02  0.98055698690E+02  0.00000000000E+00 0.  1.
         -6    2    1    2    0  503  0.75932951012E+02 -0.19687703736E+02  0.36955388210E+03  0.41514707405E+03  0.17211508529E+03 0.  0.
        -24    2    3    3    0    0  0.49668080111E+02 -0.46109089872E+02  0.36187179949E+03  0.37681904929E+03  0.80302118809E+02 0.  0.
          6    2    1    2  501    0 -0.75932951012E+02  0.19687703736E+02  0.46598178820E+02  0.19711638426E+03  0.17472853214E+03 0.  0.
         24    2    5    5    0    0 -0.11738746671E+03  0.36532021949E+02  0.38871358975E+02  0.15146551709E+03  0.79475872764E+02 0.  0.
          5    1    5    5  501    0  0.41454515698E+02 -0.16844318212E+02  0.77268198453E+01  0.45650867163E+02  0.47000000000E+01 0. -1.
        -11    1    6    6    0    0 -0.56003964194E+02 -0.18855931066E+02  0.35034387521E+02  0.68697878066E+02  0.00000000000E+00 0.  1.
         12    1    6    6    0    0 -0.61383502516E+02  0.55387953014E+02  0.38369714539E+01  0.82767639027E+02  0.00000000000E+00 0. -1.
         -5    1    3    3    0  503  0.26264870900E+02  0.26421386136E+02  0.76820826075E+01  0.38328024759E+02  0.47000000000E+01 0.  1.
         13    1    4    4    0    0  0.47823125708E+01 -0.80021520693E+01  0.25193570698E+03  0.25210812244E+03  0.00000000000E+00 0. -1.
        -14    1    4    4    0    0  0.44885767541E+02 -0.38106937803E+02  0.10993609252E+03  0.12471092684E+03  0.00000000000E+00 0.  1.
</event>
<event>
12    1  0.1039610E+000  0.1741936E+03  0.7818608E-02  0.1173618E+00
         21   -1    0    0  501  502  0.00000000000E+00  0.00000000000E+00  0.74830758033E+02  0.74830758033E+02  0.00000000000E+00 0.  1.
         21   -1    0    0  502  503 -0.00000000000E+00 -0.00000000000E+00 -0.42418501664E+03  0.42418501664E+03  0.00000000000E+00 0.  1.
         -6    2    1    2    0  503  0.30956375852E+02 -0.42096611060E+01 -0.12149829823E+03  0.21237997138E+03  0.17136918427E+03 0.  0.
        -24    2    3    3    0    0  0.23450348493E+02  0.18313760733E+02  0.46990442984E+01  0.83882873199E+02  0.78287564288E+02 0.  0.
          6    2    1    2  501    0 -0.30956375852E+02  0.42096611060E+01 -0.22785596038E+03  0.28663580330E+03  0.17107228473E+03 0.  0.
         24    2    5    5    0    0 -0.30890214701E+02 -0.62332101899E+02 -0.14220677369E+03  0.17807391412E+03  0.81535612569E+02 0.  0.
          5    1    5    5  501    0 -0.66161150693E-01  0.66541763005E+02 -0.85649186689E+02  0.10856188918E+03  0.47000000000E+01 0. -1.
        -11    1    6    6    0    0 -0.18185619190E+01 -0.72230844839E+02 -0.74786542481E+02  0.10398860058E+03  0.00000000000E+00 0.  1.
         12    1    6    6    0    0 -0.29071652782E+02  0.98987429404E+01 -0.67420231209E+02  0.74085313548E+02  0.00000000000E+00 0. -1.
         -5    1    3    3    0  503  0.75060273586E+01 -0.22523421839E+02 -0.12619734253E+03  0.12849709818E+03  0.47000000000E+01 0.  1.
         11    1    4    4    0    0  0.37892872747E+02  0.28311043577E+02 -0.21806391026E+02  0.52085541977E+02  0.00000000000E+00 0. -1.
        -12    1    4    4    0    0 -0.14442524254E+02 -0.99972828444E+01  0.26505435324E+02  0.31797331222E+02  0.00000000000E+00 0.  1.
</event>
<event>
12    1  0.1039610E+000  0.3244065E+03  0.7818608E-02  0.1073649E+00
         21   -1    0    0  501  502  0.00000000000E+00  0.00000000000E+00  0.16367434226E+03  0.16367434226E+03  0.00000000000E+00 0.  1.
         21   -1    0    0  502  503 -0.00000000000E+00 -0.00000000000E+00 -0.91604817857E+03  0.91604817857E+03  0.00000000000E+00 0. -1.
         -6    2    1    2    0  503  0.16617955337E+03 -0.21881915601E+03 -0.81306186107E+02  0.33435590369E+03  0.17229540747E+03 0.  0.
        -24    2    3    3    0    0  0.15029274047E+03 -0.19461657918E+03 -0.11546337096E+02  0.25868105923E+03  0.79492463636E+02 0.  0.
          6    2    1    2  501    0 -0.16617955337E+03  0.21881915601E+03 -0.67106765020E+03  0.74536661714E+03  0.17245908443E+03 0.  0.
         24    2    5    5    0    0 -0.17428100135E+03  0.15770171827E+03 -0.42974054674E+03  0.49624448741E+03  0.79611270527E+02 0.  0.
          5    1    5    5  501    0  0.81014479800E+01  0.61117437736E+02 -0.24132710346E+03  0.24912212973E+03  0.47000000000E+01 0. -1.
        -13    1    6    6    0    0 -0.20627450763E+02  0.61801589272E+02 -0.88275046080E+02  0.10971513989E+03  0.00000000000E+00 0.  1.
         14    1    6    6    0    0 -0.15365355059E+03  0.95900129002E+02 -0.34146550066E+03  0.38652934752E+03  0.00000000000E+00 0. -1.
         -5    1    3    3    0  503  0.15886812897E+02 -0.24202576831E+02 -0.69759849011E+02  0.75674844456E+02  0.47000000000E+01 0.  1.
         13    1    4    4    0    0  0.91693270898E+02 -0.84284697425E+02 -0.39508830754E+02  0.13066183014E+03  0.00000000000E+00 0. -1.
        -14    1    4    4    0    0  0.58599469576E+02 -0.11033188175E+03  0.27962493658E+02  0.12801922909E+03  0.00000000000E+00 0.  1.
</event>
<event>
12    1  0.1039610E+000  0.1728190E+03  0.7818608E-02  0.1175903E+00
         21   -1    0    0  503  502  0.00000000000E+00  0.00000000000E+00  0.70367408350E+02  0.70367408350E+02  0.00000000000E+00 0.  1.
         21   -1    0    0  501  503 -0.00000000000E+00 -0.00000000000E+00 -0.72309118399E+03  0.72309118399E+03  0.00000000000E+00 0.  1.
          6    2    1    2  501    0 -0.62456971216E+01  0.20027767050E+02 -0.69589053967E+02  0.18630362619E+03  0.17154091207E+03 0.  0.
         24    2    3    3    0    0 -0.33588433906E+02 -0.48227076596E+02 -0.39798330199E+02  0.10683082481E+03  0.79842872160E+02 0.  0.
         -6    2    1    2    0  502  0.62456971216E+01 -0.20027767050E+02 -0.58313472167E+03  0.60715496615E+03  0.16778238618E+03 0.  0.
        -24    2    5    5    0    0 -0.56367307656E+01  0.55095256435E+02 -0.29101710940E+03  0.30526185568E+03  0.73665341599E+02 0.  0.
          5    1    3    3  501    0  0.27342736785E+02  0.68254843645E+02 -0.29790723768E+02  0.79472801376E+02  0.47000000000E+01 0. -1.
        -11    1    4    4    0    0 -0.63661009230E+01 -0.44100213220E+02 -0.58507502520E+02  0.73542395243E+02  0.00000000000E+00 0.  1.
         12    1    4    4    0    0 -0.27222332983E+02 -0.41268633755E+01  0.18709172321E+02  0.33288429571E+02  0.00000000000E+00 0. -1.
         -5    1    5    5    0  502  0.11882427887E+02 -0.75123023485E+02 -0.29211761227E+03  0.30189311046E+03  0.47000000000E+01 0.  1.
         11    1    6    6    0    0 -0.30445542651E+02  0.77419860873E+01 -0.17122224106E+03  0.17408022648E+03  0.00000000000E+00 0. -1.
        -12    1    6    6    0    0  0.24808811885E+02  0.47353270348E+02 -0.11979486834E+03  0.13118162921E+03  0.00000000000E+00 0.  1.
</event>
<event>
12    1  0.1039610E+000  0.1718853E+03  0.7818608E-02  0.1177017E+00
         21   -1    0    0  501  502  0.00000000000E+00  0.00000000000E+00  0.55548523859E+02  0.55548523859E+02  0.00000000000E+00 0. -1.
         21   -1    0    0  502  503 -0.00000000000E+00 -0.00000000000E+00 -0.52591481841E+03  0.52591481841E+03  0.00000000000E+00 0. -1.
         -6    2    1    2    0  503  0.81849961862E+01 -0.54895964723E+01 -0.26644070510E+03  0.31476087900E+03  0.16729205536E+03 0.  0.
        -24    2    3    3    0    0  0.10929712248E+02  0.45901769233E+02 -0.23941468240E+03  0.25644191263E+03  0.78845630053E+02 0.  0.
          6    2    1    2  501    0 -0.81849961862E+01  0.54895964723E+01 -0.20392558945E+03  0.26670246326E+03  0.17160252925E+03 0.  0.
         24    2    5    5    0    0 -0.32605232737E+02  0.63570160530E+02 -0.12528390336E+03  0.16582479148E+03  0.81838490422E+02 0.  0.
          5    1    5    5  501    0  0.24420236551E+02 -0.58080564057E+02 -0.78641686088E+02  0.10087767179E+03  0.47000000000E+01 0. -1.
        -11    1    6    6    0    0 -0.65610913734E+01  0.76023956894E+02 -0.10780187062E+03  0.13207548315E+03  0.00000000000E+00 0.  1.
         12    1    6    6    0    0 -0.26044141364E+02 -0.12453796365E+02 -0.17482032746E+02  0.33749308322E+02  0.00000000000E+00 0. -1.
         -5    1    3    3    0  503 -0.27447160619E+01 -0.51391365706E+02 -0.27026022698E+02  0.58318966368E+02  0.47000000000E+01 0.  1.
         13    1    4    4    0    0  0.57229638042E+01  0.43764796282E+02 -0.49014465549E+02  0.65958528950E+02  0.00000000000E+00 0. -1.
        -14    1    4    4    0    0  0.52067484439E+01  0.21369729518E+01 -0.19040021685E+03  0.19048338368E+03  0.00000000000E+00 0.  1.
</event>
<event>
12    1  0.1039610E+000  0.2529259E+03  0.7818608E-02  0.1111899E+00
         21   -1    0    0  503  502  0.00000000000E+00  0.00000000000E+00  0.55272326342E+03  0.55272326342E+03  0.00000000000E+00 0. -1.
         21   -1    0    0  501  503 -0.00000000000E+00 -0.00000000000E+00 -0.11473544181E+03  0.11473544181E+03  0.00000000000E+00 0. -1.
          6    2    1    2  501    0 -0.30683080819E+01 -0.18247741364E+03  0.23571485726E+03  0.34573543939E+03  0.17511161902E+03 0.  0.
         24    2    3    3    0    0 -0.31989871372E+02 -0.12711405216E+03  0.70526684430E+02  0.16906970683E+03  0.80182407212E+02 0.  0.
         -6    2    1    2    0  502  0.30683080819E+01  0.18247741364E+03  0.20227296435E+03  0.32172326584E+03  0.17112593805E+03 0.  0.
        -24    2    5    5    0    0 -0.52037586237E+02  0.11159731361E+03  0.17412978056E+03  0.22751723120E+03  0.79253007697E+02 0.  0.
          5    1    3    3  501    0  0.28921563290E+02 -0.55363361483E+02  0.16518817283E+03  0.17666573256E+03  0.47000000000E+01 0. -1.
        -11    1    4    4    0    0  0.11672840443E+02 -0.12760355059E+02  0.39009939805E+02  0.42671504178E+02  0.00000000000E+00 0.  1.
         12    1    4    4    0    0 -0.43662711815E+02 -0.11435369710E+03  0.31516744625E+02  0.12639820266E+03  0.00000000000E+00 0. -1.
         -5    1    5    5    0  502  0.55105894319E+02  0.70880100029E+02  0.28143183788E+02  0.94206034639E+02  0.47000000000E+01 0.  1.
         11    1    6    6    0    0 -0.68630121873E+01  0.36617099614E+02  0.11748717232E+03  0.12325237758E+03  0.00000000000E+00 0. -1.
        -12    1    6    6    0    0 -0.45174574049E+02  0.74980213996E+02  0.56642608239E+02  0.10426485362E+03  0.00000000000E+00 0.  1.
</event>
<event>
12    1  0.1039610E+000  0.2485728E+03  0.7818608E-02  0.1114305E+00
         21   -1    0    0  503  502  0.00000000000E+00  0.00000000000E+00  0.19039875760E+03  0.19039875760E+03  0.00000000000E+00 0.  1.
         21   -1    0    0  501  503 -0.00000000000E+00 -0.00000000000E+00 -0.32992946549E+03  0.32992946549E+03  0.00000000000E+00 0.  1.
          6    2    1    2  501    0  0.58006847703E+02  0.16948767212E+03 -0.10546874520E+03  0.27002242098E+03  0.17232987621E+03 0.  0.
         24    2    3    3    0    0 -0.20699675556E+02  0.11146379535E+03 -0.24808520332E+02  0.14317744096E+03  0.83855009856E+02 0.  0.
         -6    2    1    2    0  502 -0.58006847703E+02 -0.16948767212E+03 -0.34061962692E+02  0.25030580211E+03  0.17146985707E+03 0.  0.
        -24    2    5    5    0    0 -0.25543151756E+02 -0.10799927407E+02 -0.15515752233E+02  0.87205391927E+02  0.81209302301E+02 0.  0.
          5    1    3    3  501    0  0.78706523259E+02  0.58023876773E+02 -0.80660224867E+02  0.12684498001E+03  0.47000000000E+01 0. -1.
        -13    1    4    4    0    0 -0.41463808948E+02  0.30961371476E+02  0.10585677629E+02  0.52819603813E+02  0.00000000000E+00 0.  1.
         14    1    4    4    0    0  0.20764133392E+02  0.80502423876E+02 -0.35394197961E+02  0.90357837152E+02  0.00000000000E+00 0. -1.
         -5    1    5    5    0  502 -0.32463695947E+02 -0.15868774472E+03 -0.18546210460E+02  0.16310041018E+03  0.47000000000E+01 0.  1.
         13    1    6    6    0    0  0.21842589598E+02 -0.27856616276E+02 -0.48985780620E+01  0.35736338057E+02  0.00000000000E+00 0. -1.
        -14    1    6    6    0    0 -0.47385741355E+02  0.17056688869E+02 -0.10617174171E+02  0.51469053870E+02  0.00000000000E+00 0.  1.
</event>
<event>
12    1  0.1039610E+000  0.1860821E+03  0.7818608E-02  0.1166591E+00
         21   -1    0    0  503  502  0.00000000000E+00  0.00000000000E+00  0.20218594237E+03  0.20218594237E+03  0.00000000000E+00 0. -1.
         21   -1    0    0  501  503 -0.00000000000E+00 -0.00000000000E+00 -0.16515845259E+03  0.16515845259E+03  0.00000000000E+00 0. -1.
          6    2    1    2  501    0  0.12342176908E+02 -0.68226065395E+02  0.65790202319E+02  0.19736994133E+03  0.17268299769E+03 0.  0.
         24    2    3    3    0    0  0.42272271175E+02 -0.99290050754E+02  0.19099152807E+02  0.13362885699E+03  0.76461982009E+02 0.  0.
         -6    2    1    2    0  502 -0.12342176908E+02  0.68226065395E+02 -0.28762712543E+02  0.16997445363E+03  0.15250211776E+03 0.  0.
        -24    2    5    5    0    0 -0.53620038691E+02  0.14099046422E+02 -0.35273355654E+01  0.97224812339E+02  0.79789287369E+02 0.  0.
          5    1    3    3  501    0 -0.29930094267E+02  0.31063985359E+02  0.46691049512E+02  0.63741084347E+02  0.47000000000E+01 0. -1.
        -13    1    4    4    0    0 -0.13105044603E+01 -0.77876206944E+02  0.30672882580E+02  0.83709299100E+02  0.00000000000E+00 0.  1.
         14    1    4    4    0    0  0.43582775635E+02 -0.21413843809E+02 -0.11573729774E+02  0.49919557887E+02  0.00000000000E+00 0. -1.
         -5    1    5    5    0  502  0.41277861784E+02  0.54127018972E+02 -0.25235376978E+02  0.72749641288E+02  0.47000000000E+01 0.  1.
         13    1    6    6    0    0 -0.50249018118E+02  0.11020697444E+02  0.32539201922E+02  0.60870512201E+02  0.00000000000E+00 0. -1.
        -14    1    6    6    0    0 -0.33710205739E+01  0.30783489780E+01 -0.36066537488E+02  0.36354300137E+02  0.00000000000E+00 0.  1.
</event>
<event>
12    1  0.1039610E+000  0.1777909E+03  0.7818608E-02  0.1170137E+00
         21   -1    0    0  503  502  0.00000000000E+00  0.00000000000E+00  0.13585298215E+04  0.13585298215E+04  0.00000000000E+00 0. -1.
         21   -1    0    0  501  503 -0.00000000000E+00 -0.00000000000E+00 -0.26670670839E+02  0.26670670839E+02  0.00000000000E+00 0. -1.
          6    2    1    2  501    0  0.94482302497E+01 -0.43533033179E+02  0.41628745375E+03  0.45266417684E+03  0.17211978040E+03 0.  0.
         24    2    3    3    0    0  0.31695457563E+01 -0.88190713085E+02  0.36644427186E+03  0.38528344491E+03  0.79839092230E+02 0.  0.
         -6    2    1    2    0  502 -0.94482302497E+01  0.43533033179E+02  0.91557169688E+03  0.93253631548E+03  0.17137109885E+03 0.  0.
        -24    2    5    5    0    0  0.27681002354E+01  0.20393530265E+02  0.20631986874E+03  0.22278641513E+03  0.81500552593E+02 0.  0.
          5    1    3    3  501    0  0.62786844934E+01  0.44657679906E+02  0.49843181895E+02  0.67380731927E+02  0.47000000000E+01 0. -1.
        -11    1    4    4    0    0 -0.29895280711E+02 -0.34166459231E+02  0.80607394509E+02  0.92512846646E+02  0.00000000000E+00 0.  1.
         12    1    4    4    0    0  0.33064826467E+02 -0.54024253854E+02  0.28583687735E+03  0.29277059826E+03  0.00000000000E+00 0. -1.
         -5    1    5    5    0  502 -0.12216330485E+02  0.23139502914E+02  0.70925182814E+03  0.70974990035E+03  0.47000000000E+01 0.  1.
         13    1    6    6    0    0  0.21416870283E+02  0.43658773564E+02  0.85697263005E+02  0.98533201148E+02  0.00000000000E+00 0. -1.
        -14    1    6    6    0    0 -0.18648770048E+02 -0.23265243299E+02  0.12062260574E+03  0.12425321398E+03  0.00000000000E+00 0.  1.
</event>
<event>
12    1  0.1039610E+000  0.3094366E+03  0.7818608E-02  0.1081127E+00
         21   -1    0    0  501  502  0.00000000000E+00  0.00000000000E+00  0.47881036601E+03  0.47881036601E+03  0.00000000000E+00 0. -1.
         21   -1    0    0  502  503 -0.00000000000E+00 -0.00000000000E+00 -0.22233630719E+03  0.22233630719E+03  0.00000000000E+00 0.  1.
         -6    2    1    2    0  503  0.24721518681E+03 -0.49880585334E+02  0.97120751840E+01  0.30536579253E+03  0.17190265111E+03 0.  0.
        -24    2    3    3    0    0  0.17621727964E+03 -0.21794187695E+02  0.72496378768E+02  0.20640364152E+03  0.76283825533E+02 0.  0.
          6    2    1    2  501    0 -0.24721518681E+03  0.49880585334E+02  0.24676198363E+03  0.39578088067E+03  0.17929753919E+03 0.  0.
         24    2    5    5    0    0 -0.24182042059E+03  0.87493500663E+02  0.23022728541E+03  0.35407571136E+03  0.78947944592E+02 0.  0.
          5    1    5    5  501    0 -0.53947662179E+01 -0.37612915329E+02  0.16534698223E+02  0.41705169313E+02  0.47000000000E+01 0. -1.
        -13    1    6    6    0    0 -0.10197665510E+03  0.68822580211E+01  0.12466695768E+03  0.16120934836E+03  0.00000000000E+00 0.  1.
         14    1    6    6    0    0 -0.13984376549E+03  0.80611242642E+02  0.10556032772E+03  0.19286636300E+03  0.00000000000E+00 0. -1.
         -5    1    3    3    0  503  0.70997907174E+02 -0.28086397639E+02 -0.62784303584E+02  0.98962151007E+02  0.47000000000E+01 0.  1.
         11    1    4    4    0    0  0.18759000715E+02 -0.30143908872E+02  0.15480343884E+02  0.38732368849E+02  0.00000000000E+00 0. -1.
        -12    1    4    4    0    0  0.15745827892E+03  0.83497211766E+01  0.57016034884E+02  0.16767127267E+03  0.00000000000E+00 0.  1.
</event>
<event>
12    1  0.1039610E+000  0.2021109E+03  0.7818608E-02  0.1148356E+00
         21   -1    0    0  501  502  0.00000000000E+00  0.00000000000E+00  0.84505851527E+02  0.84505851527E+02  0.00000000000E+00 0. -1.
         21   -1    0    0  502  503 -0.00000000000E+00 -0.00000000000E+00 -0.47934314025E+03  0.47934314025E+03  0.00000000000E+00 0. -1.
         -6    2    1    2    0  503  0.38153164534E+02 -0.95782876247E+02 -0.20420344094E+03  0.28601798642E+03  0.17168931219E+03 0.  0.
        -24    2    3    3    0    0 -0.35823263550E+02 -0.50759728835E+02 -0.15611224854E+03  0.18684919849E+03  0.81741865327E+02 0.  0.
          6    2    1    2  501    0 -0.38153164534E+02  0.95782876247E+02 -0.19063384778E+03  0.27783100535E+03  0.17383549772E+03 0.  0.
         24    2    5    5    0    0  0.44472372150E+02  0.66493176118E+02 -0.12877398733E+03  0.17043641433E+03  0.77889005396E+02 0.  0.
          5    1    5    5  501    0 -0.82625536683E+02  0.29289700129E+02 -0.61859860451E+02  0.10739459102E+03  0.47000000000E+01 0. -1.
        -11    1    6    6    0    0 -0.60083747548E+01  0.47611243152E+02 -0.26473480049E+02  0.54806716629E+02  0.00000000000E+00 0.  1.
         12    1    6    6    0    0  0.50480746904E+02  0.18881932966E+02 -0.10230050728E+03  0.11562969770E+03  0.00000000000E+00 0. -1.
         -5    1    3    3    0  503  0.73976428084E+02 -0.45023147412E+02 -0.48091192401E+02  0.99168787940E+02  0.47000000000E+01 0.  1.
         11    1    4    4    0    0 -0.38775484205E+02 -0.40490647511E+02 -0.36805001447E+02  0.67064437989E+02  0.00000000000E+00 0. -1.
        -12    1    4    4    0    0  0.29522206550E+01 -0.10269081324E+02 -0.11930724709E+03  0.11978476050E+03  0.00000000000E+00 0.  1.
</event>
<event>
12    1  0.1039610E+000  0.2201066E+03  0.7818608E-02  0.1133888E+00
         21   -1    0    0  503  502  0.00000000000E+00  0.00000000000E+00  0.70691790457E+03  0.70691790457E+03  0.00000000000E+00 0. -1.
         21   -1    0    0  501  503 -0.00000000000E+00 -0.00000000000E+00 -0.70359987814E+02  0.70359987814E+02  0.00000000000E+00 0. -1.
          6    2    1    2  501    0  0.13356751064E+03  0.26977653731E+02  0.25360706650E+03  0.33580270905E+03  0.17285497252E+03 0.  0.
         24    2    3    3    0    0  0.10946029700E+03  0.32570607372E+02  0.80298416982E+02  0.16067299461E+03  0.79533479390E+02 0.  0.
         -6    2    1    2    0  502 -0.13356751064E+03 -0.26977653731E+02  0.38295085025E+03  0.44147518333E+03  0.17228148505E+03 0.  0.
        -24    2    5    5    0    0 -0.41631549973E+02 -0.18594435315E+02  0.31185901431E+03  0.32486198359E+03  0.78742139942E+02 0.  0.
          5    1    3    3  501    0  0.24107213644E+02 -0.55929536404E+01  0.17330864952E+03  0.17512971444E+03  0.47000000000E+01 0. -1.
        -11    1    4    4    0    0  0.57654045823E+02 -0.12270804388E+02  0.54462791021E+01  0.59196482971E+02  0.00000000000E+00 0.  1.
         12    1    4    4    0    0  0.51806251177E+02  0.44841411759E+02  0.74852137880E+02  0.10147651164E+03  0.00000000000E+00 0. -1.
         -5    1    5    5    0  502 -0.91935960671E+02 -0.83832184159E+01  0.71091835946E+02  0.11661319974E+03  0.47000000000E+01 0.  1.
         13    1    6    6    0    0 -0.28341522251E+02 -0.57192069036E+01  0.27502721739E+02  0.39904271878E+02  0.00000000000E+00 0. -1.
        -14    1    6    6    0    0 -0.13290027722E+02 -0.12875228412E+02  0.28435629257E+03  0.28495771172E+03  0.00000000000E+00 0.  1.
</event>
<event>
12    1  0.1039610E+000  0.1992930E+03  0.7818608E-02  0.1150486E+00
         21   -1    0    0  503  502  0.00000000000E+00  0.00000000000E+00  0.39365526772E+03  0.39365526772E+03  0.00000000000E+00 0.  1.
         21   -1    0    0  501  503 -0.00000000000E+00 -0.00000000000E+00 -0.10079529563E+03  0.10079529563E+03  0.00000000000E+00 0.  1.
          6    2    1    2  501    0  0.80494045446E+02  0.58693089177E+02  0.15916618160E+03  0.25505206668E+03  0.17260797573E+03 0.  0.
         24    2    3    3    0    0  0.65502207500E+02  0.92930885075E+02  0.62119473181E+02  0.15095050335E+03  0.77463132687E+02 0.  0.
         -6    2    1    2    0  502 -0.80494045446E+02 -0.58693089177E+02  0.13369379049E+03  0.23939849666E+03  0.17179476278E+03 0.  0.
        -24    2    5    5    0    0 -0.57412859490E+02  0.32986745842E+02  0.70731677746E+02  0.12571362108E+03  0.80103573286E+02 0.  0.
          5    1    3    3  501    0  0.14991837946E+02 -0.34237795898E+02  0.97046708418E+02  0.10410156333E+03  0.47000000000E+01 0. -1.
        -11    1    4    4    0    0  0.61304337807E+02  0.21315079819E+02  0.20761437769E+02  0.68143904789E+02  0.00000000000E+00 0.  1.
         12    1    4    4    0    0  0.41978696931E+01  0.71615805256E+02  0.41358035412E+02  0.82806598563E+02  0.00000000000E+00 0. -1.
         -5    1    5    5    0  502 -0.23081185957E+02 -0.91679835019E+02  0.62962112743E+02  0.11368487558E+03  0.47000000000E+01 0.  1.
         13    1    6    6    0    0 -0.96030253512E+01 -0.25861780151E+02  0.24589962609E+02  0.36955595375E+02  0.00000000000E+00 0. -1.
        -14    1    6    6    0    0 -0.47809834138E+02  0.58848525993E+02  0.46141715138E+02  0.88758025709E+02  0.00000000000E+00 0.  1.
</event>
<event>
12    1  0.1039610E+000  0.1816173E+03  0.7818608E-02  0.1167793E+00
         21   -1    0    0  503  502  0.00000000000E+00  0.00000000000E+00  0.26381247416E+03  0.26381247416E+03  0.00000000000E+00 0. -1.
         21   -1    0    0  501  503 -0.00000000000E+00 -0.00000000000E+00 -0.12184978992E+03  0.12184978992E+03  0.00000000000E+00 0. -1.
          6    2    1    2  501    0  0.29527824177E+02  0.10693627517E+02  0.88439826673E+02  0.19632251876E+03  0.17243747377E+03 0.  0.
         24    2    3    3    0    0  0.69445750927E+02  0.44154381087E+02  0.28299580864E+02  0.11662307039E+03  0.77638602372E+02 0.  0.
         -6    2    1    2    0  502 -0.29527824177E+02 -0.10693627517E+02  0.53522857566E+02  0.18933974531E+03  0.17888151610E+03 0.  0.
        -24    2    5    5    0    0  0.21057667893E+02 -0.42606148536E+02 -0.13858702018E+02  0.99119650113E+02  0.85871602680E+02 0.  0.
          5    1    3    3  501    0 -0.39917926750E+02 -0.33460753570E+02  0.60140245808E+02  0.79699448376E+02  0.47000000000E+01 0. -1.
        -13    1    4    4    0    0  0.73121907384E+02  0.37561897063E+02  0.48231379910E+02  0.95309891714E+02  0.00000000000E+00 0.  1.
         14    1    4    4    0    0 -0.36761564573E+01  0.65924840245E+01 -0.19931799046E+02  0.21313178673E+02  0.00000000000E+00 0. -1.
         -5    1    5    5    0  502 -0.50585492070E+02  0.31912521019E+02  0.67381559583E+02  0.90220095199E+02  0.47000000000E+01 0.  1.
         13    1    6    6    0    0  0.19608934974E+02  0.76282371949E+01 -0.37946843776E+02  0.43389667965E+02  0.00000000000E+00 0. -1.
        -14    1    6    6    0    0  0.14487329189E+01 -0.50234385731E+02  0.24088141759E+02  0.55729982148E+02  0.00000000000E+00 0.  1.
</event>
<event>
12    1  0.1039610E+000  0.2888741E+03  0.7818608E-02  0.1090997E+00
         21   -1    0    0  501  502  0.00000000000E+00  0.00000000000E+00  0.15705912794E+03  0.15705912794E+03  0.00000000000E+00 0. -1.
         21   -1    0    0  502  503 -0.00000000000E+00 -0.00000000000E+00 -0.58220120391E+03  0.58220120391E+03  0.00000000000E+00 0. -1.
         -6    2    1    2    0  503 -0.22922741501E+03 -0.29450917093E+02 -0.10256485472E+03  0.30654169739E+03  0.17330810283E+03 0.  0.
        -24    2    3    3    0    0 -0.67271893599E+02 -0.15599946226E+02  0.18554251896E+02  0.10377738028E+03  0.75210493967E+02 0.  0.
          6    2    1    2  501    0  0.22922741501E+03  0.29450917093E+02 -0.32257722125E+03  0.43271863446E+03  0.17255952200E+03 0.  0.
         24    2    5    5    0    0  0.16374436277E+03 -0.41351950879E+02 -0.17233422863E+03  0.25412377710E+03  0.79734606979E+02 0.  0.
          5    1    5    5  501    0  0.65483052234E+02  0.70802867972E+02 -0.15024299262E+03  0.17859485736E+03  0.47000000000E+01 0. -1.
        -11    1    6    6    0    0  0.60454231478E+02  0.19511417813E+02 -0.37793641900E+02  0.73917311211E+02  0.00000000000E+00 0.  1.
         12    1    6    6    0    0  0.10329013130E+03 -0.60863368692E+02 -0.13454058673E+03  0.18020646589E+03  0.00000000000E+00 0. -1.
         -5    1    3    3    0  503 -0.16195552141E+03 -0.13850970867E+02 -0.12111910661E+03  0.20276431712E+03  0.47000000000E+01 0.  1.
         11    1    4    4    0    0  0.12713793042E+02 -0.16752095802E+02 -0.21714006299E+01  0.21142096112E+02  0.00000000000E+00 0. -1.
        -12    1    4    4    0    0 -0.79985686642E+02  0.11521495766E+01  0.20725652526E+02  0.82635284164E+02  0.00000000000E+00 0.  1.
</event>
<event>
12    1  0.1039610E+000  0.4881736E+03  0.7818608E-02  0.1016936E+00
         21   -1    0    0  501  502  0.00000000000E+00  0.00000000000E+00  0.38057029651E+03  0.38057029651E+03  0.00000000000E+00 0.  1.
         21   -1    0    0  502  503 -0.00000000000E+00 -0.00000000000E+00 -0.82949718372E+03  0.82949718372E+03  0.00000000000E+00 0. -1.
         -6    2    1    2    0  503  0.20900446533E+03  0.40608347990E+03 -0.52437623257E+03  0.71643835288E+03  0.17241467750E+03 0.  0.
        -24    2    3    3    0    0  0.14306660973E+03  0.38626873346E+03 -0.44934157127E+03  0.61449368468E+03  0.77608321536E+02 0.  0.
          6    2    1    2  501    0 -0.20900446533E+03 -0.40608347990E+03  0.75449345354E+02  0.49362912736E+03  0.17143643862E+03 0.  0.
         24    2    5    5    0    0 -0.52319607089E+02 -0.23420258745E+03  0.12062556621E+02  0.25252093385E+03  0.77673183947E+02 0.  0.
          5    1    5    5  501    0 -0.15668485824E+03 -0.17188089244E+03  0.63386788733E+02  0.24110819351E+03  0.47000000000E+01 0. -1.
        -13    1    6    6    0    0  0.17110649997E+02 -0.55717906529E+02  0.17732483164E+02  0.60923726170E+02  0.00000000000E+00 0.  1.
         14    1    6    6    0    0 -0.69430257086E+02 -0.17848468093E+03 -0.56699265422E+01  0.19159720768E+03  0.00000000000E+00 0. -1.
         -5    1    3    3    0  503  0.65937855606E+02  0.19814746442E+02 -0.75034661297E+02  0.10194466820E+03  0.47000000000E+01 0.  1.
         11    1    4    4    0    0  0.68913184899E+02  0.27069258258E+03 -0.33193989848E+03  0.43382899571E+03  0.00000000000E+00 0. -1.
        -12    1    4    4    0    0  0.74153424827E+02  0.11557615088E+03 -0.11740167279E+03  0.18066468897E+03  0.00000000000E+00 0.  1.
</event>
<event>
12    1  0.1039610E+000  0.4551565E+03  0.7818608E-02  0.1026224E+00
         21   -1    0    0  501  502  0.00000000000E+00  0.00000000000E+00  0.15943418740E+03  0.15943418740E+03  0.00000000000E+00 0.  1.
         21   -1    0    0  502  503 -0.00000000000E+00 -0.00000000000E+00 -0.13175343169E+04  0.13175343169E+04  0.00000000000E+00 0.  1.
         -6    2    1    2    0  503 -0.40875982641E+03 -0.10074584477E+03 -0.48950154811E+03  0.66814743738E+03  0.17197357802E+03 0.  0.
        -24    2    3    3    0    0 -0.21674277503E+03 -0.10548993121E+01 -0.31336837124E+03  0.38912446588E+03  0.78990952062E+02 0.  0.
          6    2    1    2  501    0  0.40875982641E+03  0.10074584477E+03 -0.66859858135E+03  0.80882106689E+03  0.17301194852E+03 0.  0.
         24    2    5    5    0    0  0.25346502223E+03  0.76570514390E+02 -0.29909143924E+03  0.40725097229E+03  0.79310177374E+02 0.  0.
          5    1    5    5  501    0  0.15529480418E+03  0.24175330385E+02 -0.36950714212E+03  0.40157009460E+03  0.47000000000E+01 0. -1.
        -11    1    6    6    0    0  0.26468986116E+02  0.36833219513E+02 -0.39693805649E+02  0.60273472545E+02  0.00000000000E+00 0.  1.
         12    1    6    6    0    0  0.22699603612E+03  0.39737294877E+02 -0.25939763359E+03  0.34697749974E+03  0.00000000000E+00 0. -1.
         -5    1    3    3    0  503 -0.19201705138E+03 -0.99690945463E+02 -0.17613317687E+03  0.27902297150E+03  0.47000000000E+01 0.  1.
         13    1    4    4    0    0 -0.14117020498E+03 -0.20833983232E+02 -0.14461112304E+03  0.20316362503E+03  0.00000000000E+00 0. -1.
        -14    1    4    4    0    0 -0.75572570053E+02  0.19779083920E+02 -0.16875724821E+03  0.18596084084E+03  0.00000000000E+00 0.  1.
</event>
<event>
12    1  0.1039610E+000  0.1892250E+03  0.7818608E-02  0.1159437E+00
         21   -1    0    0  503  502  0.00000000000E+00  0.00000000000E+00  0.30373915862E+02  0.30373915862E+02  0.00000000000E+00 0.  1.
         21   -1    0    0  501  503 -0.00000000000E+00 -0.00000000000E+00 -0.13595826274E+04  0.13595826274E+04  0.00000000000E+00 0.  1.
          6    2    1    2  501    0  0.75712777697E+02  0.12058848272E+02 -0.40783328133E+03  0.44959323864E+03  0.17299784489E+03 0.  0.
         24    2    3    3    0    0 -0.14470575218E+01  0.52430321271E+02 -0.15376922087E+03  0.18097802532E+03  0.79731046647E+02 0.  0.
         -6    2    1    2    0  502 -0.75712777697E+02 -0.12058848272E+02 -0.92137543022E+03  0.94036330464E+03  0.17167591786E+03 0.  0.
        -24    2    5    5    0    0 -0.10270708275E+03  0.32121535983E+02 -0.61059812259E+03  0.62526772581E+03  0.80926656392E+02 0.  0.
          5    1    3    3  501    0  0.77159835219E+02 -0.40371473000E+02 -0.25406406047E+03  0.26861521331E+03  0.47000000000E+01 0. -1.
        -13    1    4    4    0    0  0.29005091915E+02 -0.51827700409E+01 -0.37483981298E+02  0.47678142961E+02  0.00000000000E+00 0.  1.
         14    1    4    4    0    0 -0.30452149437E+02  0.57613091312E+02 -0.11628523957E+03  0.13329988236E+03  0.00000000000E+00 0. -1.
         -5    1    5    5    0  502  0.26994305048E+02 -0.44180384254E+02 -0.31077730763E+03  0.31509557883E+03  0.47000000000E+01 0.  1.
         11    1    6    6    0    0 -0.81419649730E+02 -0.57656198961E+01 -0.27470625937E+03  0.28657622140E+03  0.00000000000E+00 0. -1.
        -12    1    6    6    0    0 -0.21287433015E+02  0.37887155879E+02 -0.33589186322E+03  0.33869150442E+03  0.00000000000E+00 0.  1.
</event>
<event>
12    1  0.1039610E+000  0.3501258E+03  0.7818608E-02  0.1062791E+00
         21   -1    0    0  503  502  0.00000000000E+00  0.00000000000E+00  0.44160908983E+03  0.44160908983E+03  0.00000000000E+00 0.  1.
         21   -1    0    0  501  503 -0.00000000000E+00 -0.00000000000E+00 -0.36924284098E+03  0.36924284098E+03  0.00000000000E+00 0.  1.
          6    2    1    2  501    0 -0.30110936672E+03 -0.25318247807E+01 -0.16763325025E+03  0.38818679625E+03  0.17864719794E+03 0.  0.
         24    2    3    3    0    0 -0.23525861934E+03  0.58828414831E+02 -0.15085390391E+03  0.29650781066E+03  0.79703080810E+02 0.  0.
         -6    2    1    2    0  502  0.30110936672E+03  0.25318247807E+01  0.23999949910E+03  0.42266513456E+03  0.17427792614E+03 0.  0.
        -24    2    5    5    0    0  0.24499231578E+03  0.12513709701E+01  0.25664437102E+03  0.36392924493E+03  0.80965186490E+02 0.  0.
          5    1    3    3  501    0 -0.65850747373E+02 -0.61360239611E+02 -0.16779346333E+02  0.91678985586E+02  0.47000000000E+01 0. -1.
        -11    1    4    4    0    0 -0.10698245479E+03  0.70023276263E+01 -0.10676037601E+03  0.15130120988E+03  0.00000000000E+00 0.  1.
         12    1    4    4    0    0 -0.12827616455E+03  0.51826087204E+02 -0.44093527899E+02  0.14520660078E+03  0.00000000000E+00 0. -1.
         -5    1    5    5    0  502  0.56117050942E+02  0.12804538106E+01 -0.16644871920E+02  0.58735889621E+02  0.47000000000E+01 0.  1.
         11    1    6    6    0    0  0.18274015869E+03 -0.16497048664E+02  0.14100889393E+03  0.23140792204E+03  0.00000000000E+00 0. -1.
        -12    1    6    6    0    0  0.62252157083E+02  0.17748419634E+02  0.11563547709E+03  0.13252132290E+03  0.00000000000E+00 0.  1.
</event>
<event>
12    1  0.1039610E+000  0.1842774E+03  0.7818608E-02  0.1164054E+00
         21   -1    0    0  501  502  0.00000000000E+00  0.00000000000E+00  0.46845415515E+03  0.46845415515E+03  0.00000000000E+00 0. -1.
         21   -1    0    0  502  503 -0.00000000000E+00 -0.00000000000E+00 -0.20503888337E+03  0.20503888337E+03  0.00000000000E+00 0. -1.
         -6    2    1    2    0  503 -0.63313062066E+02 -0.30951656350E+01  0.40284173375E+03  0.44241318248E+03  0.17155126844E+03 0.  0.
        -24    2    3    3    0    0 -0.39887067795E+01 -0.21747430678E+02  0.35349883060E+03  0.36288898357E+03  0.78981837389E+02 0.  0.
          6    2    1    2  501    0  0.63313062066E+02  0.30951656350E+01 -0.13942646196E+03  0.23107985604E+03  0.17303189792E+03 0.  0.
         24    2    5    5    0    0 -0.15763635463E+02 -0.12602456733E+02 -0.12737256868E+03  0.14942861121E+03  0.75483935226E+02 0.  0.
          5    1    5    5  501    0  0.79076697529E+02  0.15697622368E+02 -0.12053893281E+02  0.81651244836E+02  0.47000000000E+01 0. -1.
        -11    1    6    6    0    0 -0.84212997950E+01  0.29853304974E+02 -0.77761527851E+02  0.83719730780E+02  0.00000000000E+00 0.  1.
         12    1    6    6    0    0 -0.73423356678E+01 -0.42455761707E+02 -0.49611040828E+02  0.65708880429E+02  0.00000000000E+00 0. -1.
         -5    1    3    3    0  503 -0.59324355287E+02  0.18652265043E+02  0.49342903148E+02  0.79524198911E+02  0.47000000000E+01 0.  1.
         11    1    4    4    0    0 -0.27081253598E+01  0.19429842204E+02  0.25972308449E+03  0.26046292122E+03  0.00000000000E+00 0. -1.
        -12    1    4    4    0    0 -0.12805814197E+01 -0.41177272882E+02  0.93775746105E+02  0.10242606235E+03  0.00000000000E+00 0.  1.
</event>
<event>
12    1  0.1039610E+000  0.1902257E+03  0.7818608E-02  0.1159571E+00
         21   -1    0    0  503  502  0.00000000000E+00  0.00000000000E+00  0.45315425499E+03  0.45315425499E+03  0.00000000000E+00 0.  1.
         21   -1    0    0  501  503 -0.00000000000E+00 -0.00000000000E+00 -0.85365394134E+02  0.85365394134E+02  0.00000000000E+00 0.  1.
          6    2    1    2  501    0 -0.53488503529E+02  0.51011333914E+02  0.26325193683E+03  0.32146256635E+03  0.16903675080E+03 0.  0.
         24    2    3    3    0    0  0.14526227049E+01  0.67542996985E+02  0.23478503650E+03  0.25724202719E+03  0.80531240100E+02 0.  0.
         -6    2    1    2    0  502  0.53488503529E+02 -0.51011333914E+02  0.10453692403E+03  0.21705708278E+03  0.17527872803E+03 0.  0.
        -24    2    5    5    0    0  0.28856485011E+02 -0.10075025726E+03  0.88786464029E+02  0.15917043646E+03  0.80429351506E+02 0.  0.
          5    1    3    3  501    0 -0.54941126234E+02 -0.16531663071E+02  0.28466900332E+02  0.64220539162E+02  0.47000000000E+01 0. -1.
        -11    1    4    4    0    0  0.31062874784E+02 -0.32227251873E+00  0.67935586812E+02  0.74701070976E+02  0.00000000000E+00 0.  1.
         12    1    4    4    0    0 -0.29610252079E+02  0.67865269504E+02  0.16684944969E+03  0.18254095621E+03  0.00000000000E+00 0. -1.
         -5    1    5    5    0  502  0.24632018518E+02  0.49738923343E+02  0.15750459996E+02  0.57886646316E+02  0.47000000000E+01 0.  1.
         11    1    6    6    0    0  0.41735236221E+02 -0.40147633811E+02  0.97194474224E+01  0.58720780830E+02  0.00000000000E+00 0. -1.
        -12    1    6    6    0    0 -0.12878751210E+02 -0.60602623446E+02  0.79067016607E+02  0.10044965563E+03  0.00000000000E+00 0.  1.
</event>
<event>
12    1  0.1039610E+000  0.3189932E+03  0.7818608E-02  0.1076445E+00
         21   -1    0    0  503  502  0.00000000000E+00  0.00000000000E+00  0.33901774655E+03  0.33901774655E+03  0.00000000000E+00 0.  1.
         21   -1    0    0  501  503 -0.00000000000E+00 -0.00000000000E+00 -0.45961407833E+03  0.45961407833E+03  0.00000000000E+00 0. -1.
          6    2    1    2  501    0  0.67638555678E+02  0.25955875461E+03  0.17669970924E+03  0.36466344919E+03  0.17265839863E+03 0.  0.
         24    2    3    3    0    0 -0.31291606083E+02  0.12151553184E+03  0.89240894311E+02  0.17357644657E+03  0.80122758928E+02 0.  0.
         -6    2    1    2    0  502 -0.67638555678E+02 -0.25955875461E+03 -0.29729604102E+03  0.43396837569E+03  0.16732571167E+03 0.  0.
        -24    2    5    5    0    0 -0.10800801726E+02 -0.20721974116E+03 -0.27487251573E+03  0.35337800971E+03  0.79148211576E+02 0.  0.
          5    1    3    3  501    0  0.98930161761E+02  0.13804322278E+03  0.87458814932E+02  0.19108700262E+03  0.47000000000E+01 0. -1.
        -13    1    4    4    0    0 -0.79874628806E+01  0.38454355630E+02 -0.11520494217E+02  0.40929925692E+02  0.00000000000E+00 0.  1.
         14    1    4    4    0    0 -0.23304143203E+02  0.83061176207E+02  0.10076138853E+03  0.13264652088E+03  0.00000000000E+00 0. -1.
         -5    1    5    5    0  502 -0.56837753952E+02 -0.52339013451E+02 -0.22423525290E+02  0.80590365986E+02  0.47000000000E+01 0.  1.
         13    1    6    6    0    0 -0.94155458960E+01 -0.19620903439E+03 -0.20995971190E+03  0.28752342218E+03  0.00000000000E+00 0. -1.
        -14    1    6    6    0    0 -0.13852558300E+01 -0.11010706769E+02 -0.64912803826E+02  0.65854587523E+02  0.00000000000E+00 0.  1.
</event>
<event>
12    1  0.1039610E+000  0.1869970E+03  0.7818608E-02  0.1161952E+00
         21   -1    0    0  503  502  0.00000000000E+00  0.00000000000E+00  0.28362400258E+03  0.28362400258E+03  0.00000000000E+00 0.  1.
         21   -1    0    0  501  503 -0.00000000000E+00 -0.00000000000E+00 -0.12115984056E+03  0.12115984056E+03  0.00000000000E+00 0.  1.
          6    2    1    2  501    0 -0.44743745795E+02 -0.52603469767E+02  0.80896542076E+02  0.20077119643E+03  0.17028122320E+03 0.  0.
         24    2    3    3    0    0 -0.71194292181E+02  0.24691184089E+00  0.91257830748E+02  0.14058614394E+03  0.79798395907E+02 0.  0.
         -6    2    1    2    0  502  0.44743745795E+02  0.52603469767E+02  0.81567619945E+02  0.20401264672E+03  0.17377789151E+03 0.  0.
        -24    2    5    5    0    0  0.41653492230E+02  0.39405334546E+02  0.12442708387E+03  0.15881569894E+03  0.80327661645E+02 0.  0.
          5    1    3    3  501    0  0.26450546386E+02 -0.52850381608E+02 -0.10361288672E+02  0.60185052489E+02  0.47000000000E+01 0. -1.
        -11    1    4    4    0    0 -0.51030071884E+02  0.36832381671E+02  0.68476069001E+02  0.93003573060E+02  0.00000000000E+00 0.  1.
         12    1    4    4    0    0 -0.20164220297E+02 -0.36585469830E+02  0.22781761747E+02  0.47582570876E+02  0.00000000000E+00 0. -1.
         -5    1    5    5    0  502  0.30902535645E+01  0.13198135220E+02 -0.42859463924E+02  0.45196947775E+02  0.47000000000E+01 0.  1.
         11    1    6    6    0    0  0.64015214025E+02  0.41369007373E+02  0.97636991678E+02  0.12386413743E+03  0.00000000000E+00 0. -1.
        -12    1    6    6    0    0 -0.22361721795E+02 -0.19636728263E+01  0.26790092190E+02  0.34951561513E+02  0.00000000000E+00 0.  1.
</event>
<event>
12    1  0.1039610E+000  0.2494933E+03  0.7818608E-02  0.1113635E+00
         21   -1    0    0  501  502  0.00000000000E+00  0.00000000000E+00  0.31217289004E+03  0.31217289004E+03  0.00000000000E+00 0. -1.
         21   -1    0    0  502  503 -0.00000000000E+00 -0.00000000000E+00 -0.24677187975E+03  0.24677187975E+03  0.00000000000E+00 0.  1.
         -6    2    1    2    0  503 -0.16102082188E+03 -0.82258536855E+02  0.15521339383E+03  0.29383350608E+03  0.17190916121E+03 0.  0.
        -24    2    3    3    0    0 -0.86116168927E+02 -0.62467187031E+02  0.10844040990E+02  0.12992193053E+03  0.73783269112E+02 0.  0.
          6    2    1    2  501    0  0.16102082188E+03  0.82258536855E+02 -0.89812383529E+02  0.26511126371E+03  0.17182417160E+03 0.  0.
         24    2    5    5    0    0  0.15642579715E+03  0.66162357656E+02 -0.15141295864E+02  0.18844273972E+03  0.80217951410E+02 0.  0.
          5    1    5    5  501    0  0.45950247272E+01  0.16096179199E+02 -0.74671087665E+02  0.76668523985E+02  0.47000000000E+01 0. -1.
        -11    1    6    6    0    0  0.15249062300E+03  0.64415366544E+02 -0.34089683069E+02  0.16901134885E+03  0.00000000000E+00 0.  1.
         12    1    6    6    0    0  0.39351741569E+01  0.17469911118E+01  0.18948387204E+02  0.19431390872E+02  0.00000000000E+00 0. -1.
         -5    1    3    3    0  503 -0.74904652952E+02 -0.19791349824E+02  0.14436935284E+03  0.16391157555E+03  0.47000000000E+01 0.  1.
         13    1    4    4    0    0 -0.16021984780E+02  0.16883039964E+02  0.54729632759E+01  0.23910130944E+02  0.00000000000E+00 0. -1.
        -14    1    4    4    0    0 -0.70094184147E+02 -0.79350226994E+02  0.53710777141E+01  0.10601179958E+03  0.00000000000E+00 0.  1.
</event>
<event>
12    1  0.1039610E+000  0.3959652E+03  0.7818608E-02  0.1045207E+00
         21   -1    0    0  501  502  0.00000000000E+00  0.00000000000E+00  0.49367601654E+03  0.49367601654E+03  0.00000000000E+00 0.  1.
         21   -1    0    0  502  503 -0.00000000000E+00 -0.00000000000E+00 -0.33638497254E+03  0.33638497254E+03  0.00000000000E+00 0.  1.
         -6    2    1    2    0  503  0.11952451054E+02 -0.35620195881E+03  0.17727127967E+03  0.43383583200E+03  0.17252746443E+03 0.  0.
        -24    2    3    3    0    0  0.41641305204E+01 -0.35594194970E+03  0.19501618012E+03  0.41389348926E+03  0.81021592214E+02 0.  0.
          6    2    1    2  501    0 -0.11952451054E+02  0.35620195881E+03 -0.19980235667E+02  0.39622515709E+03  0.17196647566E+03 0.  0.
         24    2    5    5    0    0 -0.52976289801E+02  0.16999139319E+03 -0.56534367986E+02  0.20202004726E+03  0.76892156254E+02 0.  0.
          5    1    5    5  501    0  0.41023838747E+02  0.18621056562E+03  0.36554132319E+02  0.19420510983E+03  0.47000000000E+01 0. -1.
        -11    1    6    6    0    0 -0.99028367648E+01  0.79994000228E+02 -0.62605458741E+02  0.10206149966E+03  0.00000000000E+00 0.  1.
         12    1    6    6    0    0 -0.43073453036E+02  0.89997392958E+02  0.60710907555E+01  0.99958547602E+02  0.00000000000E+00 0. -1.
         -5    1    3    3    0  503  0.77883205335E+01 -0.26000910502E+00 -0.17744900455E+02  0.19942342731E+02  0.47000000000E+01 0.  1.
         11    1    4    4    0    0  0.31783641335E+02 -0.10706369925E+03  0.36339287443E+02  0.11744521857E+03  0.00000000000E+00 0. -1.
        -12    1    4    4    0    0 -0.27619510815E+02 -0.24887825045E+03  0.15867689268E+03  0.29644827069E+03  0.00000000000E+00 0.  1.
</event>
<event>
12    1  0.1039610E+000  0.2713730E+03  0.7818608E-02  0.1100976E+00
         21   -1    0    0  501  502  0.00000000000E+00  0.00000000000E+00  0.51670544290E+02  0.51670544290E+02  0.00000000000E+00 0.  1.
         21   -1    0    0  502  503 -0.00000000000E+00 -0.00000000000E+00 -0.14348117365E+04  0.14348117365E+04  0.00000000000E+00 0.  1.
         -6    2    1    2    0  503 -0.20958980282E+03  0.11929857286E+02 -0.78952160582E+03  0.83377443414E+03  0.16662903115E+03 0.  0.
        -24    2    3    3    0    0 -0.19001910761E+03  0.57726978108E+02 -0.57880333108E+03  0.61719957480E+03  0.80513066062E+02 0.  0.
          6    2    1    2  501    0  0.20958980282E+03 -0.11929857286E+02 -0.59361958644E+03  0.65270784670E+03  0.17196834826E+03 0.  0.
         24    2    5    5    0    0  0.75119985160E+02 -0.61033482149E+02 -0.23307117289E+03  0.26475095948E+03  0.80017503062E+02 0.  0.
          5    1    5    5  501    0  0.13446981766E+03  0.49103624863E+02 -0.36054841355E+03  0.38795688723E+03  0.47000000000E+01 0. -1.
        -13    1    6    6    0    0  0.87256423692E+02 -0.43470510690E+02 -0.21743661866E+03  0.23828984853E+03  0.00000000000E+00 0.  1.
         14    1    6    6    0    0 -0.12136438532E+02 -0.17562971459E+02 -0.15634554228E+02  0.26461110948E+02  0.00000000000E+00 0. -1.
         -5    1    3    3    0  503 -0.19570695205E+02 -0.45797120822E+02 -0.21071827474E+03  0.21657485934E+03  0.47000000000E+01 0.  1.
         13    1    4    4    0    0 -0.44784080058E+02  0.52238054121E+02 -0.19684174094E+03  0.20852121979E+03  0.00000000000E+00 0. -1.
        -14    1    4    4    0    0 -0.14523502756E+03  0.54889239863E+01 -0.38196159014E+03  0.40867835501E+03  0.00000000000E+00 0.  1.
</event>
<event>
12    1  0.1039610E+000  0.2432983E+03  0.7818608E-02  0.1118033E+00
         21   -1    0    0  503  502  0.00000000000E+00  0.00000000000E+00  0.49917271688E+03  0.49917271688E+03  0.00000000000E+00 0.  1.
         21   -1    0    0  501  503 -0.00000000000E+00 -0.00000000000E+00 -0.12681649035E+03  0.12681649035E+03  0.00000000000E+00 0.  1.
          6    2    1    2  501    0 -0.11628733793E+03 -0.12746705133E+03  0.99760629615E+02  0.26060939926E+03  0.16791212471E+03 0.  0.
         24    2    3    3    0    0 -0.36482435808E+02 -0.28247602346E+02  0.96717190057E+02  0.13315480349E+03  0.79038545522E+02 0.  0.
         -6    2    1    2    0  502  0.11628733793E+03  0.12746705133E+03  0.27259559692E+03  0.36537980796E+03  0.17153265133E+03 0.  0.
        -24    2    5    5    0    0  0.10948481776E+03  0.98267861839E+02  0.28637752157E+03  0.33204966553E+03  0.81248984772E+02 0.  0.
          5    1    3    3  501    0 -0.79804902123E+02 -0.99219448986E+02  0.30434395579E+01  0.12745459578E+03  0.47000000000E+01 0. -1.
        -11    1    4    4    0    0 -0.16712685603E+02  0.26487967522E+02  0.21222263787E+02  0.37832667944E+02  0.00000000000E+00 0.  1.
         12    1    4    4    0    0 -0.19769750205E+02 -0.54735569868E+02  0.75494926270E+02  0.95322135543E+02  0.00000000000E+00 0. -1.
         -5    1    5    5    0  502  0.68025201711E+01  0.29199189493E+02 -0.13781924652E+02  0.33330142437E+02  0.47000000000E+01 0.  1.
         11    1    6    6    0    0  0.98112284363E+02  0.49014940794E+02  0.14430405967E+03  0.18125161076E+03  0.00000000000E+00 0. -1.
        -12    1    6    6    0    0  0.11372533397E+02  0.49252921046E+02  0.14207346190E+03  0.15079805477E+03  0.00000000000E+00 0.  1.
</event>
<event>
12    1  0.1039610E+000  0.2956553E+03  0.7818608E-02  0.1088031E+00
         21   -1    0    0  503  502  0.00000000000E+00  0.00000000000E+00  0.12314375743E+04  0.12314375743E+04  0.00000000000E+00 0. -1.
         21   -1    0    0  501  503 -0.00000000000E+00 -0.00000000000E+00 -0.19198517214E+03  0.19198517214E+03  0.00000000000E+00 0. -1.
          6    2    1    2  501    0 -0.18472069648E+03  0.15340548856E+03  0.10888388353E+04  0.11282650566E+04  0.17250231592E+03 0.  0.
         24    2    3    3    0    0 -0.70655480179E+02  0.14559921110E+03  0.63419850982E+03  0.65944555283E+03  0.80432332659E+02 0.  0.
         -6    2    1    2    0  502  0.18472069648E+03 -0.15340548856E+03 -0.49386433073E+02  0.29515768993E+03  0.16438997086E+03 0.  0.
        -24    2    5    5    0    0  0.18646903294E+03 -0.97776557065E+02 -0.42937826350E+01  0.22337279024E+03  0.74471548211E+02 0.  0.
          5    1    3    3  501    0 -0.11406521630E+03  0.78062774612E+01  0.45464032546E+03  0.46881950373E+03  0.47000000000E+01 0. -1.
        -13    1    4    4    0    0 -0.56554065077E+02  0.47503735775E+02  0.36935549317E+03  0.37666755571E+03  0.00000000000E+00 0.  1.
         14    1    4    4    0    0 -0.14101415102E+02  0.98095475327E+02  0.26484301665E+03  0.28277799712E+03  0.00000000000E+00 0. -1.
         -5    1    5    5    0  502 -0.17483364548E+01 -0.55628931498E+02 -0.45092650438E+02  0.71784899690E+02  0.47000000000E+01 0.  1.
         13    1    6    6    0    0  0.83044083515E+02 -0.71672231245E+02  0.25501316576E+02  0.11262124882E+03  0.00000000000E+00 0. -1.
        -14    1    6    6    0    0  0.10342494942E+03 -0.26104325820E+02 -0.29795099211E+02  0.11075154142E+03  0.00000000000E+00 0.  1.
</event>
<event>
12    1  0.1039610E+000  0.2172371E+03  0.7818608E-02  0.1136403E+00
         21   -1    0    0  501  502  0.00000000000E+00  0.00000000000E+00  0.55266606857E+02  0.55266606857E+02  0.00000000000E+00 0. -1.
         21   -1    0    0  502  503 -0.00000000000E+00 -0.00000000000E+00 -0.84485344645E+03  0.84485344645E+03  0.00000000000E+00 0. -1.
         -6    2    1    2    0  503  0.10599674420E+03 -0.75860710275E+02 -0.40138923653E+03  0.45640474018E+03  0.17378668105E+03 0.  0.
        -24    2    3    3    0    0  0.44372061631E+02  0.95951614268E+00 -0.79656504633E+02  0.11990364142E+03  0.77858358395E+02 0.  0.
          6    2    1    2  501    0 -0.10599674420E+03  0.75860710275E+02 -0.38819760307E+03  0.44371531313E+03  0.17086761816E+03 0.  0.
         24    2    5    5    0    0 -0.70748695073E+02  0.56482078678E+02 -0.11380573337E+03  0.16635103193E+03  0.80779439275E+02 0.  0.
          5    1    5    5  501    0 -0.35248049131E+02  0.19378631597E+02 -0.27439186970E+03  0.27736428121E+03  0.47000000000E+01 0. -1.
        -13    1    6    6    0    0 -0.38177426402E+02  0.65032806370E+02 -0.10869152647E+03  0.13228994564E+03  0.00000000000E+00 0.  1.
         14    1    6    6    0    0 -0.32571268672E+02 -0.85507276928E+01 -0.51142068991E+01  0.34061086289E+02  0.00000000000E+00 0. -1.
         -5    1    3    3    0  503  0.61624682573E+02 -0.76820226417E+02 -0.32173273190E+03  0.33650109875E+03  0.47000000000E+01 0.  1.
         13    1    4    4    0    0 -0.51313189807E+01 -0.30162516410E+02 -0.21210189484E+02  0.37228751908E+02  0.00000000000E+00 0. -1.
        -14    1    4    4    0    0  0.49503380612E+02  0.31122032552E+02 -0.58446315149E+02  0.82674889517E+02  0.00000000000E+00 0.  1.
</event>
<event>
12    1  0.1039610E+000  0.2647463E+03  0.7818608E-02  0.1104501E+00
         21   -1    0    0  501  502  0.00000000000E+00  0.00000000000E+00  0.49180933484E+02  0.49180933484E+02  0.00000000000E+00 0.  1.
         21   -1    0    0  502  503 -0.00000000000E+00 -0.00000000000E+00 -0.14443306882E+04  0.14443306882E+04  0.00000000000E+00 0.  1.
         -6    2    1    2    0  503  0.10407888787E+03  0.17040041513E+03 -0.59652957416E+03  0.65215271779E+03  0.17200848265E+03 0.  0.
        -24    2    3    3    0    0  0.67196033789E+02  0.17746501700E+02 -0.21944991580E+03  0.24364969338E+03  0.79854005898E+02 0.  0.
          6    2    1    2  501    0 -0.10407888787E+03 -0.17040041513E+03 -0.79862018060E+03  0.84135890393E+03  0.17384445918E+03 0.  0.
         24    2    5    5    0    0 -0.67301446100E+02 -0.79255278282E+02 -0.23200352265E+03  0.26626191797E+03  0.79113150974E+02 0.  0.
          5    1    5    5  501    0 -0.36777441773E+02 -0.91145136847E+02 -0.56661665795E+03  0.57509698596E+03  0.47000000000E+01 0. -1.
        -13    1    6    6    0    0 -0.27888697400E+02  0.12313918177E+02 -0.64391411567E+02  0.71243707842E+02  0.00000000000E+00 0.  1.
         14    1    6    6    0    0 -0.39412748700E+02 -0.91569196459E+02 -0.16761211108E+03  0.19501821013E+03  0.00000000000E+00 0. -1.
         -5    1    3    3    0  503  0.36882854084E+02  0.15265391343E+03 -0.37707965836E+03  0.40850302442E+03  0.47000000000E+01 0.  1.
         13    1    4    4    0    0 -0.27243609889E+01  0.19888650207E+02 -0.12229232921E+03  0.12392898907E+03  0.00000000000E+00 0. -1.
        -14    1    4    4    0    0  0.69920394778E+02 -0.21421485070E+01 -0.97157586593E+02  0.11972070430E+03  0.00000000000E+00 0.  1.
</event>
<event>
12    1  0.1039610E+000  0.2520415E+03  0.7818608E-02  0.1112227E+00
         21   -1    0    0  501  502  0.00000000000E+00  0.00000000000E+00  0.27522400729E+03  0.27522400729E+03  0.00000000000E+00 0. -1.
         21   -1    0    0  502  503 -0.00000000000E+00 -0.00000000000E+00 -0.28256861596E+03  0.28256861596E+03  0.00000000000E+00 0. -1.
         -6    2    1    2    0  503 -0.99080036464E+02 -0.15369956356E+03  0.11705316699E+03  0.27789630748E+03  0.17344885224E+03 0.  0.
        -24    2    3    3    0    0 -0.58582650434E+02 -0.59658736916E+02  0.13079854965E+03  0.17448092711E+03  0.79650747099E+02 0.  0.
          6    2    1    2  501    0  0.99080036464E+02  0.15369956356E+03 -0.12439777565E+03  0.27989631578E+03  0.17154221502E+03 0.  0.
         24    2    5    5    0    0  0.93843626474E+02  0.12712742361E+03 -0.26585286389E+02  0.17829478199E+03  0.78193629981E+02 0.  0.
          5    1    5    5  501    0  0.52364099904E+01  0.26572139949E+02 -0.97812489265E+02  0.10160153378E+03  0.47000000000E+01 0. -1.
        -11    1    6    6    0    0  0.86468113545E+01  0.68339135637E+02 -0.29038571043E+02  0.74754554472E+02  0.00000000000E+00 0.  1.
         12    1    6    6    0    0  0.85196815119E+02  0.58788287977E+02  0.24532846532E+01  0.10354022752E+03  0.00000000000E+00 0. -1.
         -5    1    3    3    0  503 -0.40497386030E+02 -0.94040826646E+02 -0.13745382666E+02  0.10341538037E+03  0.47000000000E+01 0.  1.
         11    1    4    4    0    0 -0.23832792119E+02 -0.38025257322E+02  0.12540581480E+03  0.13319362057E+03  0.00000000000E+00 0. -1.
        -12    1    4    4    0    0 -0.34749858315E+02 -0.21633479595E+02  0.53927348470E+01  0.41287306541E+02  0.00000000000E+00 0.  1.
</event>
<event>
12    1  0.1039610E+000  0.2016002E+03  0.7818608E-02  0.1148504E+00
         21   -1    0    0  501  502  0.00000000000E+00  0.00000000000E+00  0.39081322583E+03  0.39081322583E+03  0.00000000000E+00 0. -1.
         21   -1    0    0  502  503 -0.00000000000E+00 -0.00000000000E+00 -0.17372980828E+03  0.17372980828E+03  0.00000000000E+00 0. -1.
         -6    2    1    2    0  503  0.62818796712E+02  0.83903898268E+02 -0.70551253056E+02  0.21358865105E+03  0.17221082191E+03 0.  0.
        -24    2    3    3    0    0  0.72296320505E+02  0.86411200364E+01 -0.82896496849E+02  0.13658992191E+03  0.80520498410E+02 0.  0.
          6    2    1    2  501    0 -0.62818796712E+02 -0.83903898268E+02  0.28763467061E+03  0.35095438307E+03  0.17160772096E+03 0.  0.
         24    2    5    5    0    0 -0.22964805465E+02  0.14195293145E+02  0.81656517245E+02  0.11930619802E+03  0.82687928014E+02 0.  0.
          5    1    5    5  501    0 -0.39853991247E+02 -0.98099191412E+02  0.20597815336E+03  0.23164818505E+03  0.47000000000E+01 0. -1.
        -11    1    6    6    0    0 -0.46161520049E+00 -0.26152259966E+02  0.78383195009E+00  0.26168075635E+02  0.00000000000E+00 0.  1.
         12    1    6    6    0    0 -0.22503190264E+02  0.40347553110E+02  0.80872685295E+02  0.93138122382E+02  0.00000000000E+00 0. -1.
         -5    1    3    3    0  503 -0.94775237930E+01  0.75262778232E+02  0.12345243792E+02  0.76998729137E+02  0.47000000000E+01 0.  1.
         13    1    4    4    0    0  0.26534373449E+02  0.42284758325E+02 -0.26372406833E+02  0.56458636214E+02  0.00000000000E+00 0. -1.
        -14    1    4    4    0    0  0.45761947056E+02 -0.33643638289E+02 -0.56524090016E+02  0.80131285699E+02  0.00000000000E+00 0.  1.
</event>
<event>
12    1  0.1039610E+000  0.2158478E+03  0.7818608E-02  0.1137176E+00
         21   -1    0    0  501  502  0.00000000000E+00  0.00000000000E+00  0.24870772586E+03  0.24870772586E+03  0.00000000000E+00 0.  1.
         21   -1    0    0  502  503 -0.00000000000E+00 -0.00000000000E+00 -0.18735981977E+03  0.18735981977E+03  0.00000000000E+00 0.  1.
         -6    2    1    2    0  503  0.87835951367E+02 -0.97044855873E+02  0.44517198196E+02  0.22039069409E+03  0.17163163667E+03 0.  0.
        -24    2    3    3    0    0  0.10105155841E+02 -0.54555125871E+01 -0.20529157243E+02  0.83701986688E+02  0.80328696530E+02 0.  0.
          6    2    1    2  501    0 -0.87835951367E+02  0.97044855873E+02  0.16830707895E+02  0.21567685154E+03  0.17058831483E+03 0.  0.
         24    2    5    5    0    0 -0.28861264390E+02  0.44721353375E+02 -0.63311696002E+02  0.10315726427E+03  0.61644775047E+02 0.  0.
          5    1    5    5  501    0 -0.58974686977E+02  0.52323502498E+02  0.80142403896E+02  0.11251958727E+03  0.47000000000E+01 0. -1.
        -13    1    6    6    0    0 -0.96128696947E+01  0.70241719970E+01  0.11912727991E+02  0.16842189412E+02  0.00000000000E+00 0.  1.
         14    1    6    6    0    0 -0.19248394695E+02  0.37697181378E+02 -0.75224423993E+02  0.86315074855E+02  0.00000000000E+00 0. -1.
         -5    1    3    3    0  503  0.77730795526E+02 -0.91589343286E+02  0.65046355439E+02  0.13668870741E+03  0.47000000000E+01 0.  1.
         13    1    4    4    0    0 -0.22764028765E+02 -0.13444318249E+02  0.18339219453E+02  0.32175731055E+02  0.00000000000E+00 0. -1.
        -14    1    4    4    0    0  0.32869184606E+02  0.79888056617E+01 -0.38868376696E+02  0.51526255633E+02  0.00000000000E+00 0.  1.
</event>
<event>
12    1  0.1039610E+000  0.1767280E+03  0.7818608E-02  0.1171411E+00
         21   -1    0    0  501  502  0.00000000000E+00  0.00000000000E+00  0.56400905737E+03  0.56400905737E+03  0.00000000000E+00 0. -1.
         21   -1    0    0  502  503 -0.00000000000E+00 -0.00000000000E+00 -0.62051553102E+02  0.62051553102E+02  0.00000000000E+00 0. -1.
         -6    2    1    2    0  503  0.23372408464E+02 -0.24570964409E+02  0.35848444484E+03  0.39967971208E+03  0.17344386207E+03 0.  0.
        -24    2    3    3    0    0 -0.36454156913E+02 -0.78459838367E+01  0.30354104670E+03  0.31661461774E+03  0.81958429177E+02 0.  0.
          6    2    1    2  501    0 -0.23372408464E+02  0.24570964409E+02  0.14347305943E+03  0.22638089839E+03  0.17179578168E+03 0.  0.
         24    2    5    5    0    0 -0.32358324147E+02 -0.29685728085E+02  0.14581964181E+03  0.17113479617E+03  0.78073343277E+02 0.  0.
          5    1    5    5  501    0  0.89859156833E+01  0.54256692494E+02 -0.23465823803E+01  0.55246102215E+02  0.47000000000E+01 0. -1.
        -13    1    6    6    0    0 -0.46389892964E+02  0.20162560293E+01  0.45567692952E+02  0.65057682856E+02  0.00000000000E+00 0.  1.
         14    1    6    6    0    0  0.14031568817E+02 -0.31701984114E+02  0.10025194885E+03  0.10607711332E+03  0.00000000000E+00 0. -1.
         -5    1    3    3    0  503  0.59826565377E+02 -0.16724980572E+02  0.54943398136E+02  0.83065094345E+02  0.47000000000E+01 0.  1.
         11    1    4    4    0    0 -0.23490843311E+02 -0.25880101436E+01  0.30156157913E+03  0.30248620386E+03  0.00000000000E+00 0. -1.
        -12    1    4    4    0    0 -0.12963313602E+02 -0.52579736931E+01  0.19794675716E+01  0.14128413880E+02  0.00000000000E+00 0.  1.
</event>
<event>
12    1  0.1039610E+000  0.2305080E+03  0.7818608E-02  0.1126410E+00
         21   -1    0    0  503  502  0.00000000000E+00  0.00000000000E+00  0.15940531421E+04  0.15940531421E+04  0.00000000000E+00 0. -1.
         21   -1    0    0  501  503 -0.00000000000E+00 -0.00000000000E+00 -0.43018607658E+02  0.43018607658E+02  0.00000000000E+00 0. -1.
          6    2    1    2  501    0 -0.13497250527E+03 -0.73215105713E+02  0.11669580909E+04  0.11895062438E+04  0.17191826323E+03 0.  0.
         24    2    3    3    0    0 -0.13825626877E+03 -0.10919248265E+03  0.95366663183E+03  0.97312581200E+03  0.80349282436E+02 0.  0.
         -6    2    1    2    0  502  0.13497250527E+03  0.73215105713E+02  0.38407644352E+03  0.44756550594E+03  0.17094484127E+03 0.  0.
        -24    2    5    5    0    0  0.26800873325E+02  0.44163115579E+02  0.82827235351E+02  0.12613387167E+03  0.79879503486E+02 0.  0.
          5    1    3    3  501    0  0.32837635002E+01  0.35977376932E+02  0.21329145906E+03  0.21638043179E+03  0.47000000000E+01 0. -1.
        -11    1    4    4    0    0 -0.13777744196E+03 -0.70540308349E+02  0.77988358293E+03  0.79509556755E+03  0.00000000000E+00 0.  1.
         12    1    4    4    0    0 -0.47882681656E+00 -0.38652174296E+02  0.17378304891E+03  0.17803024445E+03  0.00000000000E+00 0. -1.
         -5    1    5    5    0  502  0.10817163195E+03  0.29051990134E+02  0.30124920817E+03  0.32143163427E+03  0.47000000000E+01 0.  1.
         13    1    6    6    0    0  0.89861718631E+01  0.65332639716E+02  0.68068809759E+02  0.94775882792E+02  0.00000000000E+00 0. -1.
        -14    1    6    6    0    0  0.17814701462E+02 -0.21169524137E+02  0.14758425592E+02  0.31357988875E+02  0.00000000000E+00 0.  1.
</event>
<event>
12    1  0.1039610E+000  0.1879709E+03  0.7818608E-02  0.1160456E+00
         21   -1    0    0  503  502  0.00000000000E+00  0.00000000000E+00  0.21839583768E+03  0.21839583768E+03  0.00000000000E+00 0.  1.
         21   -1    0    0  501  503 -0.00000000000E+00 -0.00000000000E+00 -0.21247880767E+03  0.21247880767E+03  0.00000000000E+00 0.  1.
          6    2    1    2  501    0  0.74787601525E+02 -0.54226231401E+01 -0.10285947888E+03  0.21427353521E+03  0.17236729768E+03 0.  0.
         24    2    3    3    0    0  0.10698717955E+03  0.36191934041E+02 -0.80948033273E+02  0.15708275236E+03  0.73254995177E+02 0.  0.
         -6    2    1    2    0  502 -0.74787601525E+02  0.54226231401E+01  0.10877650889E+03  0.21660111015E+03  0.17164242438E+03 0.  0.
        -24    2    5    5    0    0 -0.85334615689E+02 -0.40650837176E+02  0.11456716470E+03  0.16875108457E+03  0.80104969379E+02 0.  0.
          5    1    3    3  501    0 -0.32199578029E+02 -0.41614557181E+02 -0.21911445607E+02  0.57190782851E+02  0.47000000000E+01 0. -1.
        -13    1    4    4    0    0  0.16808710759E+02 -0.14436033576E+02  0.48806345818E+01  0.22688155869E+02  0.00000000000E+00 0.  1.
         14    1    4    4    0    0  0.90178468795E+02  0.50627967617E+02 -0.85828667854E+02  0.13439459649E+03  0.00000000000E+00 0. -1.
         -5    1    5    5    0  502  0.10547014163E+02  0.46073460316E+02 -0.57906558053E+01  0.47850025579E+02  0.47000000000E+01 0.  1.
         13    1    6    6    0    0  0.29157406565E+01 -0.21170432706E+02  0.58780938881E+02  0.62545084061E+02  0.00000000000E+00 0. -1.
        -14    1    6    6    0    0 -0.88250356345E+02 -0.19480404470E+02  0.55786225816E+02  0.10620600051E+03  0.00000000000E+00 0.  1.
</event>
<event>
12    1  0.1039610E+000  0.2654452E+03  0.7818608E-02  0.1103970E+00
         21   -1    0    0  503  502  0.00000000000E+00  0.00000000000E+00  0.40036182840E+03  0.40036182840E+03  0.00000000000E+00 0.  1.
         21   -1    0    0  501  503 -0.00000000000E+00 -0.00000000000E+00 -0.17850601704E+03  0.17850601704E+03  0.00000000000E+00 0.  1.
          6    2    1    2  501    0  0.10605670871E+03  0.17285067297E+03  0.14701527638E+03  0.30343807790E+03  0.17127695415E+03 0.  0.
         24    2    3    3    0    0 -0.23369117297E+00  0.10464685928E+03  0.39739680203E+02  0.13766850034E+03  0.80139590936E+02 0.  0.
         -6    2    1    2    0  502 -0.10605670871E+03 -0.17285067297E+03  0.74840534983E+02  0.27542976754E+03  0.17068998378E+03 0.  0.
        -24    2    5    5    0    0 -0.10545172794E+03 -0.16753970311E+03  0.10837167873E+03  0.24115149449E+03  0.84970603750E+02 0.  0.
          5    1    3    3  501    0  0.10629039989E+03  0.68203813690E+02  0.10727559617E+03  0.16576957756E+03  0.47000000000E+01 0. -1.
        -11    1    4    4    0    0 -0.83948604610E+01  0.49187758448E+01 -0.19209924387E+02  0.21533444520E+02  0.00000000000E+00 0.  1.
         12    1    4    4    0    0  0.81611692880E+01  0.99728083433E+02  0.58949604590E+02  0.11613505582E+03  0.00000000000E+00 0. -1.
         -5    1    5    5    0  502 -0.60498077851E+00 -0.53109698603E+01 -0.33531143744E+02  0.34278273052E+02  0.47000000000E+01 0.  1.
         13    1    6    6    0    0 -0.80209074219E+02 -0.50460980929E+02  0.58846023494E+02  0.11154667482E+03  0.00000000000E+00 0. -1.
        -14    1    6    6    0    0 -0.25242653717E+02 -0.11707872218E+03  0.49525655233E+02  0.12960481966E+03  0.00000000000E+00 0.  1.
</event>
<event>
12    1  0.1039610E+000  0.1840654E+03  0.7818608E-02  0.1164159E+00
         21   -1    0    0  503  502  0.00000000000E+00  0.00000000000E+00  0.17200429131E+03  0.17200429131E+03  0.00000000000E+00 0. -1.
         21   -1    0    0  501  503 -0.00000000000E+00 -0.00000000000E+00 -0.21571538864E+03  0.21571538864E+03  0.00000000000E+00 0. -1.
          6    2    1    2  501    0  0.24115074153E+02  0.61925456795E+02 -0.80535597940E+02  0.20000683390E+03  0.17058854613E+03 0.  0.
         24    2    3    3    0    0 -0.32046934312E+02 -0.21292152733E+01 -0.78253558442E+02  0.11465772780E+03  0.77403072153E+02 0.  0.
         -6    2    1    2    0  502 -0.24115074153E+02 -0.61925456795E+02  0.36824500616E+02  0.18771284605E+03  0.17165013756E+03 0.  0.
        -24    2    5    5    0    0  0.27427553186E+02 -0.46458042491E+02  0.75025670502E+02  0.12155165864E+03  0.78964131720E+02 0.  0.
          5    1    3    3  501    0  0.56162008465E+02  0.64054672068E+02 -0.22820394985E+01  0.85349106105E+02  0.47000000000E+01 0. -1.
        -13    1    4    4    0    0 -0.44148304655E+01 -0.62157192991E+01  0.15261617161E+02  0.17059978101E+02  0.00000000000E+00 0.  1.
         14    1    4    4    0    0 -0.27632103846E+02  0.40865040258E+01 -0.93515175603E+02  0.97597749698E+02  0.00000000000E+00 0. -1.
         -5    1    5    5    0  502 -0.51542627338E+02 -0.15467414304E+02 -0.38201169885E+02  0.66161187405E+02  0.47000000000E+01 0.  1.
         13    1    6    6    0    0  0.46262448065E+02 -0.36889206160E+02  0.80330311996E+02  0.99769668024E+02  0.00000000000E+00 0. -1.
        -14    1    6    6    0    0 -0.18834894880E+02 -0.95688363316E+01 -0.53046414949E+01  0.21781990618E+02  0.00000000000E+00 0.  1.
</event>
<event>
12    1  0.1039610E+000  0.2504822E+03  0.7818608E-02  0.1114664E+00
         21   -1    0    0  503  502  0.00000000000E+00  0.00000000000E+00  0.20056403120E+03  0.20056403120E+03  0.00000000000E+00 0.  1.
         21   -1    0    0  501  503 -0.00000000000E+00 -0.00000000000E+00 -0.30007683952E+03  0.30007683952E+03  0.00000000000E+00 0.  1.
          6    2    1    2  501    0 -0.15360446447E+03 -0.60796983598E+02 -0.47645121457E+02  0.24484490651E+03  0.17432259156E+03 0.  0.
         24    2    3    3    0    0 -0.82369864189E+02 -0.22926659154E+02  0.41118702349E+02  0.12480476253E+03  0.81086711865E+02 0.  0.
         -6    2    1    2    0  502  0.15360446447E+03  0.60796983598E+02 -0.51867686865E+02  0.25579596421E+03  0.18828359898E+03 0.  0.
        -24    2    5    5    0    0  0.29195731433E+02 -0.15814376737E+02  0.26741620050E+02  0.89819018452E+02  0.79056034477E+02 0.  0.
          5    1    3    3  501    0 -0.71234600281E+02 -0.37870324444E+02 -0.88763823806E+02  0.12004014398E+03  0.47000000000E+01 0. -1.
        -11    1    4    4    0    0  0.14015022655E+02 -0.15615867014E+02  0.46463847673E+01  0.21491045904E+02  0.00000000000E+00 0.  1.
         12    1    4    4    0    0 -0.96384886843E+02 -0.73107921393E+01  0.36472317581E+02  0.10331371663E+03  0.00000000000E+00 0. -1.
         -5    1    5    5    0  502  0.12440873304E+03  0.76611360335E+02 -0.78609306915E+02  0.16597694575E+03  0.47000000000E+01 0.  1.
         11    1    6    6    0    0  0.54173692051E+02  0.96123824362E+00  0.91032175481E+01  0.54941618643E+02  0.00000000000E+00 0. -1.
        -12    1    6    6    0    0 -0.24977960618E+02 -0.16775614981E+02  0.17638402502E+02  0.34877399809E+02  0.00000000000E+00 0.  1.
</event>
<event>
12    1  0.1039610E+000  0.1823640E+03  0.7818608E-02  0.1166325E+00
         21   -1    0    0  501  502  0.00000000000E+00  0.00000000000E+00  0.33554933900E+03  0.33554933900E+03  0.00000000000E+00 0. -1.
         21   -1    0    0  502  503 -0.00000000000E+00 -0.00000000000E+00 -0.16927164228E+03  0.16927164228E+03  0.00000000000E+00 0. -1.
         -6    2    1    2    0  503 -0.42853755179E+02 -0.21234744819E+02  0.24812215300E+03  0.30793058329E+03  0.17598091543E+03 0.  0.
        -24    2    3    3    0    0  0.31907826754E+02  0.24311627272E+02  0.93092193339E+02  0.12982908263E+03  0.81118860987E+02 0.  0.
          6    2    1    2  501    0  0.42853755179E+02  0.21234744819E+02 -0.81844456271E+02  0.19689039799E+03  0.17256869670E+03 0.  0.
         24    2    5    5    0    0  0.27328672889E+02  0.57242827989E+02 -0.10841776401E+03  0.14928954802E+03  0.80680604095E+02 0.  0.
          5    1    5    5  501    0  0.15525082291E+02 -0.36008083170E+02  0.26573307742E+02  0.47600849972E+02  0.47000000000E+01 0. -1.
        -11    1    6    6    0    0  0.21618051973E+01 -0.20648648093E+02 -0.22874961360E+02  0.30891810031E+02  0.00000000000E+00 0.  1.
         12    1    6    6    0    0  0.25166867691E+02  0.77891476082E+02 -0.85542802653E+02  0.11839773799E+03  0.00000000000E+00 0. -1.
         -5    1    3    3    0  503 -0.74761581934E+02 -0.45546372091E+02  0.15502995966E+03  0.17810150065E+03  0.47000000000E+01 0.  1.
         11    1    4    4    0    0 -0.71760257196E+01 -0.54073346637E+01  0.77923529407E+02  0.78439856250E+02  0.00000000000E+00 0. -1.
        -12    1    4    4    0    0  0.39083852474E+02  0.29718961936E+02  0.15168663932E+02  0.51389226383E+02  0.00000000000E+00 0.  1.
</event>
<event>
12    1  0.1039610E+000  0.3288823E+03  0.7818608E-02  0.1071654E+00
         21   -1    0    0  503  502  0.00000000000E+00  0.00000000000E+00  0.94309068433E+02  0.94309068433E+02  0.00000000000E+00 0. -1.
         21   -1    0    0  501  503 -0.00000000000E+00 -0.00000000000E+00 -0.11509305117E+04  0.11509305117E+04  0.00000000000E+00 0. -1.
          6    2    1    2  501    0 -0.10366492908E+03 -0.25951644089E+03 -0.48831300511E+03  0.58862856837E+03  0.17302832117E+03 0.  0.
         24    2    3    3    0    0 -0.59162330137E+02 -0.57843398659E+02 -0.23729643142E+03  0.26353795402E+03  0.79351224094E+02 0.  0.
         -6    2    1    2    0  502  0.10366492908E+03  0.25951644089E+03 -0.56830843817E+03  0.65661101178E+03  0.17340224706E+03 0.  0.
        -24    2    5    5    0    0  0.13645773729E+03  0.16462805575E+03 -0.42201736774E+03  0.47912202285E+03  0.75737330953E+02 0.  0.
          5    1    3    3  501    0 -0.44502598940E+02 -0.20167304223E+03 -0.25101657369E+03  0.32509061435E+03  0.47000000000E+01 0. -1.
        -11    1    4    4    0    0 -0.59438975718E+02 -0.54965837821E+02 -0.11193761409E+03  0.13814580924E+03  0.00000000000E+00 0.  1.
         12    1    4    4    0    0  0.27664558111E+00 -0.28775608379E+01 -0.12535881733E+03  0.12539214478E+03  0.00000000000E+00 0. -1.
         -5    1    5    5    0  502 -0.32792808210E+02  0.94888385139E+02 -0.14629107043E+03  0.17748898893E+03  0.47000000000E+01 0.  1.
         11    1    6    6    0    0  0.73034562399E+02  0.63733091236E+02 -0.26378928902E+03  0.28103512810E+03  0.00000000000E+00 0. -1.
        -12    1    6    6    0    0  0.63423174887E+02  0.10089496451E+03 -0.15822807872E+03  0.19808689475E+03  0.00000000000E+00 0.  1.
</event>
<event>
12    1  0.1039610E+000  0.4031645E+03  0.7818608E-02  0.1042757E+00
         21   -1    0    0  501  502  0.00000000000E+00  0.00000000000E+00  0.27664950316E+04  0.27664950316E+04  0.00000000000E+00 0. -1.
         21   -1    0    0  502  503 -0.00000000000E+00 -0.00000000000E+00 -0.62478369455E+02  0.62478369455E+02  0.00000000000E+00 0.  1.
         -6    2    1    2    0  503  0.36253212638E+03 -0.39640434000E+02  0.17038971691E+04  0.17509446635E+04  0.17187421230E+03 0.  0.
        -24    2    3    3    0    0  0.64439231825E+02 -0.11309127628E+02  0.44612414777E+03  0.45801113849E+03  0.80418510292E+02 0.  0.
          6    2    1    2  501    0 -0.36253212638E+03  0.39640434000E+02  0.10001194930E+04  0.10780287376E+04  0.17001779939E+03 0.  0.
         24    2    5    5    0    0 -0.18513798915E+03  0.31496704489E+02  0.36261026879E+03  0.41623186451E+03  0.80589332936E+02 0.  0.
          5    1    5    5  501    0 -0.17739413723E+03  0.81437295112E+01  0.63750922418E+03  0.66179687305E+03  0.47000000000E+01 0. -1.
        -11    1    6    6    0    0 -0.25775938869E+02 -0.11711772507E+02  0.16538831862E+02  0.32788680961E+02  0.00000000000E+00 0.  1.
         12    1    6    6    0    0 -0.15936205028E+03  0.43208476996E+02  0.34607143693E+03  0.38344318355E+03  0.00000000000E+00 0. -1.
         -5    1    3    3    0  503  0.29809289455E+03 -0.28331306372E+02  0.12577730214E+04  0.12929335250E+04  0.47000000000E+01 0.  1.
         11    1    4    4    0    0  0.62371526443E+02 -0.12599361514E+02  0.44942542465E+03  0.45390765971E+03  0.00000000000E+00 0. -1.
        -12    1    4    4    0    0  0.20677053818E+01  0.12902338854E+01 -0.33012768862E+01  0.41034787808E+01  0.00000000000E+00 0.  1.
</event>
<event>
12    1  0.1039610E+000  0.2470559E+03  0.7818608E-02  0.1115711E+00
         21   -1    0    0  503  502  0.00000000000E+00  0.00000000000E+00  0.21574362719E+04  0.21574362719E+04  0.00000000000E+00 0. -1.
         21   -1    0    0  501  503 -0.00000000000E+00 -0.00000000000E+00 -0.34776631813E+02  0.34776631813E+02  0.00000000000E+00 0. -1.
          6    2    1    2  501    0 -0.85711925531E+02  0.15345709970E+03  0.56880028589E+03  0.61883579317E+03  0.16890339859E+03 0.  0.
         24    2    3    3    0    0 -0.10313987280E+03  0.15592092115E+03  0.56486464215E+03  0.60019757829E+03  0.78840991978E+02 0.  0.
         -6    2    1    2    0  502  0.85711925531E+02 -0.15345709970E+03  0.15538593542E+04  0.15733771105E+04  0.17361170388E+03 0.  0.
        -24    2    5    5    0    0  0.74232219692E+02 -0.79551886531E+02  0.13397607428E+04  0.13465422156E+04  0.79863416164E+02 0.  0.
          5    1    3    3  501    0  0.17427947271E+02 -0.24638214556E+01  0.39356437331E+01  0.18638214878E+02  0.47000000000E+01 0. -1.
        -11    1    4    4    0    0 -0.46916671026E+02  0.86365863349E+02  0.40757487825E+03  0.41925829479E+03  0.00000000000E+00 0.  1.
         12    1    4    4    0    0 -0.56223201777E+02  0.69555057803E+02  0.15728976391E+03  0.18093928350E+03  0.00000000000E+00 0. -1.
         -5    1    5    5    0  502  0.11479705839E+02 -0.73905213166E+02  0.21409861137E+03  0.22683489496E+03  0.47000000000E+01 0.  1.
         11    1    6    6    0    0  0.22096447556E+02  0.14354716855E+02  0.19919398322E+03  0.20092922595E+03  0.00000000000E+00 0. -1.
        -12    1    6    6    0    0  0.52135772136E+02 -0.93906603386E+02  0.11405667596E+04  0.11456129896E+04  0.00000000000E+00 0.  1.
</event>
<event>
12    1  0.1039610E+000  0.3298469E+03  0.7818608E-02  0.1071419E+00
         21   -1    0    0  503  502  0.00000000000E+00  0.00000000000E+00  0.26776959481E+04  0.26776959481E+04  0.00000000000E+00 0.  1.
         21   -1    0    0  501  503 -0.00000000000E+00 -0.00000000000E+00 -0.81060279207E+02  0.81060279207E+02  0.00000000000E+00 0.  1.
          6    2    1    2  501    0 -0.20188530090E+03  0.19270935363E+03  0.22772276696E+04  0.23009921443E+04  0.17579652810E+03 0.  0.
         24    2    3    3    0    0 -0.72902617811E+02  0.12461706054E+03  0.81237560410E+03  0.82888930934E+03  0.79114862994E+02 0.  0.
         -6    2    1    2    0  502  0.20188530090E+03 -0.19270935363E+03  0.31940799925E+03  0.45776408295E+03  0.17213923423E+03 0.  0.
        -24    2    5    5    0    0  0.71103435879E+02 -0.26560113846E+02  0.15551284948E+03  0.19019507089E+03  0.78922622836E+02 0.  0.
          5    1    3    3  501    0 -0.12898268309E+03  0.68092293087E+02  0.14648520655E+04  0.14721028350E+04  0.47000000000E+01 0. -1.
        -11    1    4    4    0    0  0.15246848394E+02  0.57067886472E+01  0.97554634087E+02  0.98903692825E+02  0.00000000000E+00 0.  1.
         12    1    4    4    0    0 -0.88149466205E+02  0.11891027190E+03  0.71482097001E+03  0.72998561652E+03  0.00000000000E+00 0. -1.
         -5    1    5    5    0  502  0.13078186502E+03 -0.16614923978E+03  0.16389514977E+03  0.26756901206E+03  0.47000000000E+01 0.  1.
         11    1    6    6    0    0  0.60225891608E+02 -0.26971757335E+02  0.46708334049E+02  0.80847400597E+02  0.00000000000E+00 0. -1.
        -12    1    6    6    0    0  0.10877544271E+02  0.41164348843E+00  0.10880451543E+03  0.10934767029E+03  0.00000000000E+00 0.  1.
</event>
<event>
12    1  0.1039610E+000  0.1847683E+03  0.7818608E-02  0.1163506E+00
         21   -1    0    0  503  502  0.00000000000E+00  0.00000000000E+00  0.51109104327E+03  0.51109104327E+03  0.00000000000E+00 0.  1.
         21   -1    0    0  501  503 -0.00000000000E+00 -0.00000000000E+00 -0.72809376345E+02  0.72809376345E+02  0.00000000000E+00 0.  1.
          6    2    1    2  501    0  0.61657815084E+02  0.23260854526E+02  0.13326706603E+03  0.22781447125E+03  0.17261682684E+03 0.  0.
         24    2    3    3    0    0 -0.29117107803E+02  0.38579981709E+02  0.61110998219E+02  0.11075316080E+03  0.78711419554E+02 0.  0.
         -6    2    1    2    0  502 -0.61657815084E+02 -0.23260854526E+02  0.30501460090E+03  0.35608594837E+03  0.17152417424E+03 0.  0.
        -24    2    5    5    0    0 -0.10280427115E+03 -0.10306760807E+02  0.27175774731E+03  0.30141467894E+03  0.79520990760E+02 0.  0.
          5    1    3    3  501    0  0.90774922887E+02 -0.15319127183E+02  0.72156067811E+02  0.11706131045E+03  0.47000000000E+01 0. -1.
        -13    1    4    4    0    0 -0.92753370161E+01 -0.24075792391E+02  0.24205565046E+02  0.35377747741E+02  0.00000000000E+00 0.  1.
         14    1    4    4    0    0 -0.19841770787E+02  0.62655774100E+02  0.36905433173E+02  0.75375413058E+02  0.00000000000E+00 0. -1.
         -5    1    5    5    0  502  0.41146456061E+02 -0.12954093719E+02  0.33256853586E+02  0.54671269429E+02  0.47000000000E+01 0.  1.
         13    1    6    6    0    0 -0.10020170570E+03  0.10307308443E+00  0.15762100562E+03  0.18677466065E+03  0.00000000000E+00 0. -1.
        -14    1    6    6    0    0 -0.26025654447E+01 -0.10409833891E+02  0.11413674169E+03  0.11464001828E+03  0.00000000000E+00 0.  1.
</event>
<event>
12    1  0.1039610E+000  0.2469041E+03  0.7818608E-02  0.1115810E+00
         21   -1    0    0  501  502  0.00000000000E+00  0.00000000000E+00  0.11046074389E+03  0.11046074389E+03  0.00000000000E+00 0.  1.
         21   -1    0    0  502  503 -0.00000000000E+00 -0.00000000000E+00 -0.54762633347E+03  0.54762633347E+03  0.00000000000E+00 0.  1.
         -6    2    1    2    0  503  0.17079265006E+03  0.20861251432E+02 -0.19245648699E+03  0.31046059525E+03  0.17245567746E+03 0.  0.
        -24    2    3    3    0    0  0.10837604476E+03  0.79358123843E+02 -0.10525758484E+03  0.18821716910E+03  0.79394361766E+02 0.  0.
          6    2    1    2  501    0 -0.17079265006E+03 -0.20861251432E+02 -0.24470910259E+03  0.34762648212E+03  0.17707711611E+03 0.  0.
         24    2    5    5    0    0 -0.87620717048E+02 -0.79968297480E+02 -0.14224524358E+03  0.20294702353E+03  0.82954604334E+02 0.  0.
          5    1    5    5  501    0 -0.83171933015E+02  0.59107046048E+02 -0.10246385901E+03  0.14467945859E+03  0.47000000000E+01 0. -1.
        -13    1    6    6    0    0  0.68283278795E+01 -0.41611829289E+02 -0.33167544969E+02  0.53649384318E+02  0.00000000000E+00 0.  1.
         14    1    6    6    0    0 -0.94449044928E+02 -0.38356468191E+02 -0.10907769861E+03  0.14929763921E+03  0.00000000000E+00 0. -1.
         -5    1    3    3    0  503  0.62416605306E+02 -0.58496872412E+02 -0.87198902155E+02  0.12224342615E+03  0.47000000000E+01 0.  1.
         13    1    4    4    0    0  0.72913997343E+02  0.62765258380E+01 -0.36438458227E+02  0.81753330349E+02  0.00000000000E+00 0. -1.
        -14    1    4    4    0    0  0.35462047414E+02  0.73081598005E+02 -0.68819126609E+02  0.10646383875E+03  0.00000000000E+00 0.  1.
</event>
<event>
12    1  0.1039610E+000  0.2054072E+03  0.7818608E-02  0.1145894E+00
         21   -1    0    0  501  502  0.00000000000E+00  0.00000000000E+00  0.16325373209E+03  0.16325373209E+03  0.00000000000E+00 0.  1.
         21   -1    0    0  502  503 -0.00000000000E+00 -0.00000000000E+00 -0.27781303128E+03  0.27781303128E+03  0.00000000000E+00 0.  1.
         -6    2    1    2    0  503  0.11203001896E+03  0.71829637401E+01 -0.12149740111E+03  0.23864985545E+03  0.17201690300E+03 0.  0.
        -24    2    3    3    0    0  0.53312899392E+02 -0.47715630882E+02 -0.18867922690E+02  0.10820271803E+03  0.78947976611E+02 0.  0.
          6    2    1    2  501    0 -0.11203001896E+03 -0.71829637401E+01  0.69381019147E+01  0.20241690792E+03  0.16829185137E+03 0.  0.
         24    2    5    5    0    0 -0.33941113306E+02  0.51933209943E+02  0.14503770823E+02  0.10407094449E+03  0.82288180510E+02 0.  0.
          5    1    5    5  501    0 -0.78088905650E+02 -0.59116173683E+02 -0.75656689087E+01  0.98345963428E+02  0.47000000000E+01 0. -1.
        -13    1    6    6    0    0 -0.91029720013E+01 -0.16808609489E+02 -0.15943322404E+02  0.24891423854E+02  0.00000000000E+00 0.  1.
         14    1    6    6    0    0 -0.24838141305E+02  0.68741819432E+02  0.30447093227E+02  0.79179520637E+02  0.00000000000E+00 0. -1.
         -5    1    3    3    0  503  0.58717119565E+02  0.54898594622E+02 -0.10262947842E+03  0.13044713742E+03  0.47000000000E+01 0.  1.
         13    1    4    4    0    0  0.13051461370E+02 -0.19182992677E+02  0.30552489978E+02  0.38363817534E+02  0.00000000000E+00 0. -1.
        -14    1    4    4    0    0  0.40261438022E+02 -0.28532638205E+02 -0.49420412669E+02  0.69838900499E+02  0.00000000000E+00 0.  1.
</event>
<event>
12    1  0.1104559E+000  0.1987102E+03  0.7818608E-02  0.1151060E+00
         21   -1    0    0  503  502  0.00000000000E+00  0.00000000000E+00  0.12796967151E+03  0.12796967151E+03  0.00000000000E+00 0.  1.
         21   -1    0    0  501  503 -0.00000000000E+00 -0.00000000000E+00 -0.89211284688E+03  0.89211284688E+03  0.00000000000E+00 0.  1.
          6    2    1    2  501    0  0.76562931199E+02  0.60044648948E+02  0.31380211367E+02  0.20011715674E+03  0.17203173096E+03 0.  0.
         24    2    3    3    0    0  0.64794128421E+02 -0.29042862260E+02  0.21874450126E+01  0.10551590422E+03  0.78019575753E+02 0.  0.
         -6    2    1    2    0  502 -0.76562931199E+02 -0.60044648948E+02 -0.79552338674E+03  0.81996536164E+03  0.17325845765E+03 0.  0.
        -24    2    5    5    0    0 -0.13809230576E+02 -0.21365987821E+02 -0.66652664067E+03  0.67131706443E+03  0.75905454265E+02 0.  0.
          5    1    3    3  501    0  0.11768802777E+02  0.89087511207E+02  0.29192766355E+02  0.94601252526E+02  0.47000000000E+01 0. -1.
        -11    1    4    4    0    0  0.14352623492E+02 -0.67539036898E+01 -0.35390859872E+02  0.38783063038E+02  0.00000000000E+00 0.  1.
         12    1    4    4    0    0  0.50441504929E+02 -0.22288958570E+02  0.37578304884E+02  0.66732841178E+02  0.00000000000E+00 0. -1.
         -5    1    5    5    0  502 -0.62753700623E+02 -0.38678661127E+02 -0.12899674606E+03  0.14864829721E+03  0.47000000000E+01 0.  1.
         11    1    6    6    0    0 -0.10452442952E+02 -0.48952357802E+02 -0.49862234494E+03  0.50112855613E+03  0.00000000000E+00 0. -1.
        -12    1    6    6    0    0 -0.33567876239E+01  0.27586369981E+02 -0.16790429574E+03  0.17018850830E+03  0.00000000000E+00 0.  1.
</event>
<event>
12    1  0.1039610E+000  0.3090892E+03  0.7818608E-02  0.1080876E+00
         21   -1    0    0  501  502  0.00000000000E+00  0.00000000000E+00  0.48184360388E+03  0.48184360388E+03  0.00000000000E+00 0.  1.
         21   -1    0    0  502  503 -0.00000000000E+00 -0.00000000000E+00 -0.24897817696E+03  0.24897817696E+03  0.00000000000E+00 0. -1.
         -6    2    1    2    0  503  0.36383740605E+02  0.25421949372E+03  0.28225526320E+03  0.41857396144E+03  0.17200232565E+03 0.  0.
        -24    2    3    3    0    0 -0.26055626394E+02  0.69340631508E+02  0.67989654637E+02  0.12872795189E+03  0.80382047840E+02 0.  0.
          6    2    1    2  501    0 -0.36383740605E+02 -0.25421949372E+03 -0.49389836286E+02  0.31224781940E+03  0.17061071837E+03 0.  0.
         24    2    5    5    0    0  0.19301731260E+02 -0.23134405353E+03 -0.24379512470E+02  0.24688908748E+03  0.80419108130E+02 0.  0.
          5    1    5    5  501    0 -0.55685471865E+02 -0.22875440184E+02 -0.25010323816E+02  0.65358731917E+02  0.47000000000E+01 0. -1.
        -11    1    6    6    0    0 -0.70997689649E+01 -0.73029673238E+02  0.27277506917E+02  0.78280280251E+02  0.00000000000E+00 0.  1.
         12    1    6    6    0    0  0.26401500225E+02 -0.15831438030E+03 -0.51657019386E+02  0.16860880723E+03  0.00000000000E+00 0. -1.
         -5    1    3    3    0  503  0.62439366999E+02  0.18487886221E+03  0.21426560856E+03  0.28984600956E+03  0.47000000000E+01 0.  1.
         13    1    4    4    0    0  0.22950158931E+02  0.41954252555E+02  0.51363147672E+02  0.70178643768E+02  0.00000000000E+00 0. -1.
        -14    1    4    4    0    0 -0.49005785325E+02  0.27386378953E+02  0.16626506965E+02  0.58549308120E+02  0.00000000000E+00 0.  1.
</event>
<event>
12    1  0.1039610E+000  0.2241959E+03  0.7818608E-02  0.1130878E+00
         21   -1    0    0  503  502  0.00000000000E+00  0.00000000000E+00  0.18167053072E+03  0.18167053072E+03  0.00000000000E+00 0. -1.
         21   -1    0    0  501  503 -0.00000000000E+00 -0.00000000000E+00 -0.45152026410E+03  0.45152026410E+03  0.00000000000E+00 0. -1.
          6    2    1    2  501    0  0.13166280217E+03  0.56134383861E+02 -0.33234882234E+03  0.40089842032E+03  0.17256199227E+03 0.  0.
         24    2    3    3    0    0  0.26388263174E+02  0.57941949512E+02 -0.23993373043E+03  0.26072483127E+03  0.79722222087E+02 0.  0.
         -6    2    1    2    0  502 -0.13166280217E+03 -0.56134383861E+02  0.62499088956E+02  0.23229237451E+03  0.17195187875E+03 0.  0.
        -24    2    5    5    0    0 -0.13444025672E+03 -0.35824604480E+01  0.94663693386E+01  0.15743265063E+03  0.81292131762E+02 0.  0.
          5    1    3    3  501    0  0.10527453900E+03 -0.18075656515E+01 -0.92415091907E+02  0.14017358905E+03  0.47000000000E+01 0. -1.
        -13    1    4    4    0    0  0.25593294756E+02  0.75692210317E+02 -0.16001841347E+03  0.17885810042E+03  0.00000000000E+00 0.  1.
         14    1    4    4    0    0  0.79496841833E+00 -0.17750260805E+02 -0.79915316964E+02  0.81866730843E+02  0.00000000000E+00 0. -1.
         -5    1    5    5    0  502  0.27774545520E+01 -0.52551923413E+02  0.53032719618E+02  0.74859723872E+02  0.47000000000E+01 0.  1.
         13    1    6    6    0    0  0.96813462775E+01 -0.55694911680E+01 -0.56320698738E+01  0.12508713310E+02  0.00000000000E+00 0. -1.
        -14    1    6    6    0    0 -0.14412160300E+03  0.19870307200E+01  0.15098439212E+02  0.14492393732E+03  0.00000000000E+00 0.  1.
</event>
<event>
12    1  0.1039610E+000  0.2076805E+03  0.7818608E-02  0.1143631E+00
         21   -1    0    0  501  502  0.00000000000E+00  0.00000000000E+00  0.33838540382E+03  0.33838540382E+03  0.00000000000E+00 0. -1.
         21   -1    0    0  502  503 -0.00000000000E+00 -0.00000000000E+00 -0.14665686265E+03  0.14665686265E+03  0.00000000000E+00 0. -1.
         -6    2    1    2    0  503  0.23650161439E+02 -0.11247935653E+03  0.68576892648E+01  0.20779370962E+03  0.17297474404E+03 0.  0.
        -24    2    3    3    0    0  0.58154819739E+02 -0.12294892900E+03 -0.24750418345E+02  0.15961336240E+03  0.79783582561E+02 0.  0.
          6    2    1    2  501    0 -0.23650161439E+02  0.11247935653E+03  0.18487085191E+03  0.27724855685E+03  0.17169331556E+03 0.  0.
         24    2    5    5    0    0  0.76407372261E+01  0.67295100190E+02  0.25300021779E+02  0.10841231315E+03  0.80784448782E+02 0.  0.
          5    1    5    5  501    0 -0.31290898665E+02  0.45184256340E+02  0.15957083013E+03  0.16883624370E+03  0.47000000000E+01 0. -1.
        -13    1    6    6    0    0  0.31854014111E+01 -0.95975847793E+01 -0.17563676450E+02  0.20266799110E+02  0.00000000000E+00 0.  1.
         14    1    6    6    0    0  0.44553358150E+01  0.76892684969E+02  0.42863698229E+02  0.88145514037E+02  0.00000000000E+00 0. -1.
         -5    1    3    3    0  503 -0.34504658300E+02  0.10469572469E+02  0.31608107610E+02  0.48180347226E+02  0.47000000000E+01 0.  1.
         13    1    4    4    0    0 -0.17896071961E+02 -0.10629963249E+02 -0.10234006936E+02  0.23194835811E+02  0.00000000000E+00 0. -1.
        -14    1    4    4    0    0  0.76050891700E+02 -0.11231896575E+03 -0.14516411409E+02  0.13641852659E+03  0.00000000000E+00 0.  1.
</event>
<event>
12    1  0.1039610E+000  0.1854095E+03  0.7818608E-02  0.1162680E+00
         21   -1    0    0  503  502  0.00000000000E+00  0.00000000000E+00  0.50335549729E+02  0.50335549729E+02  0.00000000000E+00 0.  1.
         21   -1    0    0  501  503 -0.00000000000E+00 -0.00000000000E+00 -0.70940999462E+03  0.70940999462E+03  0.00000000000E+00 0.  1.
          6    2    1    2  501    0  0.26150062072E+02 -0.63584640864E+02 -0.25595122087E+03  0.31605019394E+03  0.17219136251E+03 0.  0.
         24    2    3    3    0    0  0.15533545440E+02 -0.60701755116E+02 -0.27536490964E+03  0.29324662476E+03  0.79004780622E+02 0.  0.
         -6    2    1    2    0  502 -0.26150062072E+02  0.63584640864E+02 -0.40312322402E+03  0.44369535041E+03  0.17213482486E+03 0.  0.
        -24    2    5    5    0    0 -0.73194457184E+02  0.53681001984E+01 -0.27261455978E+03  0.29317311896E+03  0.79028693613E+02 0.  0.
          5    1    3    3  501    0  0.10616516632E+02 -0.28828857479E+01  0.19413688773E+02  0.22803569182E+02  0.47000000000E+01 0. -1.
        -11    1    4    4    0    0 -0.20350576770E+02 -0.63598005933E+01 -0.15441437634E+03  0.15587941704E+03  0.00000000000E+00 0.  1.
         12    1    4    4    0    0  0.35884122210E+02 -0.54341954523E+02 -0.12095053330E+03  0.13736720771E+03  0.00000000000E+00 0. -1.
         -5    1    5    5    0  502  0.47044395112E+02  0.58216540665E+02 -0.13050866424E+03  0.15052223145E+03  0.47000000000E+01 0.  1.
         11    1    6    6    0    0 -0.42715996815E+02  0.17470769336E+02 -0.24776912720E+03  0.25203060242E+03  0.00000000000E+00 0. -1.
        -12    1    6    6    0    0 -0.30478460368E+02 -0.12102669138E+02 -0.24845432578E+02  0.41142516533E+02  0.00000000000E+00 0.  1.
</event>
<event>
12    1  0.1039610E+000  0.1797233E+03  0.7818608E-02  0.1168475E+00
         21   -1    0    0  501  502  0.00000000000E+00  0.00000000000E+00  0.91193838331E+02  0.91193838331E+02  0.00000000000E+00 0. -1.
         21   -1    0    0  502  503 -0.00000000000E+00 -0.00000000000E+00 -0.53872128201E+03  0.53872128201E+03  0.00000000000E+00 0. -1.
         -6    2    1    2    0  503  0.52860279965E+02 -0.40128864418E+01 -0.40903816845E+03  0.44611661945E+03  0.16999265410E+03 0.  0.
        -24    2    3    3    0    0  0.77709482866E+02  0.44318155907E+01 -0.40427706887E+03  0.41903241840E+03  0.78037263795E+02 0.  0.
          6    2    1    2  501    0 -0.52860279965E+02  0.40128864418E+01 -0.38489275229E+02  0.18379850089E+03  0.17172696983E+03 0.  0.
         24    2    5    5    0    0 -0.70853002376E+02 -0.19369617512E+02 -0.79060967035E+02  0.13341366461E+03  0.78442586440E+02 0.  0.
          5    1    5    5  501    0  0.17992722411E+02  0.23382503954E+02  0.40571691807E+02  0.50384836280E+02  0.47000000000E+01 0. -1.
        -11    1    6    6    0    0  0.75797403554E+01  0.17040936576E+02 -0.25868895429E+02  0.31891154478E+02  0.00000000000E+00 0.  1.
         12    1    6    6    0    0 -0.78432742732E+02 -0.36410554087E+02 -0.53192071607E+02  0.10152251013E+03  0.00000000000E+00 0. -1.
         -5    1    3    3    0  503 -0.24849202901E+02 -0.84447020325E+01 -0.47610995779E+01  0.27084201048E+02  0.47000000000E+01 0.  1.
         11    1    4    4    0    0 -0.10531872714E+02 -0.62599376987E+01 -0.13302392475E+03  0.13358694442E+03  0.00000000000E+00 0. -1.
        -12    1    4    4    0    0  0.88241355580E+02  0.10691753289E+02 -0.27125314412E+03  0.28544547398E+03  0.00000000000E+00 0.  1.
</event>
<event>
12    1  0.1039610E+000  0.3008788E+03  0.7818608E-02  0.1084886E+00
         21   -1    0    0  501  502  0.00000000000E+00  0.00000000000E+00  0.28569422471E+03  0.28569422471E+03  0.00000000000E+00 0.  1.
         21   -1    0    0  502  503 -0.00000000000E+00 -0.00000000000E+00 -0.43772619656E+03  0.43772619656E+03  0.00000000000E+00 0.  1.
         -6    2    1    2    0  503  0.88246582502E+02 -0.23072997776E+03  0.11454148655E+03  0.32194374758E+03  0.17176799033E+03 0.  0.
        -24    2    3    3    0    0  0.95578675770E+02 -0.24714997123E+03  0.12274020496E+03  0.30162910359E+03  0.75475603186E+02 0.  0.
          6    2    1    2  501    0 -0.88246582502E+02  0.23072997776E+03 -0.26657345840E+03  0.40147667369E+03  0.17058232273E+03 0.  0.
         24    2    5    5    0    0 -0.10710037172E+03  0.18703575954E+03 -0.14859491554E+03  0.27417515504E+03  0.81478228678E+02 0.  0.
          5    1    5    5  501    0  0.18853789222E+02  0.43694218227E+02 -0.11797854286E+03  0.12730151865E+03  0.47000000000E+01 0. -1.
        -11    1    6    6    0    0 -0.24052644410E+02  0.66172977034E+01 -0.41777063880E+02  0.48658415495E+02  0.00000000000E+00 0.  1.
         12    1    6    6    0    0 -0.83047727314E+02  0.18041846183E+03 -0.10681785166E+03  0.22551673955E+03  0.00000000000E+00 0. -1.
         -5    1    3    3    0  503 -0.73320932684E+01  0.16419993466E+02 -0.81987184077E+01  0.20314643995E+02  0.47000000000E+01 0.  1.
         11    1    4    4    0    0 -0.74718984607E-01 -0.95992595810E+02  0.33048761828E+02  0.10152243443E+03  0.00000000000E+00 0. -1.
        -12    1    4    4    0    0  0.95653394755E+02 -0.15115737542E+03  0.89691443134E+02  0.20010666916E+03  0.00000000000E+00 0.  1.
</event>
<event>
12    1  0.1039610E+000  0.1916324E+03  0.7818608E-02  0.1157258E+00
         21   -1    0    0  501  502  0.00000000000E+00  0.00000000000E+00  0.54970616287E+03  0.54970616287E+03  0.00000000000E+00 0. -1.
         21   -1    0    0  502  503 -0.00000000000E+00 -0.00000000000E+00 -0.13523548486E+03  0.13523548486E+03  0.00000000000E+00 0. -1.
         -6    2    1    2    0  503  0.60543703280E+02 -0.55509083503E+02 -0.36790509460E+02  0.19513204075E+03  0.17313628558E+03 0.  0.
        -24    2    3    3    0    0 -0.26461841426E+02 -0.38014938803E+02 -0.50213812423E+02  0.10525276077E+03  0.80070918984E+02 0.  0.
          6    2    1    2  501    0 -0.60543703280E+02  0.55509083503E+02  0.45126118747E+03  0.48980960697E+03  0.17184293239E+03 0.  0.
         24    2    5    5    0    0  0.32227948870E+02  0.43939971421E+02  0.20204609770E+03  0.22359414017E+03  0.78755013470E+02 0.  0.
          5    1    5    5  501    0 -0.92771652151E+02  0.11569112082E+02  0.24921508977E+03  0.26621546680E+03  0.47000000000E+01 0. -1.
        -11    1    6    6    0    0  0.25803073239E+02  0.63236668823E+02  0.11120172305E+03  0.13050095050E+03  0.00000000000E+00 0.  1.
         12    1    6    6    0    0  0.64248756318E+01 -0.19296697402E+02  0.90844374653E+02  0.93093189673E+02  0.00000000000E+00 0. -1.
         -5    1    3    3    0  503  0.87005544706E+02 -0.17494144701E+02  0.13423302962E+02  0.89879279987E+02  0.47000000000E+01 0.  1.
         13    1    4    4    0    0  0.19939898483E+02 -0.13286103928E+02 -0.46781892114E+02  0.52561064856E+02  0.00000000000E+00 0. -1.
        -14    1    4    4    0    0 -0.46401739909E+02 -0.24728834875E+02 -0.34319203090E+01  0.52691695910E+02  0.00000000000E+00 0.  1.
</event>
<event>
12    1  0.1039610E+000  0.7962391E+03  0.7818608E-02  0.9565950E-01
         21   -1    0    0  503  502  0.00000000000E+00  0.00000000000E+00  0.44368404576E+03  0.44368404576E+03  0.00000000000E+00 0.  1.
         21   -1    0    0  501  503 -0.00000000000E+00 -0.00000000000E+00 -0.15101557526E+04  0.15101557526E+04  0.00000000000E+00 0.  1.
          6    2    1    2  501    0  0.62129839341E+03  0.46719340900E+03 -0.30304452773E+03  0.85074520275E+03  0.16628300920E+03 0.  0.
         24    2    3    3    0    0  0.18458880265E+03  0.19175691666E+03 -0.80503583880E+02  0.28849340003E+03  0.76836668927E+02 0.  0.
         -6    2    1    2    0  502 -0.62129839341E+03 -0.46719340900E+03 -0.76342717908E+03  0.11030945956E+04  0.17238112997E+03 0.  0.
        -24    2    5    5    0    0 -0.52164109839E+03 -0.42091537482E+03 -0.58361142351E+03  0.89231264937E+03  0.79626517418E+02 0.  0.
          5    1    3    3  501    0  0.43670959076E+03  0.27543649234E+03 -0.22254094385E+03  0.56225180272E+03  0.47000000000E+01 0. -1.
        -13    1    4    4    0    0  0.48305160371E+01  0.34693670467E+02  0.40283481893E+01  0.35259215033E+02  0.00000000000E+00 0.  1.
         14    1    4    4    0    0  0.17975828661E+03  0.15706324619E+03 -0.84531932070E+02  0.25323418500E+03  0.00000000000E+00 0. -1.
         -5    1    5    5    0  502 -0.99657295017E+02 -0.46278034176E+02 -0.17981575556E+03  0.21078194620E+03  0.47000000000E+01 0.  1.
         13    1    6    6    0    0 -0.35130912866E+03 -0.26408939168E+03 -0.42710607926E+03  0.61284656613E+03  0.00000000000E+00 0. -1.
        -14    1    6    6    0    0 -0.17033196973E+03 -0.15682598314E+03 -0.15650534425E+03  0.27946608324E+03  0.00000000000E+00 0.  1.
</event>
<event>
12    1  0.1039610E+000  0.1797128E+03  0.7818608E-02  0.1169901E+00
         21   -1    0    0  503  502  0.00000000000E+00  0.00000000000E+00  0.20068666481E+02  0.20068666481E+02  0.00000000000E+00 0. -1.
         21   -1    0    0  501  503 -0.00000000000E+00 -0.00000000000E+00 -0.15491501364E+04  0.15491501364E+04  0.00000000000E+00 0. -1.
          6    2    1    2  501    0 -0.16751735974E+01 -0.63378158385E+00 -0.73638519846E+03  0.75799725953E+03  0.17970385932E+03 0.  0.
         24    2    3    3    0    0 -0.55450303326E+02 -0.30434341502E+02 -0.59936395058E+03  0.60774164293E+03  0.78177835827E+02 0.  0.
         -6    2    1    2    0  502  0.16751735974E+01  0.63378158385E+00 -0.79269627150E+03  0.81122154339E+03  0.17236532635E+03 0.  0.
        -24    2    5    5    0    0 -0.32143785207E+02 -0.56861371808E+01 -0.75717985542E+03  0.76155093681E+03  0.74652131955E+02 0.  0.
          5    1    3    3  501    0  0.53775129728E+02  0.29800559918E+02 -0.13702124788E+03  0.15025561659E+03  0.47000000000E+01 0. -1.
        -11    1    4    4    0    0 -0.44761231886E+02 -0.19553358580E+02 -0.14279978532E+03  0.15092276302E+03  0.00000000000E+00 0.  1.
         12    1    4    4    0    0 -0.10689071440E+02 -0.10880982922E+02 -0.45656416527E+03  0.45681887991E+03  0.00000000000E+00 0. -1.
         -5    1    5    5    0  502  0.33818958804E+02  0.63199187646E+01 -0.35516416072E+02  0.49670606583E+02  0.47000000000E+01 0.  1.
         13    1    6    6    0    0 -0.13319732881E+02 -0.50079262514E+01 -0.22452224809E+02  0.26581892488E+02  0.00000000000E+00 0. -1.
        -14    1    6    6    0    0 -0.18824052326E+02 -0.67821092938E+00 -0.73472763062E+03  0.73496904432E+03  0.00000000000E+00 0.  1.
</event>
<event>
12    1  0.1039610E+000  0.1935186E+03  0.7818608E-02  0.1156424E+00
         21   -1    0    0  503  502  0.00000000000E+00  0.00000000000E+00  0.39721117776E+02  0.39721117776E+02  0.00000000000E+00 0.  1.
         21   -1    0    0  501  503 -0.00000000000E+00 -0.00000000000E+00 -0.10733571204E+04  0.10733571204E+04  0.00000000000E+00 0.  1.
          6    2    1    2  501    0  0.38232515082E+02 -0.78430780196E+02 -0.30006785474E+03  0.35441384806E+03  0.16719852199E+03 0.  0.
         24    2    3    3    0    0 -0.15274379144E+02  0.72151449760E+01 -0.83241138505E+02  0.11517729754E+03  0.77790473417E+02 0.  0.
         -6    2    1    2    0  502 -0.38232515082E+02  0.78430780196E+02 -0.73356814790E+03  0.75866439014E+03  0.17273192165E+03 0.  0.
        -24    2    5    5    0    0 -0.55536831639E+02  0.23144476667E+02 -0.23085333337E+03  0.25260086698E+03  0.83029693476E+02 0.  0.
          5    1    3    3  501    0  0.53506894227E+02 -0.85645925172E+02 -0.21682671624E+03  0.23923655051E+03  0.47000000000E+01 0.  1.
        -11    1    4    4    0    0  0.16432476982E+01  0.35032870224E+02 -0.12376347551E+02  0.37191077396E+02  0.00000000000E+00 0.  1.
         12    1    4    4    0    0 -0.16917626842E+02 -0.27817725248E+02 -0.70864790954E+02  0.77986220148E+02  0.00000000000E+00 0. -1.
         -5    1    5    5    0  502  0.17304316556E+02  0.55286303529E+02 -0.50271481453E+03  0.50606352316E+03  0.47000000000E+01 0.  1.
         11    1    6    6    0    0  0.37797804525E+01  0.35782738713E+02 -0.48249261812E+02  0.60188723159E+02  0.00000000000E+00 0. -1.
        -12    1    6    6    0    0 -0.59316612091E+02 -0.12638262046E+02 -0.18260407156E+03  0.19241214382E+03  0.00000000000E+00 0.  1.
</event>
<event>
12    1  0.1039610E+000  0.1991391E+03  0.7818608E-02  0.1150706E+00
         21   -1    0    0  501  502  0.00000000000E+00  0.00000000000E+00  0.38503895518E+03  0.38503895518E+03  0.00000000000E+00 0.  1.
         21   -1    0    0  502  503 -0.00000000000E+00 -0.00000000000E+00 -0.11040490311E+03  0.11040490311E+03  0.00000000000E+00 0.  1.
         -6    2    1    2    0  503  0.15649640749E+02  0.99022677969E+02  0.20432164417E+03  0.28531335822E+03  0.17206387214E+03 0.  0.
        -24    2    3    3    0    0 -0.47488781650E+02  0.67202037159E+02  0.72306487445E+02  0.13548310370E+03  0.79725435596E+02 0.  0.
          6    2    1    2  501    0 -0.15649640749E+02 -0.99022677969E+02  0.70312407901E+02  0.21013050008E+03  0.17076472221E+03 0.  0.
         24    2    5    5    0    0 -0.55559973242E+02 -0.59257720712E+02  0.94225295525E+02  0.14874644140E+03  0.81539618725E+02 0.  0.
          5    1    5    5  501    0  0.39910332492E+02 -0.39764957257E+02 -0.23912887624E+02  0.61384058678E+02  0.47000000000E+01 0. -1.
        -11    1    6    6    0    0 -0.55434771782E+02 -0.19739250237E+01  0.31459383527E+02  0.63769923274E+02  0.00000000000E+00 0.  1.
         12    1    6    6    0    0 -0.12520145995E+00 -0.57283795689E+02  0.62765911998E+02  0.84976518126E+02  0.00000000000E+00 0. -1.
         -5    1    3    3    0  503  0.63138422399E+02  0.31820640811E+02  0.13201515672E+03  0.14983025452E+03  0.47000000000E+01 0.  1.
         11    1    4    4    0    0 -0.24660110260E+02 -0.33638388727E+01  0.53444583104E+02  0.58955575760E+02  0.00000000000E+00 0. -1.
        -12    1    4    4    0    0 -0.22828671390E+02  0.70565876031E+02  0.18861904341E+02  0.76527527942E+02  0.00000000000E+00 0.  1.
</event>
<event>
12    1  0.1039610E+000  0.3395585E+03  0.7818608E-02  0.1067053E+00
         21   -1    0    0  501  502  0.00000000000E+00  0.00000000000E+00  0.16517914748E+04  0.16517914748E+04  0.00000000000E+00 0. -1.
         21   -1    0    0  502  503 -0.00000000000E+00 -0.00000000000E+00 -0.69761588940E+02  0.69761588940E+02  0.00000000000E+00 0. -1.
         -6    2    1    2    0  503 -0.28980113079E+03 -0.35336123528E+02  0.76055269677E+03  0.83291077106E+03  0.17339726338E+03 0.  0.
        -24    2    3    3    0    0 -0.17365270512E+03  0.13516545548E+02  0.59297293882E+03  0.62319166049E+03  0.80081087267E+02 0.  0.
          6    2    1    2  501    0  0.28980113079E+03  0.35336123528E+02  0.82147718905E+03  0.88864229264E+03  0.17212499851E+03 0.  0.
         24    2    5    5    0    0  0.18956611268E+03  0.57573203037E+02  0.39038723189E+03  0.44546942826E+03  0.82406528308E+02 0.  0.
          5    1    5    5  501    0  0.10023501811E+03 -0.22237079509E+02  0.43108995716E+03  0.44317286438E+03  0.47000000000E+01 0. -1.
        -11    1    6    6    0    0  0.14680513664E+03  0.18493529549E+02  0.33070072415E+03  0.36229370369E+03  0.00000000000E+00 0.  1.
         12    1    6    6    0    0  0.42760976040E+02  0.39079673488E+02  0.59686507737E+02  0.83175724569E+02  0.00000000000E+00 0. -1.
         -5    1    3    3    0  503 -0.11614842567E+03 -0.48852669076E+02  0.16757975795E+03  0.20971911057E+03  0.47000000000E+01 0.  1.
         11    1    4    4    0    0 -0.61498741057E+02 -0.21514268076E+02  0.31039059997E+03  0.31715498330E+03  0.00000000000E+00 0. -1.
        -12    1    4    4    0    0 -0.11215396406E+03  0.35030813624E+02  0.28258233885E+03  0.30603667719E+03  0.00000000000E+00 0.  1.
</event>
<event>
12    1  0.1039610E+000  0.2226661E+03  0.7818608E-02  0.1132007E+00
         21   -1    0    0  503  502  0.00000000000E+00  0.00000000000E+00  0.12821847836E+04  0.12821847836E+04  0.00000000000E+00 0. -1.
         21   -1    0    0  501  503 -0.00000000000E+00 -0.00000000000E+00 -0.41407844462E+02  0.41407844462E+02  0.00000000000E+00 0. -1.
          6    2    1    2  501    0 -0.93199528183E+02 -0.10611912043E+03  0.79407363331E+03  0.82470184361E+03  0.17214173215E+03 0.  0.
         24    2    3    3    0    0  0.12413173651E+01 -0.21897111654E+02  0.46782864684E+03  0.47474427294E+03  0.77701077942E+02 0.  0.
         -6    2    1    2    0  502  0.93199528183E+02  0.10611912043E+03  0.44670330586E+03  0.49889078450E+03  0.17146647373E+03 0.  0.
        -24    2    5    5    0    0 -0.14567940986E+02  0.30610250146E+02  0.22280549948E+03  0.23914526557E+03  0.79993469264E+02 0.  0.
          5    1    3    3  501    0 -0.94440845548E+02 -0.84222008772E+02  0.32624498647E+03  0.34995757067E+03  0.47000000000E+01 0. -1.
        -13    1    4    4    0    0 -0.20067321414E+02 -0.22290406999E+02  0.43211682836E+03  0.43315645324E+03  0.00000000000E+00 0.  1.
         14    1    4    4    0    0  0.21308638779E+02  0.39329534538E+00  0.35711818488E+02  0.41587819702E+02  0.00000000000E+00 0. -1.
         -5    1    5    5    0  502  0.10776746917E+03  0.75508870279E+02  0.22389780638E+03  0.25974551893E+03  0.47000000000E+01 0.  1.
         11    1    6    6    0    0 -0.34057593322E+02  0.40161764135E+02  0.20314932722E+03  0.20986313662E+03  0.00000000000E+00 0. -1.
        -12    1    6    6    0    0  0.19489652336E+02 -0.95515139885E+01  0.19656172257E+02  0.29282128943E+02  0.00000000000E+00 0.  1.
</event>
<event>
12    1  0.1039610E+000  0.1793558E+03  0.7818608E-02  0.1168693E+00
         21   -1    0    0  501  502  0.00000000000E+00  0.00000000000E+00  0.37719155495E+02  0.37719155495E+02  0.00000000000E+00 0.  1.
         21   -1    0    0  502  503 -0.00000000000E+00 -0.00000000000E+00 -0.12220171579E+04  0.12220171579E+04  0.00000000000E+00 0.  1.
         -6    2    1    2    0  503  0.45833091791E+02 -0.22737204909E+02 -0.24228618591E+03  0.30080212627E+03  0.17076788484E+03 0.  0.
        -24    2    3    3    0    0  0.79899496706E+02  0.26894874920E+02 -0.15870546544E+03  0.19769203885E+03  0.82386003628E+02 0.  0.
          6    2    1    2  501    0 -0.45833091791E+02  0.22737204909E+02 -0.94201181647E+03  0.95893418711E+03  0.17190363592E+03 0.  0.
         24    2    5    5    0    0  0.17075590049E+02 -0.21353506483E+02 -0.27134302342E+03  0.28386366261E+03  0.78765440222E+02 0.  0.
          5    1    5    5  501    0 -0.62908681840E+02  0.44090711392E+02 -0.67066879305E+03  0.67507052450E+03  0.47000000000E+01 0. -1.
        -11    1    6    6    0    0 -0.13752198365E+02  0.24078537963E+01 -0.21460376108E+03  0.21505742254E+03  0.00000000000E+00 0.  1.
         12    1    6    6    0    0  0.30827788414E+02 -0.23761360279E+02 -0.56739262340E+02  0.68806240063E+02  0.00000000000E+00 0. -1.
         -5    1    3    3    0  503 -0.34066404915E+02 -0.49632079829E+02 -0.83580720479E+02  0.10311008742E+03  0.47000000000E+01 0.  1.
         13    1    4    4    0    0  0.43201173113E+02  0.24815859395E+02 -0.15247801147E+03  0.16041107262E+03  0.00000000000E+00 0. -1.
        -14    1    4    4    0    0  0.36698323594E+02  0.20790155243E+01 -0.62274539628E+01  0.37280966229E+02  0.00000000000E+00 0.  1.
</event>
<event>
12    1  0.1039610E+000  0.2682847E+03  0.7818608E-02  0.1102267E+00
         21   -1    0    0  503  502  0.00000000000E+00  0.00000000000E+00  0.11971169599E+03  0.11971169599E+03  0.00000000000E+00 0. -1.
         21   -1    0    0  501  503 -0.00000000000E+00 -0.00000000000E+00 -0.60702752764E+03  0.60702752764E+03  0.00000000000E+00 0. -1.
          6    2    1    2  501    0 -0.16306348803E+03  0.12350966964E+03 -0.27918488658E+03  0.38719615849E+03  0.17358664876E+03 0.  0.
         24    2    3    3    0    0 -0.22239555142E+02  0.88024921299E+02 -0.10060295826E+03  0.15696987293E+03  0.79218692325E+02 0.  0.
         -6    2    1    2    0  502  0.16306348803E+03 -0.12350966964E+03 -0.20813094507E+03  0.33954306514E+03  0.17357034069E+03 0.  0.
        -24    2    5    5    0    0  0.28847359115E+02 -0.35794171219E+02 -0.23517120597E+02  0.94977466353E+02  0.79713683471E+02 0.  0.
          5    1    3    3  501    0 -0.14082393289E+03  0.35484748339E+02 -0.17858192833E+03  0.23022628556E+03  0.47000000000E+01 0. -1.
        -13    1    4    4    0    0 -0.24804541044E+02  0.32389050374E+02 -0.91966970316E+02  0.10060934087E+03  0.00000000000E+00 0.  1.
         14    1    4    4    0    0  0.25649859018E+01  0.55635870925E+02 -0.86359879404E+01  0.56360532059E+02  0.00000000000E+00 0. -1.
         -5    1    5    5    0  502  0.13421612892E+03 -0.87715498419E+02 -0.18461382447E+03  0.24456559879E+03  0.47000000000E+01 0.  1.
         11    1    6    6    0    0  0.34638550527E+01 -0.77002969056E+01  0.29017181628E+02  0.30220683213E+02  0.00000000000E+00 0. -1.
        -12    1    6    6    0    0  0.25383504062E+02 -0.28093874314E+02 -0.52534302224E+02  0.64756783140E+02  0.00000000000E+00 0.  1.
</event>
<event>
12    1  0.1039610E+000  0.1947214E+03  0.7818608E-02  0.1154699E+00
         21   -1    0    0  503  502  0.00000000000E+00  0.00000000000E+00  0.18355129402E+03  0.18355129402E+03  0.00000000000E+00 0.  1.
         21   -1    0    0  501  503 -0.00000000000E+00 -0.00000000000E+00 -0.24203850239E+03  0.24203850239E+03  0.00000000000E+00 0.  1.
          6    2    1    2  501    0 -0.69702315394E+02 -0.55069682432E+02 -0.11291449102E+03  0.22340489472E+03  0.17108179917E+03 0.  0.
         24    2    3    3    0    0 -0.71338610250E+02 -0.46632641453E+02 -0.14715256208E+03  0.18779314622E+03  0.79678031329E+02 0.  0.
         -6    2    1    2    0  502  0.69702315394E+02  0.55069682432E+02  0.54427282651E+02  0.20218490169E+03  0.17327816562E+03 0.  0.
        -24    2    5    5    0    0  0.12712419182E+01  0.20234110089E+02 -0.30068644687E+02  0.87913380068E+02  0.80084978207E+02 0.  0.
          5    1    3    3  501    0  0.16362948565E+01 -0.84370409787E+01  0.34238071062E+02  0.35611748502E+02  0.47000000000E+01 0. -1.
        -11    1    4    4    0    0 -0.56903156534E+02 -0.47730161620E+02 -0.15459855581E+03  0.17151341350E+03  0.00000000000E+00 0.  1.
         12    1    4    4    0    0 -0.14435453716E+02  0.10975201664E+01  0.74459937315E+01  0.16279732712E+02  0.00000000000E+00 0. -1.
         -5    1    5    5    0  502  0.68431073476E+02  0.34835572343E+02  0.84495927339E+02  0.11427152162E+03  0.47000000000E+01 0.  1.
         11    1    6    6    0    0  0.33753090823E+02  0.15514374414E+02 -0.39036821020E+02  0.53887293019E+02  0.00000000000E+00 0. -1.
        -12    1    6    6    0    0 -0.32481848905E+02  0.47197356749E+01  0.89681763325E+01  0.34026087049E+02  0.00000000000E+00 0.  1.
</event>
<event>
12    1  0.1039610E+000  0.2603714E+03  0.7818608E-02  0.1107003E+00
         21   -1    0    0  503  502  0.00000000000E+00  0.00000000000E+00  0.67556472634E+03  0.67556472634E+03  0.00000000000E+00 0. -1.
         21   -1    0    0  501  503 -0.00000000000E+00 -0.00000000000E+00 -0.11091759775E+03  0.11091759775E+03  0.00000000000E+00 0. -1.
          6    2    1    2  501    0 -0.15875930540E+03 -0.11312442934E+03  0.40518084321E+03  0.48162723548E+03  0.17260250486E+03 0.  0.
         24    2    3    3    0    0 -0.60446301332E+02 -0.23669466924E+02  0.28174099783E+03  0.30016891383E+03  0.80680778134E+02 0.  0.
         -6    2    1    2    0  502  0.15875930540E+03  0.11312442934E+03  0.15946628538E+03  0.30485508862E+03  0.17177157891E+03 0.  0.
        -24    2    5    5    0    0  0.11287419713E+03  0.11660544545E+03  0.53246309175E+02  0.18900029166E+03  0.80922966579E+02 0.  0.
          5    1    3    3  501    0 -0.98313004065E+02 -0.89454962411E+02  0.12343984538E+03  0.18145832165E+03  0.47000000000E+01 0. -1.
        -11    1    4    4    0    0 -0.34057752913E+02 -0.40045551608E+02  0.77919128108E+02  0.93994506553E+02  0.00000000000E+00 0.  1.
         12    1    4    4    0    0 -0.26388548418E+02  0.16376084684E+02  0.20382186973E+03  0.20617440728E+03  0.00000000000E+00 0. -1.
         -5    1    5    5    0  502  0.45885108265E+02 -0.34810161136E+01  0.10621997620E+03  0.11585479696E+03  0.47000000000E+01 0.  1.
         13    1    6    6    0    0  0.14082050013E+02  0.15743958030E+02  0.42436704802E+02  0.47403061731E+02  0.00000000000E+00 0. -1.
        -14    1    6    6    0    0  0.98792147119E+02  0.10086148742E+03  0.10809604373E+02  0.14159722993E+03  0.00000000000E+00 0.  1.
</event>
<event>
12    1  0.1039610E+000  0.2227721E+03  0.7818608E-02  0.1132120E+00
         21   -1    0    0  501  502  0.00000000000E+00  0.00000000000E+00  0.76281049189E+03  0.76281049189E+03  0.00000000000E+00 0.  1.
         21   -1    0    0  502  503 -0.00000000000E+00 -0.00000000000E+00 -0.12713173490E+03  0.12713173490E+03  0.00000000000E+00 0.  1.
         -6    2    1    2    0  503  0.10041135967E+03 -0.99514465902E+02  0.52137629638E+01  0.22127674635E+03  0.17014889091E+03 0.  0.
        -24    2    3    3    0    0  0.68144498215E+02 -0.13627315567E+03  0.37296040166E+01  0.17211736933E+03  0.79977704945E+02 0.  0.
          6    2    1    2  501    0 -0.10041135967E+03  0.99514465902E+02  0.63046499403E+03  0.66866548043E+03  0.17216807471E+03 0.  0.
         24    2    5    5    0    0 -0.12491673781E+03  0.68607245624E+02  0.58900357412E+03  0.61124676254E+03  0.79914009107E+02 0.  0.
          5    1    5    5  501    0  0.24505378146E+02  0.30907220277E+02  0.41461419909E+02  0.57418717891E+02  0.47000000000E+01 0. -1.
        -11    1    6    6    0    0 -0.59755673580E+02 -0.58171580635E+00  0.13875393598E+03  0.15107525829E+03  0.00000000000E+00 0.  1.
         12    1    6    6    0    0 -0.65161064232E+02  0.69188961431E+02  0.45024963814E+03  0.46017150425E+03  0.00000000000E+00 0. -1.
         -5    1    3    3    0  503  0.32266861452E+02  0.36758689764E+02  0.14841589472E+01  0.49159377019E+02  0.47000000000E+01 0.  1.
         13    1    4    4    0    0  0.10876884315E+02  0.37761461406E+00 -0.19315269125E+02  0.22170449399E+02  0.00000000000E+00 0. -1.
        -14    1    4    4    0    0  0.57267613900E+02 -0.13665077028E+03  0.23044873141E+02  0.14994691993E+03  0.00000000000E+00 0.  1.
</event>
<event>
12    1  0.1039610E+000  0.3108220E+03  0.7818608E-02  0.1079959E+00
         21   -1    0    0  503  502  0.00000000000E+00  0.00000000000E+00  0.20115589145E+03  0.20115589145E+03  0.00000000000E+00 0. -1.
         21   -1    0    0  501  503 -0.00000000000E+00 -0.00000000000E+00 -0.48139732902E+03  0.48139732902E+03  0.00000000000E+00 0. -1.
          6    2    1    2  501    0 -0.23756555888E+03 -0.10248401782E+03 -0.12307066490E+03  0.33425314523E+03  0.17215808974E+03 0.  0.
         24    2    3    3    0    0 -0.20004136609E+03 -0.14068495166E+03 -0.92767601702E+02  0.27254624100E+03  0.76595181238E+02 0.  0.
         -6    2    1    2    0  502  0.23756555888E+03  0.10248401782E+03 -0.15717077267E+03  0.34830007524E+03  0.17224959203E+03 0.  0.
        -24    2    5    5    0    0  0.23671542979E+03  0.92190977885E+02 -0.91425086947E+02  0.28158235210E+03  0.79979393505E+02 0.  0.
          5    1    3    3  501    0 -0.37524192798E+02  0.38200933833E+02 -0.30303063200E+02  0.61706904235E+02  0.47000000000E+01 0. -1.
        -13    1    4    4    0    0 -0.69892801925E+02 -0.93888902816E+02 -0.54041310590E+02  0.12892087916E+03  0.00000000000E+00 0.  1.
         14    1    4    4    0    0 -0.13014856416E+03 -0.46796048840E+02 -0.38726291112E+02  0.14362536184E+03  0.00000000000E+00 0. -1.
         -5    1    5    5    0  502  0.85012909453E+00  0.10293039938E+02 -0.65745685721E+02  0.66717723145E+02  0.47000000000E+01 0.  1.
         11    1    6    6    0    0  0.70872770683E+02  0.47985712844E+02  0.30915416018E+01  0.85645407880E+02  0.00000000000E+00 0. -1.
        -12    1    6    6    0    0  0.16584265911E+03  0.44205265040E+02 -0.94516628549E+02  0.19593694422E+03  0.00000000000E+00 0.  1.
</event>
<event>
12    1  0.1039610E+000  0.6185513E+03  0.7818608E-02  0.9867982E-01
         21   -1    0    0  501  502  0.00000000000E+00  0.00000000000E+00  0.70895021416E+03  0.70895021416E+03  0.00000000000E+00 0. -1.
         21   -1    0    0  502  503 -0.00000000000E+00 -0.00000000000E+00 -0.77203755150E+03  0.77203755150E+03  0.00000000000E+00 0. -1.
         -6    2    1    2    0  503  0.35025773002E+03  0.47919162176E+03 -0.43830347062E+03  0.75810000254E+03  0.17407065718E+03 0.  0.
        -24    2    3    3    0    0  0.15703949613E+03  0.15363059059E+03 -0.11708097524E+03  0.26158288052E+03  0.80336087199E+02 0.  0.
          6    2    1    2  501    0 -0.35025773002E+03 -0.47919162176E+03  0.37521613328E+03  0.72288776311E+03  0.17168134311E+03 0.  0.
         24    2    5    5    0    0 -0.34652122863E+03 -0.45555093300E+03  0.31556921836E+03  0.65844640940E+03  0.79775485151E+02 0.  0.
          5    1    5    5  501    0 -0.37365013934E+01 -0.23640688755E+02  0.59646914923E+02  0.64441353704E+02  0.47000000000E+01 0. -1.
        -13    1    6    6    0    0 -0.19753086998E+03 -0.30468236759E+03  0.22981000788E+03  0.42972366637E+03  0.00000000000E+00 0.  1.
         14    1    6    6    0    0 -0.14899035865E+03 -0.15086856542E+03  0.85759210482E+02  0.22872274304E+03  0.00000000000E+00 0. -1.
         -5    1    3    3    0  503  0.19321823389E+03  0.32556103117E+03 -0.32122249538E+03  0.49651712202E+03  0.47000000000E+01 0.  1.
         11    1    4    4    0    0  0.27851784566E+01 -0.84249421112E+01  0.39754587002E+00  0.88822807505E+01  0.00000000000E+00 0. -1.
        -12    1    4    4    0    0  0.15425431768E+03  0.16205553270E+03 -0.11747852111E+03  0.25270059977E+03  0.00000000000E+00 0.  1.
</event>
<event>
12    1  0.1039610E+000  0.2109084E+03  0.7818608E-02  0.1141018E+00
         21   -1    0    0  503  502  0.00000000000E+00  0.00000000000E+00  0.54877205580E+03  0.54877205580E+03  0.00000000000E+00 0. -1.
         21   -1    0    0  501  503 -0.00000000000E+00 -0.00000000000E+00 -0.85353147700E+02  0.85353147700E+02  0.00000000000E+00 0. -1.
          6    2    1    2  501    0 -0.10101393370E+03  0.66232390700E+02  0.30596679438E+03  0.37161543866E+03  0.17289248280E+03 0.  0.
         24    2    3    3    0    0 -0.40285799078E+02  0.10415096785E+03  0.16733534163E+03  0.21551773041E+03  0.77307217342E+02 0.  0.
         -6    2    1    2    0  502  0.10101393370E+03 -0.66232390700E+02  0.15745211372E+03  0.26250976484E+03  0.17184197433E+03 0.  0.
        -24    2    5    5    0    0  0.76642218319E+02 -0.66432791303E+02  0.25311353137E+02  0.12805794716E+03  0.73965044737E+02 0.  0.
          5    1    3    3  501    0 -0.60728134617E+02 -0.37918577154E+02  0.13863145276E+03  0.15609770825E+03  0.47000000000E+01 0. -1.
        -13    1    4    4    0    0  0.15334396319E+02  0.50623429308E+02  0.38859163962E+02  0.65634670177E+02  0.00000000000E+00 0.  1.
         14    1    4    4    0    0 -0.55620195397E+02  0.53527538546E+02  0.12847617766E+03  0.14988306024E+03  0.00000000000E+00 0. -1.
         -5    1    5    5    0  502  0.24371715376E+02  0.20040060234E+00  0.13214076058E+03  0.13445181768E+03  0.47000000000E+01 0.  1.
         13    1    6    6    0    0  0.50093432398E+02 -0.48766159499E+02  0.51468514951E+02  0.86813007740E+02  0.00000000000E+00 0. -1.
        -14    1    6    6    0    0  0.26548785922E+02 -0.17666631804E+02 -0.26157161814E+02  0.41244939415E+02  0.00000000000E+00 0.  1.
</event>
<event>
12    1  0.1039610E+000  0.2521908E+03  0.7818608E-02  0.1112001E+00
         21   -1    0    0  501  502  0.00000000000E+00  0.00000000000E+00  0.42742625161E+03  0.42742625161E+03  0.00000000000E+00 0. -1.
         21   -1    0    0  502  503 -0.00000000000E+00 -0.00000000000E+00 -0.15065371020E+03  0.15065371020E+03  0.00000000000E+00 0. -1.
         -6    2    1    2    0  503  0.18388253761E+03  0.27201277998E+01  0.10415272129E+03  0.27285154255E+03  0.17256879262E+03 0.  0.
        -24    2    3    3    0    0  0.22819918664E+02 -0.86248496259E+00  0.64131278544E+02  0.10678586815E+03  0.82273374672E+02 0.  0.
          6    2    1    2  501    0 -0.18388253761E+03 -0.27201277998E+01  0.17261982012E+03  0.30522841925E+03  0.17189124145E+03 0.  0.
         24    2    5    5    0    0 -0.17028986799E+03 -0.51387262013E+02  0.10509342048E+03  0.22075857098E+03  0.77784508711E+02 0.  0.
          5    1    5    5  501    0 -0.13592669627E+02  0.48667134213E+02  0.67526399634E+02  0.84469848275E+02  0.47000000000E+01 0. -1.
        -11    1    6    6    0    0 -0.22176866290E+02  0.19026563485E+02  0.85166714757E+01  0.30436116860E+02  0.00000000000E+00 0.  1.
         12    1    6    6    0    0 -0.14811300170E+03 -0.70413825497E+02  0.96576749007E+02  0.19032245412E+03  0.00000000000E+00 0. -1.
         -5    1    3    3    0  503  0.16106261895E+03  0.35826127624E+01  0.40021442747E+02  0.16606567441E+03  0.47000000000E+01 0.  1.
         13    1    4    4    0    0  0.35853224900E+02 -0.33281388644E+02  0.47128226244E+02  0.67927713599E+02  0.00000000000E+00 0. -1.
        -14    1    4    4    0    0 -0.13033306236E+02  0.32418903681E+02  0.17003052300E+02  0.38858154548E+02  0.00000000000E+00 0.  1.
</event>
<event>
12    1  0.1039610E+000  0.1844110E+03  0.7818608E-02  0.1164767E+00
         21   -1    0    0  501  502  0.00000000000E+00  0.00000000000E+00  0.99531910554E+02  0.99531910554E+02  0.00000000000E+00 0.  1.
         21   -1    0    0  502  503 -0.00000000000E+00 -0.00000000000E+00 -0.39563814498E+03  0.39563814498E+03  0.00000000000E+00 0.  1.
         -6    2    1    2    0  503 -0.56115915524E+02 -0.34290405685E+02 -0.24515365956E+03  0.30384938759E+03  0.16703085237E+03 0.  0.
        -24    2    3    3    0    0 -0.87283606642E+02 -0.16153328473E+01 -0.22852293766E+03  0.25549903841E+03  0.73729155037E+02 0.  0.
          6    2    1    2  501    0  0.56115915524E+02  0.34290405685E+02 -0.50952574862E+02  0.19132066795E+03  0.17228640457E+03 0.  0.
         24    2    5    5    0    0  0.40283251842E+02 -0.13843874392E+02 -0.89245530899E+02  0.12763375689E+03  0.80692117799E+02 0.  0.
          5    1    5    5  501    0  0.15832663682E+02  0.48134280077E+02  0.38292956038E+02  0.63686911057E+02  0.47000000000E+01 0. -1.
        -11    1    6    6    0    0 -0.11895729820E+02  0.22534921193E+02 -0.13893464363E+02  0.29023428693E+02  0.00000000000E+00 0.  1.
         12    1    6    6    0    0  0.52178981662E+02 -0.36378795585E+02 -0.75352066536E+02  0.98610328195E+02  0.00000000000E+00 0. -1.
         -5    1    3    3    0  503  0.31167691118E+02 -0.32675072838E+02 -0.16630721902E+02  0.48350349177E+02  0.47000000000E+01 0.  1.
         13    1    4    4    0    0  0.27832364178E+01  0.40190291324E+01 -0.90256527667E+02  0.90388825563E+02  0.00000000000E+00 0. -1.
        -14    1    4    4    0    0 -0.90066843060E+02 -0.56343619797E+01 -0.13826640999E+03  0.16511021285E+03  0.00000000000E+00 0.  1.
</event>
<event>
12    1  0.1039610E+000  0.1738466E+03  0.7818608E-02  0.1174562E+00
         21   -1    0    0  503  502  0.00000000000E+00  0.00000000000E+00  0.26993498339E+03  0.26993498339E+03  0.00000000000E+00 0. -1.
         21   -1    0    0  501  503 -0.00000000000E+00 -0.00000000000E+00 -0.11445581082E+03  0.11445581082E+03  0.00000000000E+00 0. -1.
          6    2    1    2  501    0 -0.24268883032E+02  0.22745883896E+01  0.11386146625E+03  0.20563204788E+03  0.16948732456E+03 0.  0.
         24    2    3    3    0    0  0.38343554058E+02 -0.33287544267E+02  0.86793138338E+02  0.12856216444E+03  0.80105508693E+02 0.  0.
         -6    2    1    2    0  502  0.24268883032E+02 -0.22745883896E+01  0.41617706318E+02  0.17875874633E+03  0.17212932195E+03 0.  0.
        -24    2    5    5    0    0 -0.43472199293E+02  0.17377106385E+01 -0.19748599180E+02  0.87146158613E+02  0.72880683599E+02 0.  0.
          5    1    3    3  501    0 -0.62612437091E+02  0.35562132657E+02  0.27068327911E+02  0.77069883440E+02  0.47000000000E+01 0. -1.
        -13    1    4    4    0    0  0.48199210646E+02 -0.14539015334E+02  0.13291241853E+02  0.52069223000E+02  0.00000000000E+00 0.  1.
         14    1    4    4    0    0 -0.98556565879E+01 -0.18748528933E+02  0.73501896486E+02  0.76492941445E+02  0.00000000000E+00 0. -1.
         -5    1    5    5    0  502  0.67741082325E+02 -0.40122990281E+01  0.61366305498E+02  0.91612587719E+02  0.47000000000E+01 0.  1.
         11    1    6    6    0    0 -0.37994288232E+01  0.21679126992E+02  0.18337125246E+02  0.28647344882E+02  0.00000000000E+00 0. -1.
        -12    1    6    6    0    0 -0.39672770469E+02 -0.19941416353E+02 -0.38085724425E+02  0.58498813731E+02  0.00000000000E+00 0.  1.
</event>
<event>
12    1  0.1039610E+000  0.1803942E+03  0.7818608E-02  0.1167506E+00
         21   -1    0    0  503  502  0.00000000000E+00  0.00000000000E+00  0.21948849443E+04  0.21948849443E+04  0.00000000000E+00 0. -1.
         21   -1    0    0  501  503 -0.00000000000E+00 -0.00000000000E+00 -0.14961272172E+02  0.14961272172E+02  0.00000000000E+00 0. -1.
          6    2    1    2  501    0  0.17836182935E+02  0.50058707232E+02  0.97345209476E+03  0.98996272932E+03  0.17202680332E+03 0.  0.
         24    2    3    3    0    0  0.14594053535E+02 -0.29310655891E+02  0.31871589784E+03  0.33040864908E+03  0.80733827502E+02 0.  0.
         -6    2    1    2    0  502 -0.17836182935E+02 -0.50058707232E+02  0.12064715774E+04  0.12198834872E+04  0.17238924455E+03 0.  0.
        -24    2    5    5    0    0 -0.46656417854E+02 -0.91376703233E+02  0.81639645724E+03  0.82654079677E+03  0.78358088981E+02 0.  0.
          5    1    3    3  501    0  0.32421294000E+01  0.79369363123E+02  0.65473619691E+03  0.65955408023E+03  0.47000000000E+01 0. -1.
        -13    1    4    4    0    0  0.40026832633E+01 -0.67186526491E+00 -0.43230973139E+01  0.59297594071E+01  0.00000000000E+00 0.  1.
         14    1    4    4    0    0  0.10591370272E+02 -0.28638790626E+02  0.32303899516E+03  0.32447888967E+03  0.00000000000E+00 0. -1.
         -5    1    5    5    0  502  0.28820234919E+02  0.41317996001E+02  0.39007512014E+03  0.39334269039E+03  0.47000000000E+01 0.  1.
         13    1    6    6    0    0 -0.57815960234E+02 -0.28090480432E+02  0.36988419190E+03  0.37542785694E+03  0.00000000000E+00 0. -1.
        -14    1    6    6    0    0  0.11159542380E+02 -0.63286222801E+02  0.44651226534E+03  0.45111293983E+03  0.00000000000E+00 0.  1.
</event>
<event>
12    1  0.1039610E+000  0.2019458E+03  0.7818608E-02  0.1148170E+00
         21   -1    0    0  501  502  0.00000000000E+00  0.00000000000E+00  0.14477304766E+03  0.14477304766E+03  0.00000000000E+00 0. -1.
         21   -1    0    0  502  503 -0.00000000000E+00 -0.00000000000E+00 -0.35113124510E+03  0.35113124510E+03  0.00000000000E+00 0. -1.
         -6    2    1    2    0  503  0.94266088611E+02 -0.41010870315E+02 -0.21383015893E+03  0.29411808130E+03  0.17382209852E+03 0.  0.
        -24    2    3    3    0    0 -0.95328317307E+01 -0.12115639692E+02 -0.39933504717E+02  0.89493335575E+02  0.78592039721E+02 0.  0.
          6    2    1    2  501    0 -0.94266088611E+02  0.41010870315E+02  0.74719614872E+01  0.20178621147E+03  0.17347581383E+03 0.  0.
         24    2    5    5    0    0 -0.30557876597E+02 -0.43648979627E+02  0.76205071168E+01  0.95728969680E+02  0.79164046527E+02 0.  0.
          5    1    5    5  501    0 -0.63708212013E+02  0.84659849941E+02 -0.14854562965E+00  0.10605724179E+03  0.47000000000E+01 0. -1.
        -13    1    6    6    0    0  0.16984697819E+02 -0.12406172010E+01  0.24486045226E+02  0.29825919967E+02  0.00000000000E+00 0.  1.
         14    1    6    6    0    0 -0.47542574416E+02 -0.42408362426E+02 -0.16865538109E+02  0.65903049713E+02  0.00000000000E+00 0. -1.
         -5    1    3    3    0  503  0.10379892034E+03 -0.28895230623E+02 -0.17389665421E+03  0.20462474572E+03  0.47000000000E+01 0.  1.
         13    1    4    4    0    0 -0.16276386304E+02 -0.35393319892E+02 -0.49885831348E+02  0.63294581232E+02  0.00000000000E+00 0. -1.
        -14    1    4    4    0    0  0.67435545730E+01  0.23277680200E+02  0.99523266310E+01  0.26198754343E+02  0.00000000000E+00 0.  1.
</event>
<event>
12    1  0.1039610E+000  0.2285810E+03  0.7818608E-02  0.1127713E+00
         21   -1    0    0  503  502  0.00000000000E+00  0.00000000000E+00  0.37743545641E+03  0.37743545641E+03  0.00000000000E+00 0.  1.
         21   -1    0    0  501  503 -0.00000000000E+00 -0.00000000000E+00 -0.17422286962E+03  0.17422286962E+03  0.00000000000E+00 0.  1.
          6    2    1    2  501    0 -0.11257193748E+03  0.10136993829E+03  0.22697442592E+03  0.32184562592E+03  0.17064264239E+03 0.  0.
         24    2    3    3    0    0 -0.74329844210E+02  0.84872627490E+01  0.18193720688E+03  0.21166354837E+03  0.78123946997E+02 0.  0.
         -6    2    1    2    0  502  0.11257193748E+03 -0.10136993829E+03 -0.23761839123E+02  0.22981270011E+03  0.17117519283E+03 0.  0.
        -24    2    5    5    0    0  0.24179058454E+02 -0.22672693063E+02  0.38543022721E+02  0.95982422235E+02  0.81414881313E+02 0.  0.
          5    1    3    3  501    0 -0.38242093267E+02  0.92882675539E+02  0.45037219046E+02  0.11018207754E+03  0.47000000000E+01 0. -1.
        -13    1    4    4    0    0 -0.44467921283E+02 -0.33698155369E+02  0.82484581816E+02  0.99582468015E+02  0.00000000000E+00 0.  1.
         14    1    4    4    0    0 -0.29861922926E+02  0.42185418118E+02  0.99452625059E+02  0.11208108036E+03  0.00000000000E+00 0. -1.
         -5    1    5    5    0  502  0.88392879023E+02 -0.78697245225E+02 -0.62304861843E+02  0.13383027788E+03  0.47000000000E+01 0.  1.
         13    1    6    6    0    0  0.45302539528E+02  0.86038122412E+01  0.66885266726E+01  0.46594871625E+02  0.00000000000E+00 0. -1.
        -14    1    6    6    0    0 -0.21123481074E+02 -0.31276505304E+02  0.31854496048E+02  0.49387550609E+02  0.00000000000E+00 0.  1.
</event>
<event>
12    1  0.1039610E+000  0.1748895E+03  0.7818608E-02  0.1173431E+00
         21   -1    0    0  501  502  0.00000000000E+00  0.00000000000E+00  0.25758324307E+03  0.25758324307E+03  0.00000000000E+00 0.  1.
         21   -1    0    0  502  503 -0.00000000000E+00 -0.00000000000E+00 -0.18922293368E+03  0.18922293368E+03  0.00000000000E+00 0.  1.
         -6    2    1    2    0  503 -0.21532518711E+02 -0.27987492981E+01 -0.10353388874E+03  0.20323782991E+03  0.17353635650E+03 0.  0.
        -24    2    3    3    0    0 -0.79657719665E+02  0.45295721091E+01 -0.87237402221E+02  0.14224677521E+03  0.79106961671E+02 0.  0.
          6    2    1    2  501    0  0.21532518711E+02  0.27987492981E+01  0.17189419812E+03  0.24356834684E+03  0.17119124357E+03 0.  0.
         24    2    5    5    0    0 -0.10073876946E+02  0.46265994168E+02  0.40017497865E+02  0.10108354171E+03  0.79840196996E+02 0.  0.
          5    1    5    5  501    0  0.31606395657E+02 -0.43467244870E+02  0.13187670026E+03  0.14248480513E+03  0.47000000000E+01 0. -1.
        -11    1    6    6    0    0 -0.34217244235E+02  0.21710023414E+02  0.50813995272E+02  0.64993899985E+02  0.00000000000E+00 0.  1.
         12    1    6    6    0    0  0.24143367289E+02  0.24555970754E+02 -0.10796497407E+02  0.36089641726E+02  0.00000000000E+00 0. -1.
         -5    1    3    3    0  503  0.58125200954E+02 -0.73283214072E+01 -0.16296486520E+02  0.60991054700E+02  0.47000000000E+01 0.  1.
         13    1    4    4    0    0 -0.15213575413E+02 -0.26769742680E+02 -0.19368615110E+01  0.30851635815E+02  0.00000000000E+00 0. -1.
        -14    1    4    4    0    0 -0.64444144252E+02  0.31299314789E+02 -0.85300540710E+02  0.11139513939E+03  0.00000000000E+00 0.  1.
</event>
<event>
12    1  0.1039610E+000  0.1922153E+03  0.7818608E-02  0.1156907E+00
         21   -1    0    0  503  502  0.00000000000E+00  0.00000000000E+00  0.10937291294E+03  0.10937291294E+03  0.00000000000E+00 0.  1.
         21   -1    0    0  501  503 -0.00000000000E+00 -0.00000000000E+00 -0.34064289867E+03  0.34064289867E+03  0.00000000000E+00 0.  1.
          6    2    1    2  501    0 -0.62050559495E+02  0.51069868806E+02 -0.14542171992E+03  0.23950061376E+03  0.17249540264E+03 0.  0.
         24    2    3    3    0    0  0.89499285513E+01  0.58597718056E+02 -0.13470415370E+03  0.16714942826E+03  0.79246000292E+02 0.  0.
         -6    2    1    2    0  502  0.62050559495E+02 -0.51069868806E+02 -0.85848265808E+02  0.21051519786E+03  0.17460905003E+03 0.  0.
        -24    2    5    5    0    0 -0.23096323622E+01  0.20382376713E+02 -0.74126151024E+02  0.11352470523E+03  0.83500878734E+02 0.  0.
          5    1    3    3  501    0 -0.71000488046E+02 -0.75278492491E+01 -0.10717566223E+02  0.72351185497E+02  0.47000000000E+01 0. -1.
        -13    1    4    4    0    0 -0.29617031898E+02  0.60912264633E+01 -0.65287916083E+02  0.71949868692E+02  0.00000000000E+00 0.  1.
         14    1    4    4    0    0  0.38566960450E+02  0.52506491592E+02 -0.69416237616E+02  0.95199559571E+02  0.00000000000E+00 0. -1.
         -5    1    5    5    0  502  0.64360191857E+02 -0.71452245520E+02 -0.11722114785E+02  0.96990492630E+02  0.47000000000E+01 0.  1.
         13    1    6    6    0    0 -0.50648011493E+01  0.31323813346E+02 -0.89211588852E+02  0.94686541170E+02  0.00000000000E+00 0. -1.
        -14    1    6    6    0    0  0.27551687871E+01 -0.10941436632E+02  0.15085437828E+02  0.18838164058E+02  0.00000000000E+00 0.  1.
</event>
<event>
12    1  0.1039610E+000  0.1785595E+03  0.7818608E-02  0.1169414E+00
         21   -1    0    0  503  502  0.00000000000E+00  0.00000000000E+00  0.10374338217E+02  0.10374338217E+02  0.00000000000E+00 0. -1.
         21   -1    0    0  501  503 -0.00000000000E+00 -0.00000000000E+00 -0.30590771474E+04  0.30590771474E+04  0.00000000000E+00 0. -1.
          6    2    1    2  501    0 -0.20185037660E+02  0.34334612677E+02 -0.15020078831E+04  0.15124837027E+04  0.17318478148E+03 0.  0.
         24    2    3    3    0    0 -0.82572020686E+02  0.43335976856E+02 -0.93766979674E+03  0.94461688207E+03  0.66183537840E+02 0.  0.
         -6    2    1    2    0  502  0.20185037660E+02 -0.34334612677E+02 -0.15466949261E+04  0.15569677829E+04  0.17406085555E+03 0.  0.
        -24    2    5    5    0    0  0.68187849637E+02 -0.32003384505E+02 -0.67692608114E+03  0.68585950139E+03  0.80625906914E+02 0.  0.
          5    1    3    3  501    0  0.62386983026E+02 -0.90013641792E+01 -0.56433808637E+03  0.56786682060E+03  0.47000000000E+01 0. -1.
        -13    1    4    4    0    0 -0.14470164020E+01 -0.49905788797E+01 -0.51075738993E+01  0.72860857227E+01  0.00000000000E+00 0.  1.
         14    1    4    4    0    0 -0.81125004284E+02  0.48326555735E+02 -0.93256222284E+03  0.93733079635E+03  0.00000000000E+00 0. -1.
         -5    1    5    5    0  502 -0.48002811977E+02 -0.23312281710E+01 -0.86976884493E+03  0.87110828155E+03  0.47000000000E+01 0.  1.
         13    1    6    6    0    0  0.62286143101E+02 -0.25380823029E+02 -0.67266376651E+03  0.67601796764E+03  0.00000000000E+00 0. -1.
        -14    1    6    6    0    0  0.59017065361E+01 -0.66225614764E+01 -0.42623146287E+01  0.98415337494E+01  0.00000000000E+00 0.  1.
</event>
<event>
12    1  0.1039610E+000  0.6010602E+03  0.7818608E-02  0.9903278E-01
         21   -1    0    0  501  502  0.00000000000E+00  0.00000000000E+00  0.51582160566E+03  0.51582160566E+03  0.00000000000E+00 0. -1.
         21   -1    0    0  502  503 -0.00000000000E+00 -0.00000000000E+00 -0.71846311767E+03  0.71846311767E+03  0.00000000000E+00 0. -1.
         -6    2    1    2    0  503 -0.21361324165E+03  0.53458161535E+03 -0.30177458634E+01  0.60106775776E+03  0.17281557264E+03 0.  0.
        -24    2    3    3    0    0 -0.21157964032E+03  0.37829565887E+03  0.26730686392E+02  0.44189334100E+03  0.81741332951E+02 0.  0.
          6    2    1    2  501    0  0.21361324165E+03 -0.53458161535E+03 -0.19962376614E+03  0.63321696557E+03  0.17235416154E+03 0.  0.
         24    2    5    5    0    0  0.10663610676E+03 -0.39883140906E+03 -0.99433125129E+02  0.43338583575E+03  0.86594365530E+02 0.  0.
          5    1    5    5  501    0  0.10697713489E+03 -0.13575020629E+03 -0.10019064101E+03  0.19983112982E+03  0.47000000000E+01 0. -1.
        -13    1    6    6    0    0  0.85217568541E+02 -0.26227444695E+03 -0.10490574252E+03  0.29505107071E+03  0.00000000000E+00 0.  1.
         14    1    6    6    0    0  0.21418538216E+02 -0.13655696211E+03  0.54726173872E+01  0.13833476505E+03  0.00000000000E+00 0. -1.
         -5    1    3    3    0  503 -0.20336013347E+01  0.15628595648E+03 -0.29748432256E+02  0.15917441676E+03  0.47000000000E+01 0.  1.
         11    1    4    4    0    0 -0.33129904357E+02  0.13397308648E+03  0.18368188523E+02  0.13922560402E+03  0.00000000000E+00 0. -1.
        -12    1    4    4    0    0 -0.17844973596E+03  0.24432257238E+03  0.83624978693E+01  0.30266773698E+03  0.00000000000E+00 0.  1.
</event>
<event>
12    1  0.1039610E+000  0.2893737E+03  0.7818608E-02  0.1090677E+00
         21   -1    0    0  503  502  0.00000000000E+00  0.00000000000E+00  0.12442974005E+04  0.12442974005E+04  0.00000000000E+00 0. -1.
         21   -1    0    0  501  503 -0.00000000000E+00 -0.00000000000E+00 -0.10047149759E+03  0.10047149759E+03  0.00000000000E+00 0. -1.
          6    2    1    2  501    0 -0.20389290425E+03  0.11122176891E+03  0.18553719160E+03  0.34374223087E+03  0.17260380509E+03 0.  0.
         24    2    3    3    0    0 -0.27561220248E+02  0.63109622077E+02  0.52021398391E+02  0.11734391265E+03  0.79504230606E+02 0.  0.
         -6    2    1    2    0  502  0.20389290425E+03 -0.11122176891E+03  0.95828871127E+03  0.10010266672E+04  0.17261093816E+03 0.  0.
        -24    2    5    5    0    0  0.21426870973E+02 -0.36213832163E+02  0.25939278374E+03  0.27480517796E+03  0.80391026499E+02 0.  0.
          5    1    3    3  501    0 -0.17633168400E+03  0.48112146834E+02  0.13351579321E+03  0.22639831822E+03  0.47000000000E+01 0. -1.
        -11    1    4    4    0    0 -0.47295990886E+02  0.46875190548E+02  0.60952421522E+02  0.90273982587E+02  0.00000000000E+00 0.  1.
         12    1    4    4    0    0  0.19734770638E+02  0.16234431529E+02 -0.89310231314E+01  0.27069930058E+02  0.00000000000E+00 0. -1.
         -5    1    5    5    0  502  0.18246603328E+03 -0.75007936748E+02  0.69889592753E+03  0.72622148921E+03  0.47000000000E+01 0.  1.
         13    1    6    6    0    0 -0.15980394475E+01  0.47242500023E+01  0.19520196673E+03  0.19526566540E+03  0.00000000000E+00 0. -1.
        -14    1    6    6    0    0  0.23024910421E+02 -0.40938082165E+02  0.64190817008E+02  0.79539512567E+02  0.00000000000E+00 0.  1.
</event>
<event>
12    1  0.1039610E+000  0.1832633E+03  0.7818608E-02  0.1164842E+00
         21   -1    0    0  501  502  0.00000000000E+00  0.00000000000E+00  0.12422776207E+03  0.12422776207E+03  0.00000000000E+00 0. -1.
         21   -1    0    0  502  503 -0.00000000000E+00 -0.00000000000E+00 -0.39890881624E+03  0.39890881624E+03  0.00000000000E+00 0. -1.
         -6    2    1    2    0  503  0.15103044166E+02 -0.61572659649E+02 -0.28657480314E+03  0.34016255614E+03  0.17194810975E+03 0.  0.
        -24    2    3    3    0    0  0.29126822460E+02 -0.10554993316E+03 -0.20337337005E+03  0.24489852614E+03  0.81396561865E+02 0.  0.
          6    2    1    2  501    0 -0.15103044166E+02  0.61572659649E+02  0.11893748976E+02  0.18297402216E+03  0.17122715077E+03 0.  0.
         24    2    5    5    0    0  0.26829258531E+02 -0.23915825761E+01 -0.36510518906E+02  0.92338458271E+02  0.80422907834E+02 0.  0.
          5    1    5    5  501    0 -0.41932302696E+02  0.63964242225E+02  0.48404267883E+02  0.90635563892E+02  0.47000000000E+01 0. -1.
        -13    1    6    6    0    0 -0.11868516090E+02  0.11981827319E+02 -0.46841004122E+02  0.49784591263E+02  0.00000000000E+00 0.  1.
         14    1    6    6    0    0  0.38697774620E+02 -0.14373409895E+02  0.10330485215E+02  0.42553867008E+02  0.00000000000E+00 0. -1.
         -5    1    3    3    0  503 -0.14023778294E+02  0.43977273513E+02 -0.83201433093E+02  0.95264030001E+02  0.47000000000E+01 0.  1.
         11    1    4    4    0    0 -0.28281694479E+02 -0.29718922974E+02 -0.54024903302E+02  0.67836264653E+02  0.00000000000E+00 0. -1.
        -12    1    4    4    0    0  0.57408516939E+02 -0.75831010188E+02 -0.14934846675E+03  0.17706226149E+03  0.00000000000E+00 0.  1.
</event>
<event>
12    1  0.1039610E+000  0.1748955E+03  0.7818608E-02  0.1173041E+00
         21   -1    0    0  503  502  0.00000000000E+00  0.00000000000E+00  0.35053530705E+03  0.35053530705E+03  0.00000000000E+00 0.  1.
         21   -1    0    0  501  503 -0.00000000000E+00 -0.00000000000E+00 -0.10399334501E+03  0.10399334501E+03  0.00000000000E+00 0.  1.
          6    2    1    2  501    0  0.27577737394E+02  0.38887526185E+01  0.21576345041E+03  0.27774505961E+03  0.17266382832E+03 0.  0.
         24    2    3    3    0    0  0.80469727134E+02  0.15549062409E+01  0.95860431489E+02  0.14658929968E+03  0.76298137174E+02 0.  0.
         -6    2    1    2    0  502 -0.27577737394E+02 -0.38887526185E+01  0.30778511626E+02  0.17678359245E+03  0.17184140300E+03 0.  0.
        -24    2    5    5    0    0 -0.48063043564E+02 -0.59972274257E+02  0.47437428929E+01  0.11147732666E+03  0.80609933794E+02 0.  0.
          5    1    3    3  501    0 -0.52891989740E+02  0.23338463776E+01  0.11990301892E+03  0.13115575994E+03  0.47000000000E+01 0. -1.
        -13    1    4    4    0    0 -0.86147385265E+01 -0.13226794780E+02  0.13023419738E+01  0.15838494709E+02  0.00000000000E+00 0.  1.
         14    1    4    4    0    0  0.89084465661E+02  0.14781701021E+02  0.94558089516E+02  0.13075080497E+03  0.00000000000E+00 0. -1.
         -5    1    5    5    0  502  0.20485306170E+02  0.56083521638E+02  0.26034768733E+02  0.65306265788E+02  0.47000000000E+01 0.  1.
         13    1    6    6    0    0 -0.61287047827E+02 -0.42609512507E+02  0.27871504606E+02  0.79677434424E+02  0.00000000000E+00 0. -1.
        -14    1    6    6    0    0  0.13224004263E+02 -0.17362761750E+02 -0.23127761713E+02  0.31799892235E+02  0.00000000000E+00 0.  1.
</event>
<event>
12    1  0.1039610E+000  0.2157643E+03  0.7818608E-02  0.1137183E+00
         21   -1    0    0  501  502  0.00000000000E+00  0.00000000000E+00  0.20965823514E+03  0.20965823514E+03  0.00000000000E+00 0.  1.
         21   -1    0    0  502  503 -0.00000000000E+00 -0.00000000000E+00 -0.22196143047E+03  0.22196143047E+03  0.00000000000E+00 0.  1.
         -6    2    1    2    0  503  0.51696991107E+02  0.11972386227E+03  0.36960476356E+01  0.21579594930E+03  0.17189487741E+03 0.  0.
        -24    2    3    3    0    0  0.45366961000E+02  0.10249393747E+03 -0.59220472094E+02  0.15008812599E+03  0.80350562409E+02 0.  0.
          6    2    1    2  501    0 -0.51696991107E+02 -0.11972386227E+03 -0.15999242967E+02  0.21582371632E+03  0.17122359260E+03 0.  0.
         24    2    5    5    0    0 -0.37452227213E+01 -0.59901440432E+02 -0.69721330803E+02  0.12208873369E+03  0.80264473255E+02 0.  0.
          5    1    5    5  501    0 -0.47951768385E+02 -0.59822421837E+02  0.53722087837E+02  0.93734982623E+02  0.47000000000E+01 0. -1.
        -11    1    6    6    0    0  0.27708996279E+02  0.33024381022E+01 -0.30451943645E+02  0.41303939812E+02  0.00000000000E+00 0.  1.
         12    1    6    6    0    0 -0.31454219001E+02 -0.63203878534E+02 -0.39269387158E+02  0.80784793881E+02  0.00000000000E+00 0. -1.
         -5    1    3    3    0  503  0.63300301063E+01  0.17229924804E+02  0.62916519730E+02  0.65707823315E+02  0.47000000000E+01 0.  1.
         13    1    4    4    0    0  0.66919828653E+02  0.66145038798E+02 -0.30184123478E+02  0.98815539945E+02  0.00000000000E+00 0. -1.
        -14    1    4    4    0    0 -0.21552867652E+02  0.36348898668E+02 -0.29036348616E+02  0.51272586041E+02  0.00000000000E+00 0.  1.
</event>
<event>
12    1  0.1039610E+000  0.1805559E+03  0.7818608E-02  0.1167324E+00
         21   -1    0    0  503  502  0.00000000000E+00  0.00000000000E+00  0.56846458876E+02  0.56846458876E+02  0.00000000000E+00 0.  1.
         21   -1    0    0  501  503 -0.00000000000E+00 -0.00000000000E+00 -0.82181793046E+03  0.82181793046E+03  0.00000000000E+00 0.  1.
          6    2    1    2  501    0 -0.53158471505E+02 -0.13787113818E+02 -0.14043564465E+03  0.22855251525E+03  0.17175032558E+03 0.  0.
         24    2    3    3    0    0 -0.14160083125E+02  0.60409617305E+01 -0.16101786460E+03  0.17997531222E+03  0.78913618078E+02 0.  0.
         -6    2    1    2    0  502  0.53158471505E+02  0.13787113818E+02 -0.62453582693E+03  0.65011187408E+03  0.17200157589E+03 0.  0.
        -24    2    5    5    0    0  0.32122918277E+01  0.72593146239E+02 -0.33435728076E+03  0.34981460641E+03  0.72769388918E+02 0.  0.
          5    1    3    3  501    0 -0.38998388380E+02 -0.19828075548E+02  0.20582219942E+02  0.48577203027E+02  0.47000000000E+01 0. -1.
        -13    1    4    4    0    0 -0.34640256313E+02 -0.23735317030E+02 -0.65028262028E+02  0.77407929144E+02  0.00000000000E+00 0.  1.
         14    1    4    4    0    0  0.20480173188E+02  0.29776278761E+02 -0.95989602568E+02  0.10256738308E+03  0.00000000000E+00 0. -1.
         -5    1    5    5    0  502  0.49946179678E+02 -0.58806032421E+02 -0.29017854617E+03  0.30029726767E+03  0.47000000000E+01 0.  1.
         11    1    6    6    0    0  0.13082745670E+02  0.18147186342E+01 -0.74024563677E+01  0.15140931222E+02  0.00000000000E+00 0. -1.
        -12    1    6    6    0    0 -0.98704538421E+01  0.70778427605E+02 -0.32695482439E+03  0.33467367519E+03  0.00000000000E+00 0.  1.
</event>
<event>
12    1  0.1039610E+000  0.2144917E+03  0.7818608E-02  0.1138290E+00
         21   -1    0    0  503  502  0.00000000000E+00  0.00000000000E+00  0.23443161618E+03  0.23443161618E+03  0.00000000000E+00 0.  1.
         21   -1    0    0  501  503 -0.00000000000E+00 -0.00000000000E+00 -0.29566120404E+03  0.29566120404E+03  0.00000000000E+00 0.  1.
          6    2    1    2  501    0 -0.11640584063E+03  0.51748019132E+02 -0.18509623943E+03  0.28240421700E+03  0.17106532879E+03 0.  0.
         24    2    3    3    0    0 -0.98926154069E+01  0.29671718614E+02 -0.14205143227E+03  0.16532571507E+03  0.78585672533E+02 0.  0.
         -6    2    1    2    0  502  0.11640584063E+03 -0.51748019132E+02  0.12386665157E+03  0.24768860321E+03  0.17256453742E+03 0.  0.
        -24    2    5    5    0    0  0.15027826836E+03 -0.50476421136E+02  0.12216409708E+03  0.21342569305E+03  0.74128488490E+02 0.  0.
          5    1    3    3  501    0 -0.10651322522E+03  0.22076300518E+02 -0.43044807162E+02  0.11707850194E+03  0.47000000000E+01 0. -1.
        -13    1    4    4    0    0  0.22802767268E+02 -0.10514097955E+02 -0.18011795320E+02  0.30902058532E+02  0.00000000000E+00 0.  1.
         14    1    4    4    0    0 -0.32695382675E+02  0.40185816569E+02 -0.12403963695E+03  0.13442365653E+03  0.00000000000E+00 0. -1.
         -5    1    5    5    0  502 -0.33872427726E+02 -0.12715979967E+01  0.17025544916E+01  0.34262910169E+02  0.47000000000E+01 0.  1.
         13    1    6    6    0    0  0.53856009769E+02 -0.35554601997E+02  0.10912377503E+02  0.65449824249E+02  0.00000000000E+00 0. -1.
        -14    1    6    6    0    0  0.96422258588E+02 -0.14921819138E+02  0.11125171958E+03  0.14797586880E+03  0.00000000000E+00 0.  1.
</event>
<event>
12    1  0.1039610E+000  0.1863405E+03  0.7818608E-02  0.1162093E+00
         21   -1    0    0  501  502  0.00000000000E+00  0.00000000000E+00  0.43918211639E+03  0.43918211639E+03  0.00000000000E+00 0. -1.
         21   -1    0    0  502  503 -0.00000000000E+00 -0.00000000000E+00 -0.28742726937E+03  0.28742726937E+03  0.00000000000E+00 0. -1.
         -6    2    1    2    0  503  0.88444249248E+01  0.73196639065E+02 -0.23377220600E+03  0.29895188709E+03  0.17113390859E+03 0.  0.
        -24    2    3    3    0    0 -0.46441823011E+02  0.88623817149E+02 -0.15701556253E+03  0.20299231565E+03  0.80876260071E+02 0.  0.
          6    2    1    2  501    0 -0.88444249248E+01 -0.73196639065E+02  0.38552705303E+03  0.42765749866E+03  0.16977589854E+03 0.  0.
         24    2    5    5    0    0 -0.16376962951E+02  0.19850141338E+02  0.19790613897E+03  0.21804323421E+03  0.87828122576E+02 0.  0.
          5    1    5    5  501    0  0.75325380267E+01 -0.93046780404E+02  0.18762091406E+03  0.20961426446E+03  0.47000000000E+01 0. -1.
        -11    1    6    6    0    0 -0.49619547044E+02 -0.27154699471E+01  0.12954496588E+03  0.13874931139E+03  0.00000000000E+00 0.  1.
         12    1    6    6    0    0  0.33242584093E+02  0.22565611286E+02  0.68361173090E+02  0.79293922820E+02  0.00000000000E+00 0. -1.
         -5    1    3    3    0  503  0.55286247935E+02 -0.15427178084E+02 -0.76756643471E+02  0.95959571442E+02  0.47000000000E+01 0.  1.
         13    1    4    4    0    0 -0.27116440537E+02 -0.61021967741E+01 -0.59521278682E+02  0.65691101139E+02  0.00000000000E+00 0. -1.
        -14    1    4    4    0    0 -0.19325382473E+02  0.94726013923E+02 -0.97494283851E+02  0.13730121451E+03  0.00000000000E+00 0.  1.
</event>
<event>
12    1  0.1039610E+000  0.1768987E+03  0.7818608E-02  0.1171848E+00
         21   -1    0    0  501  502  0.00000000000E+00  0.00000000000E+00  0.48249136734E+03  0.48249136734E+03  0.00000000000E+00 0.  1.
         21   -1    0    0  502  503 -0.00000000000E+00 -0.00000000000E+00 -0.83786586822E+02  0.83786586822E+02  0.00000000000E+00 0.  1.
         -6    2    1    2    0  503  0.77351729067E+01  0.10490131616E+01  0.61393891521E+02  0.18724949701E+03  0.17672642951E+03 0.  0.
        -24    2    3    3    0    0  0.63622633417E+02 -0.35247589770E+02  0.52203264144E+02  0.11981501579E+03  0.79625530785E+02 0.  0.
          6    2    1    2  501    0 -0.77351729067E+01 -0.10490131616E+01  0.33731088899E+03  0.37902845715E+03  0.17269337615E+03 0.  0.
         24    2    5    5    0    0 -0.18878625903E+02  0.54974242808E+02  0.28470497890E+03  0.30123222632E+03  0.79406292415E+02 0.  0.
          5    1    5    5  501    0  0.11143452996E+02 -0.56023255969E+02  0.52605910095E+02  0.77796230828E+02  0.47000000000E+01 0. -1.
        -11    1    6    6    0    0 -0.97808972186E+01  0.16221877622E+00  0.19806836850E+03  0.19830978509E+03  0.00000000000E+00 0.  1.
         12    1    6    6    0    0 -0.90977286844E+01  0.54812024032E+02  0.86636610403E+02  0.10292244123E+03  0.00000000000E+00 0. -1.
         -5    1    3    3    0  503 -0.55887460510E+02  0.36296602931E+02  0.91906273769E+01  0.67434481226E+02  0.47000000000E+01 0.  1.
         11    1    4    4    0    0  0.73655950821E+02 -0.29557403363E+01  0.39979407036E+02  0.83858741221E+02  0.00000000000E+00 0. -1.
        -12    1    4    4    0    0 -0.10033317403E+02 -0.32291849433E+02  0.12223857108E+02  0.35956274564E+02  0.00000000000E+00 0.  1.
</event>
<event>
12    1  0.1039610E+000  0.1930113E+03  0.7818608E-02  0.1156048E+00
         21   -1    0    0  503  502  0.00000000000E+00  0.00000000000E+00  0.18839207389E+04  0.18839207389E+04  0.00000000000E+00 0. -1.
         21   -1    0    0  501  503 -0.00000000000E+00 -0.00000000000E+00 -0.19649660635E+02  0.19649660635E+02  0.00000000000E+00 0. -1.
          6    2    1    2  501    0  0.65626244924E+02 -0.56897458211E+02  0.94542322648E+03  0.96492405031E+03  0.17236362996E+03 0.  0.
         24    2    3    3    0    0  0.23813275837E+02  0.33795190425E+02  0.51156143773E+03  0.51969195057E+03  0.81703316450E+02 0.  0.
         -6    2    1    2    0  502 -0.65626244924E+02  0.56897458211E+02  0.91884785176E+03  0.93864634919E+03  0.17097213048E+03 0.  0.
        -24    2    5    5    0    0  0.23639306452E+02  0.31972182709E+02  0.29576553860E+03  0.30869137700E+03  0.78943493297E+02 0.  0.
          5    1    3    3  501    0  0.41812969086E+02 -0.90692648636E+02  0.43386178875E+03  0.44523209974E+03  0.47000000000E+01 0. -1.
        -13    1    4    4    0    0  0.37849638272E+02  0.14114447603E+02  0.10640361696E+03  0.11381363034E+03  0.00000000000E+00 0.  1.
         14    1    4    4    0    0 -0.14036362434E+02  0.19680742822E+02  0.40515782077E+03  0.40587832024E+03  0.00000000000E+00 0. -1.
         -5    1    5    5    0  502 -0.89265551376E+02  0.24925275502E+02  0.62308231316E+03  0.62995497219E+03  0.47000000000E+01 0.  1.
         11    1    6    6    0    0  0.20838084251E+02 -0.16681861332E+02  0.38485826728E+02  0.46836621480E+02  0.00000000000E+00 0. -1.
        -12    1    6    6    0    0  0.28012222013E+01  0.48654044040E+02  0.25727971187E+03  0.26185475552E+03  0.00000000000E+00 0.  1.
</event>
<event>
12    1  0.1039610E+000  0.3679885E+03  0.7818608E-02  0.1055480E+00
         21   -1    0    0  503  502  0.00000000000E+00  0.00000000000E+00  0.11848146415E+04  0.11848146415E+04  0.00000000000E+00 0.  1.
         21   -1    0    0  501  503 -0.00000000000E+00 -0.00000000000E+00 -0.11444318727E+03  0.11444318727E+03  0.00000000000E+00 0.  1.
          6    2    1    2  501    0  0.80101521672E+02  0.31528221387E+03  0.56222580161E+03  0.67186038169E+03  0.17169563868E+03 0.  0.
         24    2    3    3    0    0  0.12111238633E+02  0.23834834751E+03  0.31928942405E+03  0.40807700101E+03  0.87318300415E+02 0.  0.
         -6    2    1    2    0  502 -0.80101521672E+02 -0.31528221387E+03  0.50814565264E+03  0.62739744710E+03  0.17203611299E+03 0.  0.
        -24    2    5    5    0    0 -0.66994947277E+01 -0.21395870311E+03  0.40583552154E+03  0.46570711246E+03  0.79733519820E+02 0.  0.
          5    1    3    3  501    0  0.67990283038E+02  0.76933866358E+02  0.24293637756E+03  0.26378338068E+03  0.47000000000E+01 0. -1.
        -11    1    4    4    0    0  0.36470783244E+02  0.58114158388E+02  0.58688550761E+02  0.90286872944E+02  0.00000000000E+00 0.  1.
         12    1    4    4    0    0 -0.24359544610E+02  0.18023418912E+03  0.26060087329E+03  0.31779012807E+03  0.00000000000E+00 0. -1.
         -5    1    5    5    0  502 -0.73402026944E+02 -0.10132351075E+03  0.10231013111E+03  0.16169033464E+03  0.47000000000E+01 0.  1.
         13    1    6    6    0    0 -0.40814299364E+02 -0.10242650677E+03  0.22426791988E+03  0.24990617481E+03  0.00000000000E+00 0. -1.
        -14    1    6    6    0    0  0.34114804636E+02 -0.11153219634E+03  0.18156760166E+03  0.21580093765E+03  0.00000000000E+00 0.  1.
</event>
<event>
12    1  0.1039610E+000  0.1821129E+03  0.7818608E-02  0.1165954E+00
         21   -1    0    0  503  502  0.00000000000E+00  0.00000000000E+00  0.34250615352E+03  0.34250615352E+03  0.00000000000E+00 0.  1.
         21   -1    0    0  501  503 -0.00000000000E+00 -0.00000000000E+00 -0.10055250863E+03  0.10055250863E+03  0.00000000000E+00 0.  1.
          6    2    1    2  501    0  0.89848884959E+01 -0.59742639817E+02  0.16559330122E+03  0.24558456381E+03  0.17099919690E+03 0.  0.
         24    2    3    3    0    0 -0.11576912517E+02  0.20751185634E+02  0.12021276544E+03  0.15080309609E+03  0.87896690530E+02 0.  0.
         -6    2    1    2    0  502 -0.89848884959E+01  0.59742639817E+02  0.76360343670E+02  0.19747409834E+03  0.17179990162E+03 0.  0.
        -24    2    5    5    0    0  0.50902318053E+02  0.62191912039E+02  0.21452649168E+02  0.11605283971E+03  0.80926914813E+02 0.  0.
          5    1    3    3  501    0  0.20561801013E+02 -0.80493825451E+02  0.45380535774E+02  0.94781467723E+02  0.47000000000E+01 0. -1.
        -13    1    4    4    0    0 -0.47723825679E+02  0.26278059721E+02  0.71178492165E+02  0.89635248129E+02  0.00000000000E+00 0.  1.
         14    1    4    4    0    0  0.36146913162E+02 -0.55268740869E+01  0.49034273276E+02  0.61167847959E+02  0.00000000000E+00 0. -1.
         -5    1    5    5    0  502 -0.59887206549E+02 -0.24492722222E+01  0.54907694503E+02  0.81421258639E+02  0.47000000000E+01 0.  1.
         11    1    6    6    0    0 -0.93394400056E+01  0.15003350808E+01 -0.19173294753E+02  0.21379695429E+02  0.00000000000E+00 0. -1.
        -12    1    6    6    0    0  0.60241758059E+02  0.60691576958E+02  0.40625943921E+02  0.94673144276E+02  0.00000000000E+00 0.  1.
</event>
<event>
12    1  0.1039610E+000  0.1795193E+03  0.7818608E-02  0.1168618E+00
         21   -1    0    0  501  502  0.00000000000E+00  0.00000000000E+00  0.22739387448E+03  0.22739387448E+03  0.00000000000E+00 0.  1.
         21   -1    0    0  502  503 -0.00000000000E+00 -0.00000000000E+00 -0.15204918345E+03  0.15204918345E+03  0.00000000000E+00 0.  1.
         -6    2    1    2    0  503  0.41188828636E+02  0.94253315784E+01 -0.14535369573E+02  0.17868051338E+03  0.17300315724E+03 0.  0.
        -24    2    3    3    0    0  0.61642993182E+02 -0.33594039981E+02 -0.51148284378E+02  0.11841746743E+03  0.80486840339E+02 0.  0.
          6    2    1    2  501    0 -0.41188828636E+02 -0.94253315784E+01  0.89880060599E+02  0.20076254455E+03  0.17447583649E+03 0.  0.
         24    2    5    5    0    0  0.13810094997E+02  0.34807378983E+02  0.95255620601E+02  0.12982312723E+03  0.79863250321E+02 0.  0.
          5    1    5    5  501    0 -0.54998923632E+02 -0.44232710561E+02 -0.53755600022E+01  0.70939417320E+02  0.47000000000E+01 0. -1.
        -13    1    6    6    0    0 -0.96778849295E+01  0.18903846907E+02 -0.80365763775E+01  0.22706903013E+02  0.00000000000E+00 0.  1.
         14    1    6    6    0    0  0.23487979926E+02  0.15903532076E+02  0.10329219698E+03  0.10711622422E+03  0.00000000000E+00 0. -1.
         -5    1    3    3    0  503 -0.20454164546E+02  0.43019371560E+02  0.36612914806E+02  0.60263045950E+02  0.47000000000E+01 0.  1.
         13    1    4    4    0    0  0.20834578758E+02 -0.56277345681E+02 -0.31331914569E+02  0.67697179997E+02  0.00000000000E+00 0. -1.
        -14    1    4    4    0    0  0.40808414424E+02  0.22683305700E+02 -0.19816369809E+02  0.50720287437E+02  0.00000000000E+00 0.  1.
</event>
<event>
12    1  0.1039610E+000  0.2072269E+03  0.7818608E-02  0.1144063E+00
         21   -1    0    0  501  502  0.00000000000E+00  0.00000000000E+00  0.13972008774E+03  0.13972008774E+03  0.00000000000E+00 0.  1.
         21   -1    0    0  502  503 -0.00000000000E+00 -0.00000000000E+00 -0.30529239437E+03  0.30529239437E+03  0.00000000000E+00 0.  1.
         -6    2    1    2    0  503  0.10179750456E+03  0.50966470732E+02 -0.83677292507E+02  0.22219015266E+03  0.17148254017E+03 0.  0.
        -24    2    3    3    0    0  0.30276331023E+02  0.81907226168E+02 -0.18047771298E+02  0.12020028716E+03  0.80603579729E+02 0.  0.
          6    2    1    2  501    0 -0.10179750456E+03 -0.50966470732E+02 -0.81895014117E+02  0.22282232945E+03  0.17315508681E+03 0.  0.
         24    2    5    5    0    0 -0.43218148790E+02  0.13007875696E+02  0.14905661163E+02  0.92758042812E+02  0.79654645544E+02 0.  0.
          5    1    5    5  501    0 -0.58579355774E+02 -0.63974346428E+02 -0.96800675280E+02  0.13006428664E+03  0.47000000000E+01 0. -1.
        -11    1    6    6    0    0  0.43577324214E+01  0.26856299480E+02  0.30442523262E+02  0.40828885316E+02  0.00000000000E+00 0.  1.
         12    1    6    6    0    0 -0.47575881211E+02 -0.13848423784E+02 -0.15536862099E+02  0.51929157496E+02  0.00000000000E+00 0. -1.
         -5    1    3    3    0  503  0.71521173541E+02 -0.30940755436E+02 -0.65629521210E+02  0.10198986551E+03  0.47000000000E+01 0.  1.
         13    1    4    4    0    0 -0.26811865072E+02  0.38509941406E+02 -0.10578237744E+02  0.48101879480E+02  0.00000000000E+00 0. -1.
        -14    1    4    4    0    0  0.57088196095E+02  0.43397284762E+02 -0.74695335533E+01  0.72098407677E+02  0.00000000000E+00 0.  1.
</event>
<event>
12    1  0.1039610E+000  0.1936420E+03  0.7818608E-02  0.1155594E+00
         21   -1    0    0  503  502  0.00000000000E+00  0.00000000000E+00  0.76474814044E+03  0.76474814044E+03  0.00000000000E+00 0. -1.
         21   -1    0    0  501  503 -0.00000000000E+00 -0.00000000000E+00 -0.56738604506E+02  0.56738604506E+02  0.00000000000E+00 0. -1.
          6    2    1    2  501    0 -0.78543095910E+02  0.42758379028E+02  0.51089829859E+03  0.54636462165E+03  0.17175544067E+03 0.  0.
         24    2    3    3    0    0 -0.10142313722E+03  0.68696338614E+02  0.47282658197E+03  0.49471368126E+03  0.78554503988E+02 0.  0.
         -6    2    1    2    0  502  0.78543095910E+02 -0.42758379028E+02  0.19711123735E+03  0.27512212330E+03  0.16982946136E+03 0.  0.
        -24    2    5    5    0    0  0.99586671182E+02 -0.79600188379E+02  0.15065798928E+03  0.21203373108E+03  0.77503408407E+02 0.  0.
          5    1    3    3  501    0  0.22880041313E+02 -0.25937959586E+02  0.38071716611E+02  0.51650940395E+02  0.47000000000E+01 0. -1.
        -11    1    4    4    0    0 -0.32192282867E+01  0.24287424425E+02  0.19798347667E+03  0.19949360754E+03  0.00000000000E+00 0.  1.
         12    1    4    4    0    0 -0.98203908936E+02  0.44408914189E+02  0.27484310530E+03  0.29522007371E+03  0.00000000000E+00 0. -1.
         -5    1    5    5    0  502 -0.21043575271E+02  0.36841809350E+02  0.46453248072E+02  0.63088392219E+02  0.47000000000E+01 0.  1.
         13    1    6    6    0    0 -0.10815210618E+02  0.30742200526E+01  0.10265561328E+02  0.15225024106E+02  0.00000000000E+00 0. -1.
        -14    1    6    6    0    0  0.11040188180E+03 -0.82674408431E+02  0.14039242795E+03  0.19680870697E+03  0.00000000000E+00 0.  1.
</event>
<event>
12    1  0.1039610E+000  0.2151551E+03  0.7818608E-02  0.1138002E+00
         21   -1    0    0  503  502  0.00000000000E+00  0.00000000000E+00  0.15433750667E+03  0.15433750667E+03  0.00000000000E+00 0. -1.
         21   -1    0    0  501  503 -0.00000000000E+00 -0.00000000000E+00 -0.30329256232E+03  0.30329256232E+03  0.00000000000E+00 0. -1.
          6    2    1    2  501    0 -0.11965295140E+03  0.41097857359E+02 -0.41044286320E+02  0.21903504592E+03  0.17402831736E+03 0.  0.
         24    2    3    3    0    0 -0.12992203119E+03  0.14892698314E+02  0.19834018332E+02  0.15180095979E+03  0.74489035809E+02 0.  0.
         -6    2    1    2    0  502  0.11965295140E+03 -0.41097857359E+02 -0.10791076933E+03  0.23859502307E+03  0.17110519641E+03 0.  0.
        -24    2    5    5    0    0  0.14633903155E+02 -0.96367666453E+01 -0.98502014085E+02  0.12846139788E+03  0.80577078465E+02 0.  0.
          5    1    3    3  501    0  0.10269079799E+02  0.26205159044E+02 -0.60878304651E+02  0.67234086130E+02  0.47000000000E+01 0. -1.
        -13    1    4    4    0    0  0.11409494381E+01 -0.69816097935E+01  0.17531709025E+02  0.18905170252E+02  0.00000000000E+00 0.  1.
         14    1    4    4    0    0 -0.13106298063E+03  0.21874308108E+02  0.23023093068E+01  0.13289578953E+03  0.00000000000E+00 0. -1.
         -5    1    5    5    0  502  0.10501904824E+03 -0.31461090713E+02 -0.94087552462E+01  0.11013362519E+03  0.47000000000E+01 0.  1.
         11    1    6    6    0    0  0.12147463314E+02  0.25425865643E+02 -0.50635676387E+01  0.28629970763E+02  0.00000000000E+00 0. -1.
        -12    1    6    6    0    0  0.24864398411E+01 -0.35062632289E+02 -0.93438446447E+02  0.99831427118E+02  0.00000000000E+00 0.  1.
</event>
<event>
12    1  0.1039610E+000  0.2017298E+03  0.7818608E-02  0.1149000E+00
         21   -1    0    0  501  502  0.00000000000E+00  0.00000000000E+00  0.87275391413E+02  0.87275391413E+02  0.00000000000E+00 0.  1.
         21   -1    0    0  502  503 -0.00000000000E+00 -0.00000000000E+00 -0.49624947357E+03  0.49624947357E+03  0.00000000000E+00 0.  1.
         -6    2    1    2    0  503 -0.10502426996E+03 -0.31095630229E+01 -0.28655796413E+03  0.35044309884E+03  0.17220665508E+03 0.  0.
        -24    2    3    3    0    0  0.60477152153E+01  0.44814759599E+01 -0.11084692619E+03  0.14237804022E+03  0.89038232266E+02 0.  0.
          6    2    1    2  501    0  0.10502426996E+03  0.31095630229E+01 -0.12241611803E+03  0.23308176615E+03  0.16823090410E+03 0.  0.
         24    2    5    5    0    0  0.16402177194E+02 -0.95983366917E+01 -0.25839461884E+01  0.83424806904E+02  0.81190283563E+02 0.  0.
          5    1    5    5  501    0  0.88622092768E+02  0.12707899715E+02 -0.11983217184E+03  0.14965695924E+03  0.47000000000E+01 0. -1.
        -13    1    6    6    0    0  0.33710311218E+02 -0.20420567696E+02  0.26788896796E+02  0.47655321413E+02  0.00000000000E+00 0.  1.
         14    1    6    6    0    0 -0.17308134024E+02  0.10822231004E+02 -0.29372842984E+02  0.35769485491E+02  0.00000000000E+00 0. -1.
         -5    1    3    3    0  503 -0.11107198518E+03 -0.75910389828E+01 -0.17571103794E+03  0.20806505862E+03  0.47000000000E+01 0.  1.
         13    1    4    4    0    0 -0.13719029694E+02  0.60236428356E+01  0.11215489705E+02  0.18715855793E+02  0.00000000000E+00 0. -1.
        -14    1    4    4    0    0  0.19766744909E+02 -0.15421668757E+01 -0.12206241590E+03  0.12366218443E+03  0.00000000000E+00 0.  1.
</event>
<event>
12    1  0.1039610E+000  0.1897806E+03  0.7818608E-02  0.1158985E+00
         21   -1    0    0  501  502  0.00000000000E+00  0.00000000000E+00  0.12020041565E+03  0.12020041565E+03  0.00000000000E+00 0.  1.
         21   -1    0    0  502  503 -0.00000000000E+00 -0.00000000000E+00 -0.44486489119E+03  0.44486489119E+03  0.00000000000E+00 0.  1.
         -6    2    1    2    0  503 -0.35075807229E+02 -0.70169796754E+02  0.76063800726E+00  0.18834502878E+03  0.17122838161E+03 0.  0.
        -24    2    3    3    0    0 -0.48763952419E+02  0.14363460455E+02  0.18369886923E+02  0.10079268706E+03  0.85073385781E+02 0.  0.
          6    2    1    2  501    0  0.35075807229E+02  0.70169796754E+02 -0.32542511354E+03  0.37672027806E+03  0.17280784342E+03 0.  0.
         24    2    5    5    0    0  0.28964247573E+02  0.11514447323E+03 -0.22689600871E+03  0.26813783388E+03  0.79491646304E+02 0.  0.
          5    1    5    5  501    0  0.61115596566E+01 -0.44974676480E+02 -0.98529104830E+02  0.10858244418E+03  0.47000000000E+01 0. -1.
        -13    1    6    6    0    0 -0.18707659987E+02  0.54844626818E+00 -0.32255783536E+02  0.37292263367E+02  0.00000000000E+00 0.  1.
         14    1    6    6    0    0  0.47671907560E+02  0.11459602697E+03 -0.19464022518E+03  0.23084557051E+03  0.00000000000E+00 0. -1.
         -5    1    3    3    0  503  0.13688145190E+02 -0.84533257209E+02 -0.17609248916E+02  0.87552341719E+02  0.47000000000E+01 0.  1.
         11    1    4    4    0    0 -0.51654400170E+02  0.31838331963E+02 -0.15450850565E+02  0.62614576756E+02  0.00000000000E+00 0. -1.
        -12    1    4    4    0    0  0.28904477508E+01 -0.17474871508E+02  0.33820737489E+02  0.38178110308E+02  0.00000000000E+00 0.  1.
</event>
<event>
12    1  0.1039610E+000  0.2419583E+03  0.7818608E-02  0.1119103E+00
         21   -1    0    0  503  502  0.00000000000E+00  0.00000000000E+00  0.21394896852E+03  0.21394896852E+03  0.00000000000E+00 0. -1.
         21   -1    0    0  501  503 -0.00000000000E+00 -0.00000000000E+00 -0.28669262567E+03  0.28669262567E+03  0.00000000000E+00 0. -1.
          6    2    1    2  501    0 -0.14941503716E+03 -0.69789988031E+02 -0.97911444822E+02  0.26101813834E+03  0.17705457282E+03 0.  0.
         24    2    3    3    0    0 -0.17994896693E+03 -0.54983562624E+02 -0.97700717418E+02  0.22675904456E+03  0.80432650404E+02 0.  0.
         -6    2    1    2    0  502  0.14941503716E+03  0.69789988031E+02  0.25167787675E+02  0.23962345585E+03  0.17201885740E+03 0.  0.
        -24    2    5    5    0    0  0.16541389807E+01  0.30053765043E+02  0.60325868581E+01  0.85349360949E+02  0.79637656553E+02 0.  0.
          5    1    3    3  501    0  0.30533929767E+02 -0.14806425408E+02 -0.21072740462E+00  0.34259093776E+02  0.47000000000E+01 0. -1.
        -11    1    4    4    0    0 -0.44255995219E+02 -0.34459431625E+02  0.35688557457E+01  0.56203045043E+02  0.00000000000E+00 0.  1.
         12    1    4    4    0    0 -0.13569297171E+03 -0.20524130999E+02 -0.10126957316E+03  0.17055599952E+03  0.00000000000E+00 0. -1.
         -5    1    5    5    0  502  0.14776089818E+03  0.39736222988E+02  0.19135200817E+02  0.15427409490E+03  0.47000000000E+01 0.  1.
         13    1    6    6    0    0 -0.11903522993E+02  0.82544092048E+01  0.40132391970E+02  0.42666591336E+02  0.00000000000E+00 0. -1.
        -14    1    6    6    0    0  0.13557661974E+02  0.21799355839E+02 -0.34099805112E+02  0.42682769613E+02  0.00000000000E+00 0.  1.
</event>
<event>
12    1  0.1039610E+000  0.2148461E+03  0.7818608E-02  0.1137796E+00
         21   -1    0    0  501  502  0.00000000000E+00  0.00000000000E+00  0.19244963483E+02  0.19244963483E+02  0.00000000000E+00 0.  1.
         21   -1    0    0  502  503 -0.00000000000E+00 -0.00000000000E+00 -0.40013175704E+04  0.40013175704E+04  0.00000000000E+00 0.  1.
         -6    2    1    2    0  503  0.81461483240E+02 -0.99925975790E+02 -0.71861236710E+03  0.75004173140E+03  0.17186532754E+03 0.  0.
        -24    2    3    3    0    0  0.59931551940E+02 -0.44121505867E+02 -0.64869261807E+03  0.65790846863E+03  0.80640821906E+02 0.  0.
          6    2    1    2  501    0 -0.81461483240E+02  0.99925975790E+02 -0.32634602398E+04  0.32705208024E+04  0.17179175965E+03 0.  0.
         24    2    5    5    0    0 -0.78733869290E+02  0.57890137634E+02 -0.12294768882E+04  0.12360958675E+04  0.82275663017E+02 0.  0.
          5    1    5    5  501    0 -0.27276139499E+01  0.42035838156E+02 -0.20339833516E+04  0.20344249350E+04  0.47000000000E+01 0. -1.
        -11    1    6    6    0    0 -0.10795653547E+01 -0.11358175642E+02 -0.29702117362E+02  0.31818067054E+02  0.00000000000E+00 0.  1.
         12    1    6    6    0    0 -0.77654303936E+02  0.69248313276E+02 -0.11997747708E+04  0.12042778004E+04  0.00000000000E+00 0. -1.
         -5    1    3    3    0  503  0.21529931300E+02 -0.55804469924E+02 -0.69919749025E+02  0.92133262772E+02  0.47000000000E+01 0.  1.
         11    1    4    4    0    0  0.14777167810E+02 -0.59526427287E+02 -0.40091904706E+03  0.40558333611E+03  0.00000000000E+00 0. -1.
        -12    1    4    4    0    0  0.45154384130E+02  0.15404921421E+02 -0.24777357102E+03  0.25232513253E+03  0.00000000000E+00 0.  1.
</event>
